********************************************************************************
*                       GENERAL UTILITY LATTICE PROGRAM                        *
*                                 Julian Gale                                  *
*                       Curtin Institute for Computation                       *
*                    School of Molecular and Life Sciences                     *
*                    Curtin University, Western Australia                      *
********************************************************************************
* Version = 6.1.2 * Last modified =   3rd November 2022                        *
********************************************************************************
*  optimise     - perform optimisation run                                     *
*  conp         - constant pressure calculation                                *
*  property     - calculate properties for final geometry                      *
********************************************************************************

  Job Started  at 11:54.31  7th October    2025                               

  Number of CPUs =     1


  Total number of configurations input =      1

********************************************************************************
*  Input for Configuration =   1 : c00160.vasp                                 *
********************************************************************************

  Formula = Ge3Si21O48                                                  

  Number of irreducible atoms/shells =     120


  Total number atoms/shells =     120

  Dimensionality = 3               :  Bulk   



  Cartesian lattice vectors (Angstroms) :

       17.182800    0.000000    0.000000
        0.000000    7.513760    0.000000
        0.000000    0.000000   10.447700

  Cell parameters (Angstroms/Degrees):

  a =      17.1828    alpha =  90.0000
  b =       7.5138    beta  =  90.0000
  c =      10.4477    gamma =  90.0000

  Initial cell volume =        1348.875752 Angs**3

  Temperature of configuration =   0.00     K 

  Pressure of configuration =         0.000 GPa 

  Fractional coordinates of asymmetric unit :

--------------------------------------------------------------------------------
   No.  Atomic       x           y          z         Charge      Occupancy
        Label      (Frac)      (Frac)     (Frac)        (e)         (Frac)  
--------------------------------------------------------------------------------
      1 Ge    c    0.556730    0.000000    0.122130     4.00000    1.000000    
      2 Ge    c    0.339810 *  0.706090 *  0.273440 *   4.00000    1.000000    
      3 Ge    c    0.160660 *  0.294090 *  0.982560 *   4.00000    1.000000    
      4 Si    c    0.052090 *  0.000000 *  0.372270 *   4.00000    1.000000    
      5 Si    c    0.447910 *  0.000000 *  0.372270 *   4.00000    1.000000    
      6 Si    c    0.947910 *  0.000000 *  0.627730 *   4.00000    1.000000    
      7 Si    c    0.552090 *  0.000000 *  0.627730 *   4.00000    1.000000    
      8 Si    c    0.943270 *  0.000000 *  0.122130 *   4.00000    1.000000    
      9 Si    c    0.443270 *  0.000000 *  0.877870 *   4.00000    1.000000    
     10 Si    c    0.056730 *  0.000000 *  0.877870 *   4.00000    1.000000    
     11 Si    c    0.160190 *  0.293910 *  0.273440 *   4.00000    1.000000    
     12 Si    c    0.839810 *  0.293910 *  0.726560 *   4.00000    1.000000    
     13 Si    c    0.660190 *  0.706090 *  0.726560 *   4.00000    1.000000    
     14 Si    c    0.839810 *  0.706090 *  0.726560 *   4.00000    1.000000    
     15 Si    c    0.660190 *  0.293910 *  0.726560 *   4.00000    1.000000    
     16 Si    c    0.160190 *  0.706090 *  0.273440 *   4.00000    1.000000    
     17 Si    c    0.339810 *  0.293910 *  0.273440 *   4.00000    1.000000    
     18 Si    c    0.660660 *  0.294090 *  0.017440 *   4.00000    1.000000    
     19 Si    c    0.839340 *  0.705910 *  0.017440 *   4.00000    1.000000    
     20 Si    c    0.339340 *  0.294090 *  0.982560 *   4.00000    1.000000    
     21 Si    c    0.160660 *  0.705910 *  0.982560 *   4.00000    1.000000    
     22 Si    c    0.339340 *  0.705910 *  0.982560 *   4.00000    1.000000    
     23 Si    c    0.660660 *  0.705910 *  0.017440 *   4.00000    1.000000    
     24 Si    c    0.839340 *  0.294090 *  0.017440 *   4.00000    1.000000    
     25 O2    c    0.106570 *  0.174340 *  0.366200 *   0.87073    1.000000    
     26 O3    c    0.393430 *  0.825660 *  0.366200 *   1.33043    1.000000    
     27 O2    c    0.893430 *  0.174340 *  0.633800 *   0.87073    1.000000    
     28 O2    c    0.606570 *  0.825660 *  0.633800 *   0.87073    1.000000    
     29 O2    c    0.893430 *  0.825660 *  0.633800 *   0.87073    1.000000    
     30 O2    c    0.606570 *  0.174340 *  0.633800 *   0.87073    1.000000    
     31 O2    c    0.106570 *  0.825660 *  0.366200 *   0.87073    1.000000    
     32 O2    c    0.393430 *  0.174340 *  0.366200 *   0.87073    1.000000    
     33 O2    c    0.000000 *  0.000000 *  0.500000 *   0.87073    1.000000    
     34 O2    c    0.500000 *  0.000000 *  0.500000 *   0.87073    1.000000    
     35 O2    c    0.994520 *  0.000000 *  0.250840 *   0.87073    1.000000    
     36 O3    c    0.505480 *  0.000000 *  0.250840 *   1.33043    1.000000    
     37 O2    c    0.005480 *  0.000000 *  0.749160 *   0.87073    1.000000    
     38 O2    c    0.494520 *  0.000000 *  0.749160 *   0.87073    1.000000    
     39 O3    c    0.610230 *  0.175520 *  0.115390 *   1.33043    1.000000    
     40 O2    c    0.889770 *  0.824480 *  0.115390 *   0.87073    1.000000    
     41 O2    c    0.389770 *  0.175520 *  0.884610 *   0.87073    1.000000    
     42 O2    c    0.110230 *  0.824480 *  0.884610 *   0.87073    1.000000    
     43 O2    c    0.389770 *  0.824480 *  0.884610 *   0.87073    1.000000    
     44 O3    c    0.110230 *  0.175520 *  0.884610 *   1.33043    1.000000    
     45 O3    c    0.610230 *  0.824480 *  0.115390 *   1.33043    1.000000    
     46 O2    c    0.889770 *  0.175520 *  0.115390 *   0.87073    1.000000    
     47 O3    c    0.500000 *  0.000000 *  0.000000 *   1.33043    1.000000    
     48 O2    c    0.000000 *  0.000000 *  0.000000 *   0.87073    1.000000    
     49 O2    c    0.151750 *  0.500000 *  0.313330 *   0.87073    1.000000    
     50 O3    c    0.348250 *  0.500000 *  0.313330 *   1.33043    1.000000    
     51 O2    c    0.848250 *  0.500000 *  0.686670 *   0.87073    1.000000    
     52 O2    c    0.651750 *  0.500000 *  0.686670 *   0.87073    1.000000    
     53 O2    c    0.250000 *  0.234950 *  0.285720 *   0.87073    1.000000    
     54 O3    c    0.250000 *  0.765050 *  0.285720 *   1.33043    1.000000    
     55 O2    c    0.750000 *  0.234950 *  0.714280 *   0.87073    1.000000    
     56 O2    c    0.750000 *  0.765050 *  0.714280 *   0.87073    1.000000    
     57 O3    c    0.131410 *  0.268650 *  0.127790 *   1.33043    1.000000    
     58 O3    c    0.368590 *  0.731350 *  0.127790 *   1.33043    1.000000    
     59 O2    c    0.868590 *  0.268650 *  0.872210 *   0.87073    1.000000    
     60 O2    c    0.631410 *  0.731350 *  0.872210 *   0.87073    1.000000    
     61 O2    c    0.868590 *  0.731350 *  0.872210 *   0.87073    1.000000    
     62 O2    c    0.631410 *  0.268650 *  0.872210 *   0.87073    1.000000    
     63 O2    c    0.131410 *  0.731350 *  0.127790 *   0.87073    1.000000    
     64 O2    c    0.368590 *  0.268650 *  0.127790 *   0.87073    1.000000    
     65 O2    c    0.653920 *  0.500000 *  0.058200 *   0.87073    1.000000    
     66 O2    c    0.846080 *  0.500000 *  0.058200 *   0.87073    1.000000    
     67 O2    c    0.346080 *  0.500000 *  0.941800 *   0.87073    1.000000    
     68 O3    c    0.153920 *  0.500000 *  0.941800 *   1.33043    1.000000    
     69 O2    c    0.750000 *  0.231060 *  0.027050 *   0.87073    1.000000    
     70 O2    c    0.750000 *  0.768940 *  0.027050 *   0.87073    1.000000    
     71 O3    c    0.250000 *  0.231060 *  0.972950 *   1.33043    1.000000    
     72 O2    c    0.250000 *  0.768940 *  0.972950 *   0.87073    1.000000    
     73 O2    s    0.106570 *  0.174340 *  0.366200 *  -2.87073    1.000000    
     74 O3    s    0.393430 *  0.825660 *  0.366200 *  -3.33043    1.000000    
     75 O2    s    0.893430 *  0.174340 *  0.633800 *  -2.87073    1.000000    
     76 O2    s    0.606570 *  0.825660 *  0.633800 *  -2.87073    1.000000    
     77 O2    s    0.893430 *  0.825660 *  0.633800 *  -2.87073    1.000000    
     78 O2    s    0.606570 *  0.174340 *  0.633800 *  -2.87073    1.000000    
     79 O2    s    0.106570 *  0.825660 *  0.366200 *  -2.87073    1.000000    
     80 O2    s    0.393430 *  0.174340 *  0.366200 *  -2.87073    1.000000    
     81 O2    s    0.000000 *  0.000000 *  0.500000 *  -2.87073    1.000000    
     82 O2    s    0.500000 *  0.000000 *  0.500000 *  -2.87073    1.000000    
     83 O2    s    0.994520 *  0.000000 *  0.250840 *  -2.87073    1.000000    
     84 O3    s    0.505480 *  0.000000 *  0.250840 *  -3.33043    1.000000    
     85 O2    s    0.005480 *  0.000000 *  0.749160 *  -2.87073    1.000000    
     86 O2    s    0.494520 *  0.000000 *  0.749160 *  -2.87073    1.000000    
     87 O3    s    0.610230 *  0.175520 *  0.115390 *  -3.33043    1.000000    
     88 O2    s    0.889770 *  0.824480 *  0.115390 *  -2.87073    1.000000    
     89 O2    s    0.389770 *  0.175520 *  0.884610 *  -2.87073    1.000000    
     90 O2    s    0.110230 *  0.824480 *  0.884610 *  -2.87073    1.000000    
     91 O2    s    0.389770 *  0.824480 *  0.884610 *  -2.87073    1.000000    
     92 O3    s    0.110230 *  0.175520 *  0.884610 *  -3.33043    1.000000    
     93 O3    s    0.610230 *  0.824480 *  0.115390 *  -3.33043    1.000000    
     94 O2    s    0.889770 *  0.175520 *  0.115390 *  -2.87073    1.000000    
     95 O3    s    0.500000 *  0.000000 *  0.000000 *  -3.33043    1.000000    
     96 O2    s    0.000000 *  0.000000 *  0.000000 *  -2.87073    1.000000    
     97 O2    s    0.151750 *  0.500000 *  0.313330 *  -2.87073    1.000000    
     98 O3    s    0.348250 *  0.500000 *  0.313330 *  -3.33043    1.000000    
     99 O2    s    0.848250 *  0.500000 *  0.686670 *  -2.87073    1.000000    
    100 O2    s    0.651750 *  0.500000 *  0.686670 *  -2.87073    1.000000    
    101 O2    s    0.250000 *  0.234950 *  0.285720 *  -2.87073    1.000000    
    102 O3    s    0.250000 *  0.765050 *  0.285720 *  -3.33043    1.000000    
    103 O2    s    0.750000 *  0.234950 *  0.714280 *  -2.87073    1.000000    
    104 O2    s    0.750000 *  0.765050 *  0.714280 *  -2.87073    1.000000    
    105 O3    s    0.131410 *  0.268650 *  0.127790 *  -3.33043    1.000000    
    106 O3    s    0.368590 *  0.731350 *  0.127790 *  -3.33043    1.000000    
    107 O2    s    0.868590 *  0.268650 *  0.872210 *  -2.87073    1.000000    
    108 O2    s    0.631410 *  0.731350 *  0.872210 *  -2.87073    1.000000    
    109 O2    s    0.868590 *  0.731350 *  0.872210 *  -2.87073    1.000000    
    110 O2    s    0.631410 *  0.268650 *  0.872210 *  -2.87073    1.000000    
    111 O2    s    0.131410 *  0.731350 *  0.127790 *  -2.87073    1.000000    
    112 O2    s    0.368590 *  0.268650 *  0.127790 *  -2.87073    1.000000    
    113 O2    s    0.653920 *  0.500000 *  0.058200 *  -2.87073    1.000000    
    114 O2    s    0.846080 *  0.500000 *  0.058200 *  -2.87073    1.000000    
    115 O2    s    0.346080 *  0.500000 *  0.941800 *  -2.87073    1.000000    
    116 O3    s    0.153920 *  0.500000 *  0.941800 *  -3.33043    1.000000    
    117 O2    s    0.750000 *  0.231060 *  0.027050 *  -2.87073    1.000000    
    118 O2    s    0.750000 *  0.768940 *  0.027050 *  -2.87073    1.000000    
    119 O3    s    0.250000 *  0.231060 *  0.972950 *  -3.33043    1.000000    
    120 O2    s    0.250000 *  0.768940 *  0.972950 *  -2.87073    1.000000    
--------------------------------------------------------------------------------



********************************************************************************
*  General input information                                                   *
********************************************************************************

  Species output for all configurations : 

--------------------------------------------------------------------------------
  Species    Type    Atomic    Atomic    Charge       Radii (Angs)     Library
                     Number     Mass       (e)     Cova   Ionic  VDW   Symbol
--------------------------------------------------------------------------------
    Ge       Core       32      72.61   4.000000   1.170  0.000  1.750 Ge       
    Si       Core       14      28.09   4.000000   1.200  0.000  2.100 Si       
    O1       Core        8      16.00   1.733957   0.730  0.000  0.000 O1       
    O2       Core        8      16.00   0.870733   0.730  0.000  1.360 O2       
    O3       Core        8      16.00   1.330431   0.730  0.000  1.360 O3       
    O1       Shell       8       0.00  -3.733957   0.730  0.000  0.000 O1       
    O2       Shell       8       0.00  -2.870733   0.730  0.000  0.000 O2       
    O3       Shell       8       0.00  -3.330431   0.730  0.000  0.000 O3       
--------------------------------------------------------------------------------


  Lattice summation method               =    Ewald          (3-D)
                                         =    Parry          (2-D)
                                         =    Saunders et al (1-D)
  Accuracy factor for lattice sums       =   12.000


  Analytic derivatives to be used

  Time limit = Infinity

  Maximum range for interatomic potentials =    100000.000000 Angstroms

  General interatomic potentials :

--------------------------------------------------------------------------------
Atom  Types   Potential      Parameter       Value         Units   Cutoffs(Ang)
  1     2                                                            Min /  Max 
--------------------------------------------------------------------------------
Si   c O1   s Buckingham    Buckingham A     1315.2478    eV        0.000 16.000
                            Buckingham rho  0.31775900    Ang       
                            Buckingham C     10.141118    eV*Ang^6  
--------------------------------------------------------------------------------
Si   c O2   s Buckingham    Buckingham A     1315.2478    eV        0.000 16.000
                            Buckingham rho  0.31775900    Ang       
                            Buckingham C     10.141118    eV*Ang^6  
--------------------------------------------------------------------------------
Si   c O3   s Buckingham    Buckingham A     1315.2478    eV        0.000 16.000
                            Buckingham rho  0.31775900    Ang       
                            Buckingham C     10.141118    eV*Ang^6  
--------------------------------------------------------------------------------
Ge   c O1   s Buckingham    Buckingham A     1497.3996    eV        0.000 16.000
                            Buckingham rho  0.32564600    Ang       
                            Buckingham C     16.808599    eV*Ang^6  
--------------------------------------------------------------------------------
Ge   c O2   s Buckingham    Buckingham A     1497.3996    eV        0.000 16.000
                            Buckingham rho  0.32564600    Ang       
                            Buckingham C     16.808599    eV*Ang^6  
--------------------------------------------------------------------------------
Ge   c O3   s Buckingham    Buckingham A     1497.3996    eV        0.000 16.000
                            Buckingham rho  0.32564600    Ang       
                            Buckingham C     16.808599    eV*Ang^6  
--------------------------------------------------------------------------------
O1   s O1   s Buckingham    Buckingham A     22764.000    eV        0.000 16.000
                            Buckingham rho  0.14900000    Ang       
                            Buckingham C     10.937044    eV*Ang^6  
--------------------------------------------------------------------------------
O1   s O2   s Buckingham    Buckingham A     22764.000    eV        0.000 16.000
                            Buckingham rho  0.14900000    Ang       
                            Buckingham C     10.937044    eV*Ang^6  
--------------------------------------------------------------------------------
O1   s O3   s Buckingham    Buckingham A     22764.000    eV        0.000 16.000
                            Buckingham rho  0.14900000    Ang       
                            Buckingham C     10.937044    eV*Ang^6  
--------------------------------------------------------------------------------
O2   s O2   s Buckingham    Buckingham A     22764.000    eV        0.000 16.000
                            Buckingham rho  0.14900000    Ang       
                            Buckingham C     10.937044    eV*Ang^6  
--------------------------------------------------------------------------------
O2   s O3   s Buckingham    Buckingham A     22764.000    eV        0.000 16.000
                            Buckingham rho  0.14900000    Ang       
                            Buckingham C     10.937044    eV*Ang^6  
--------------------------------------------------------------------------------
O3   s O3   s Buckingham    Buckingham A     22764.000    eV        0.000 16.000
                            Buckingham rho  0.14900000    Ang       
                            Buckingham C     10.937044    eV*Ang^6  
--------------------------------------------------------------------------------
O1   c O1   s Spring (c-s)  Spring k 2       180.31577    eV*Ang^-2 0.000  0.800
                            Spring k 4       0.0000000    eV*Ang^-4 
--------------------------------------------------------------------------------
O2   c O2   s Spring (c-s)  Spring k 2       75.969800    eV*Ang^-2 0.000  0.800
                            Spring k 4       0.0000000    eV*Ang^-4 
--------------------------------------------------------------------------------
O3   c O3   s Spring (c-s)  Spring k 2       128.14270    eV*Ang^-2 0.000  0.800
                            Spring k 4       0.0000000    eV*Ang^-4 
--------------------------------------------------------------------------------

  General Three-body potentials :

--------------------------------------------------------------------------------
  Atoms       Potential      Parameter       Value         Units   Cutoffs(Ang)
  1 / 2 / 3                                                          Min /  Max 
--------------------------------------------------------------------------------
Si    core    Harmonic      Three-body cnst  1.2614000    eV*rad^-2 0.000  1.900
O1    shel                  Three-body angl  109.47000    degrees   0.000  1.900
O1    shel                  Three-body k4    0.0000000    eV*rad^-4 0.000  3.500
                            Three-body k3    0.0000000    eV*rad^-3 
--------------------------------------------------------------------------------
Si    core    Harmonic      Three-body cnst  1.2614000    eV*rad^-2 0.000  1.900
O1    shel                  Three-body angl  109.47000    degrees   0.000  1.900
õ(1   shel                  Three-body k4    0.0000000    eV*rad^-4 0.000  3.500
                            Three-body k3    0.0000000    eV*rad^-3 
--------------------------------------------------------------------------------
Si    core    Harmonic      Three-body cnst  1.2614000    eV*rad^-2 0.000  1.900
õ(1   shel                  Three-body angl  109.47000    degrees   0.000  1.900
õ(1   shel                  Three-body k4    0.0000000    eV*rad^-4 0.000  3.500
                            Three-body k3    0.0000000    eV*rad^-3 
--------------------------------------------------------------------------------
Si    core    Harmonic      Three-body cnst  1.2614000    eV*rad^-2 0.000  1.900
O1    shel                  Three-body angl  109.47000    degrees   0.000  1.900
O2    shel                  Three-body k4    0.0000000    eV*rad^-4 0.000  3.500
                            Three-body k3    0.0000000    eV*rad^-3 
--------------------------------------------------------------------------------
Si    core    Harmonic      Three-body cnst  1.2614000    eV*rad^-2 0.000  1.900
O1    shel                  Three-body angl  109.47000    degrees   0.000  1.900
õ(2   shel                  Three-body k4    0.0000000    eV*rad^-4 0.000  3.500
                            Three-body k3    0.0000000    eV*rad^-3 
--------------------------------------------------------------------------------
Si    core    Harmonic      Three-body cnst  1.2614000    eV*rad^-2 0.000  1.900
O2    shel                  Three-body angl  109.47000    degrees   0.000  1.900
õ(1   shel                  Three-body k4    0.0000000    eV*rad^-4 0.000  3.500
                            Three-body k3    0.0000000    eV*rad^-3 
--------------------------------------------------------------------------------
Si    core    Harmonic      Three-body cnst  1.2614000    eV*rad^-2 0.000  1.900
õ(1   shel                  Three-body angl  109.47000    degrees   0.000  1.900
õ(2   shel                  Three-body k4    0.0000000    eV*rad^-4 0.000  3.500
                            Three-body k3    0.0000000    eV*rad^-3 
--------------------------------------------------------------------------------
Si    core    Harmonic      Three-body cnst  1.2614000    eV*rad^-2 0.000  1.900
O2    shel                  Three-body angl  109.47000    degrees   0.000  1.900
O2    shel                  Three-body k4    0.0000000    eV*rad^-4 0.000  3.500
                            Three-body k3    0.0000000    eV*rad^-3 
--------------------------------------------------------------------------------
Si    core    Harmonic      Three-body cnst  1.2614000    eV*rad^-2 0.000  1.900
O2    shel                  Three-body angl  109.47000    degrees   0.000  1.900
õ(2   shel                  Three-body k4    0.0000000    eV*rad^-4 0.000  3.500
                            Three-body k3    0.0000000    eV*rad^-3 
--------------------------------------------------------------------------------
Si    core    Harmonic      Three-body cnst  1.2614000    eV*rad^-2 0.000  1.900
õ(2   shel                  Three-body angl  109.47000    degrees   0.000  1.900
õ(2   shel                  Three-body k4    0.0000000    eV*rad^-4 0.000  3.500
                            Three-body k3    0.0000000    eV*rad^-3 
--------------------------------------------------------------------------------

********************************************************************************
*  Output for configuration   1 : c00160.vasp                                  *
********************************************************************************


  Components of energy : 

--------------------------------------------------------------------------------
  Interatomic potentials     =         760.34908818 eV    
  Three-body potentials      =           0.01251821 eV    
  Monopole - monopole (real) =       -2676.00317478 eV    
  Monopole - monopole (recip)=       -1115.35404472 eV    
  Monopole - monopole (total)=       -3791.35721950 eV    
--------------------------------------------------------------------------------
  Total lattice energy       =       -3030.99561312 eV    
--------------------------------------------------------------------------------
  Total lattice energy       =         -292444.7437 kJ/(mole unit cells)
--------------------------------------------------------------------------------


  Number of variables =      363

  Maximum number of calculations  =          1000
  Maximum Hessian update interval =            10
  Maximum step size               =   0.100000000
  Maximum parameter tolerance     =   0.000010000
  Maximum function  tolerance     =   0.000010000
  Maximum gradient  tolerance     =   0.001000000
  Maximum gradient  component     =   0.010000000

  Symmetry not applied to optimisation

  Cell parameters to be optimised using strains

  Newton-Raphson optimiser to be used

  BFGS hessian update to be used

  Lower half triangular hessian to be used

  Minimiser to switch to RFO
  When gradient norm is less than     0.050000

  Dumpfile to be written after every cycle

  Start of bulk optimisation :

  Cycle:      0 Energy:     -3030.995613  Gnorm:      4.413969  CPU:    0.149
  ** Hessian calculated **
  Cycle:      1 Energy:     -3061.882113  Gnorm:      0.978995  CPU:    0.344
  ** Hessian calculated **
  Cycle:      2 Energy:     -3067.022039  Gnorm:      0.301017  CPU:    0.709
  ** Hessian calculated **
  Cycle:      3 Energy:     -3067.266345  Gnorm:      0.177411  CPU:    0.987
  Cycle:      4 Energy:     -3067.358897  Gnorm:      0.121191  CPU:    1.144
  Cycle:      5 Energy:     -3067.445644  Gnorm:      0.094006  CPU:    1.329
  Cycle:      6 Energy:     -3067.526263  Gnorm:      0.076279  CPU:    1.515
  Cycle:      7 Energy:     -3067.587659  Gnorm:      0.064633  CPU:    1.701
  Cycle:      8 Energy:     -3067.614570  Gnorm:      0.048002  CPU:    1.856
  ** Hessian has required structure
  Cycle:      9 Energy:     -3067.622399  Gnorm:      0.061588  CPU:    2.059
  ** Hessian has required structure
  Cycle:     10 Energy:     -3067.631651  Gnorm:      0.058359  CPU:    2.265
  ** Hessian has required structure
  Cycle:     11 Energy:     -3067.641130  Gnorm:      0.066416  CPU:    2.496
  ** Hessian has required structure
  Cycle:     12 Energy:     -3067.645499  Gnorm:      0.066997  CPU:    2.698
  ** Hessian has wrong structure
  ** Imaginary eigenvectors =   4
  Cycle:     13 Energy:     -3067.676712  Gnorm:      0.066692  CPU:    3.345
  ** Hessian has wrong structure
  ** Imaginary eigenvectors =   3
  Cycle:     14 Energy:     -3067.723445  Gnorm:      0.071099  CPU:    3.895
  ** Hessian has wrong structure
  ** Imaginary eigenvectors =   1
  ** Hessian has wrong structure
  ** Imaginary eigenvectors =   1
  Cycle:     15 Energy:     -3067.847825  Gnorm:      0.066330  CPU:    4.634
  ** Hessian has wrong structure
  ** Imaginary eigenvectors =   1
  Cycle:     16 Energy:     -3067.963528  Gnorm:      0.059037  CPU:    5.043
  ** Hessian has required structure
  Cycle:     17 Energy:     -3068.075131  Gnorm:      0.035588  CPU:    5.382
  ** Hessian has required structure
  Cycle:     18 Energy:     -3068.120589  Gnorm:      0.023988  CPU:    5.636
  ** Hessian has required structure
  Cycle:     19 Energy:     -3068.141858  Gnorm:      0.025915  CPU:    5.866
  ** Hessian has required structure
  Cycle:     20 Energy:     -3068.161965  Gnorm:      0.013451  CPU:    6.097
  ** Hessian has required structure
  Cycle:     21 Energy:     -3068.175641  Gnorm:      0.018264  CPU:    6.357
  ** Hessian has required structure
  Cycle:     22 Energy:     -3068.182354  Gnorm:      0.021365  CPU:    6.579
  ** Hessian has required structure
  Cycle:     23 Energy:     -3068.187972  Gnorm:      0.020448  CPU:    6.803
  ** Hessian has required structure
  Cycle:     24 Energy:     -3068.195420  Gnorm:      0.018122  CPU:    7.023
  ** Hessian has required structure
  Cycle:     25 Energy:     -3068.201671  Gnorm:      0.009358  CPU:    7.246
  ** Hessian has required structure
  Cycle:     26 Energy:     -3068.205764  Gnorm:      0.009310  CPU:    7.493
  ** Hessian has wrong structure
  ** Imaginary eigenvectors =   1
  Cycle:     27 Energy:     -3068.215078  Gnorm:      0.017813  CPU:    7.990
  ** Hessian has required structure
  Cycle:     28 Energy:     -3068.236322  Gnorm:      0.016578  CPU:    8.349
  ** Hessian has required structure
  Cycle:     29 Energy:     -3068.247102  Gnorm:      0.011310  CPU:    8.600
  ** Hessian has required structure
  Cycle:     30 Energy:     -3068.251389  Gnorm:      0.008948  CPU:    8.821
  ** Hessian has required structure
  Cycle:     31 Energy:     -3068.254400  Gnorm:      0.002850  CPU:    9.044
  ** Hessian has required structure
  Cycle:     32 Energy:     -3068.255193  Gnorm:      0.004154  CPU:    9.262
  ** Hessian has required structure
  Cycle:     33 Energy:     -3068.255485  Gnorm:      0.001357  CPU:    9.484
  ** Hessian has required structure
  Cycle:     34 Energy:     -3068.255575  Gnorm:      0.001077  CPU:    9.734
  ** Hessian has required structure
  Cycle:     35 Energy:     -3068.255627  Gnorm:      0.000758  CPU:    9.985
  ** Hessian has required structure
  Cycle:     36 Energy:     -3068.255651  Gnorm:      0.000500  CPU:   10.209
  ** Hessian has required structure
  Cycle:     37 Energy:     -3068.255666  Gnorm:      0.000366  CPU:   10.431
  ** Hessian has required structure
  Cycle:     38 Energy:     -3068.255673  Gnorm:      0.000222  CPU:   10.757
  ** Hessian has required structure
  Cycle:     39 Energy:     -3068.255676  Gnorm:      0.000157  CPU:   10.951
  ** Hessian has required structure
  Cycle:     40 Energy:     -3068.255654  Gnorm:      0.001597  CPU:   11.229
  ** Hessian has required structure
  Cycle:     41 Energy:     -3068.255671  Gnorm:      0.000799  CPU:   11.590
  ** Hessian has required structure
  Cycle:     42 Energy:     -3068.255675  Gnorm:      0.000559  CPU:   11.784
  ** Hessian has required structure
  Cycle:     43 Energy:     -3068.255676  Gnorm:      0.000391  CPU:   11.979
  ** Hessian has required structure
  Cycle:     44 Energy:     -3068.255677  Gnorm:      0.000274  CPU:   12.174
  ** Hessian has required structure
  Cycle:     45 Energy:     -3068.255677  Gnorm:      0.000192  CPU:   12.365
  ** Hessian has required structure
  Cycle:     46 Energy:     -3068.255678  Gnorm:      0.000134  CPU:   12.553
  ** Hessian has required structure
  Cycle:     47 Energy:     -3068.255678  Gnorm:      0.000094  CPU:   12.742
  ** Hessian has required structure
  Cycle:     48 Energy:     -3068.255678  Gnorm:      0.000066  CPU:   12.928
  ** Hessian has required structure


  **** Optimisation achieved ****


  Final energy =   -3068.25567772 eV      
  Final Gnorm  =       0.00004605

  Components of energy : 

--------------------------------------------------------------------------------
  Interatomic potentials     =         816.94076734 eV    
  Three-body potentials      =           0.22269744 eV    
  Monopole - monopole (real) =       -2205.17907043 eV    
  Monopole - monopole (recip)=       -1680.24007207 eV    
  Monopole - monopole (total)=       -3885.41914250 eV    
--------------------------------------------------------------------------------
  Total lattice energy       =       -3068.25567772 eV    
--------------------------------------------------------------------------------
  Total lattice energy       =         -296039.7703 kJ/(mole unit cells)
--------------------------------------------------------------------------------

  Final fractional coordinates of atoms :

--------------------------------------------------------------------------------
   No.  Atomic        x           y          z          Radius
        Label       (Frac)      (Frac)     (Frac)       (Angs) 
--------------------------------------------------------------------------------
     1  Ge    c     0.556730    0.000000    0.122130    0.000000
     2  Ge    c     0.332519    0.715457    0.298289    0.000000
     3  Ge    c     0.169507    0.275559    0.977466    0.000000
     4  Si    c     0.047007    0.984961    0.377086    0.000000
     5  Si    c     0.449491    0.000285    0.380837    0.000000
     6  Si    c     0.946837    0.988254    0.635915    0.000000
     7  Si    c     0.548998    0.007952    0.635864    0.000000
     8  Si    c     0.948172    0.997143    0.121784    0.000000
     9  Si    c     0.444539    0.000944    0.881505    0.000000
    10  Si    c     0.058406    0.991924    0.882243    0.000000
    11  Si    c     0.164531    0.271046    0.287009    0.000000
    12  Si    c     0.833400    0.281705    0.723533    0.000000
    13  Si    c     0.663616    0.715358    0.733551    0.000000
    14  Si    c     0.843360    0.683432    0.718321    0.000000
    15  Si    c     0.652923    0.309711    0.735506    0.000000
    16  Si    c     0.148864    0.677274    0.289055    0.000000
    17  Si    c     0.344716    0.306589    0.294739    0.000000
    18  Si    c     0.654967    0.319015    0.037706    0.000000
    19  Si    c     0.853770    0.680982    0.022513    0.000000
    20  Si    c     0.352037    0.317404    0.988577    0.000000
    21  Si    c     0.151898    0.678466    0.985439    0.000000
    22  Si    c     0.333973    0.717003    0.988774    0.000000
    23  Si    c     0.673813    0.718289    0.036299    0.000000
    24  Si    c     0.836005    0.284326    0.027883    0.000000
    25  O2    c     0.113284    0.135739    0.372194    0.000000
    26  O3    c     0.385627    0.848547    0.399259    0.000000
    27  O2    c     0.884542    0.147691    0.638690    0.000000
    28  O2    c     0.608701    0.845392    0.651769    0.000000
    29  O2    c     0.899706    0.804828    0.630733    0.000000
    30  O2    c     0.594212    0.191968    0.652039    0.000000
    31  O2    c     0.086251    0.792194    0.369659    0.000000
    32  O2    c     0.403373    0.185024    0.376516    0.000000
    33  O2    c     0.001573    0.005213    0.511511    0.000000
    34  O2    c     0.515126    0.003393    0.491202    0.000000
    35  O2    c     0.984213    0.010470    0.263648    0.000000
    36  O3    c     0.492731    0.962477    0.245466    0.000000
    37  O2    c     0.001605    0.994777    0.761083    0.000000
    38  O2    c     0.475669    0.995187    0.733927    0.000000
    39  O3    c     0.596447    0.208911    0.126504    0.000000
    40  O2    c     0.915036    0.801148    0.099200    0.000000
    41  O2    c     0.416192    0.198896    0.915019    0.000000
    42  O2    c     0.097438    0.800336    0.896298    0.000000
    43  O2    c     0.374135    0.859973    0.894487    0.000000
    44  O3    c     0.126049    0.135179    0.869669    0.000000
    45  O3    c     0.633709    0.852604    0.131427    0.000000
    46  O2    c     0.879235    0.140406    0.114959    0.000000
    47  O3    c     0.512855    0.946588    0.977470    0.000000
    48  O2    c     0.012698    0.046774    0.013935    0.000000
    49  O2    c     0.132168    0.469241    0.305422    0.000000
    50  O3    c     0.366057    0.504818    0.323117    0.000000
    51  O2    c     0.860332    0.479544    0.688216    0.000000
    52  O2    c     0.635301    0.515297    0.710904    0.000000
    53  O2    c     0.254773    0.264230    0.334618    0.000000
    54  O3    c     0.234668    0.722576    0.339312    0.000000
    55  O2    c     0.741418    0.262136    0.692023    0.000000
    56  O2    c     0.753512    0.731705    0.685571    0.000000
    57  O3    c     0.161233    0.211657    0.138120    0.000000
    58  O3    c     0.342904    0.777623    0.136993    0.000000
    59  O2    c     0.846283    0.238990    0.875675    0.000000
    60  O2    c     0.659705    0.768718    0.884800    0.000000
    61  O2    c     0.861946    0.722090    0.869164    0.000000
    62  O2    c     0.639546    0.264067    0.887501    0.000000
    63  O2    c     0.141048    0.729678    0.137003    0.000000
    64  O2    c     0.355053    0.266411    0.141163    0.000000
    65  O2    c     0.638699    0.523943    0.060282    0.000000
    66  O2    c     0.872640    0.477125    0.053124    0.000000
    67  O2    c     0.372998    0.523987    0.971143    0.000000
    68  O3    c     0.128009    0.480727    0.960003    0.000000
    69  O2    c     0.745446    0.277950    0.069804    0.000000
    70  O2    c     0.765940    0.722304    0.068073    0.000000
    71  O3    c     0.266961    0.280349    0.933130    0.000000
    72  O2    c     0.243088    0.705639    0.949098    0.000000
    73  O2    s     0.111830    0.134418    0.363342    0.000000
    74  O3    s     0.387560    0.852541    0.389055    0.000000
    75  O2    s     0.885495    0.145565    0.647882    0.000000
    76  O2    s     0.608402    0.848423    0.659233    0.000000
    77  O2    s     0.898524    0.811026    0.640916    0.000000
    78  O2    s     0.595914    0.185238    0.659673    0.000000
    79  O2    s     0.088864    0.800174    0.361751    0.000000
    80  O2    s     0.401820    0.178770    0.367946    0.000000
    81  O2    s     0.000396    0.000803    0.510534    0.000000
    82  O2    s     0.511540    0.003538    0.495146    0.000000
    83  O2    s     0.987132    0.006002    0.259861    0.000000
    84  O3    s     0.494123    0.969691    0.248052    0.000000
    85  O2    s     0.002106    0.993725    0.761219    0.000000
    86  O2    s     0.480244    0.997231    0.739444    0.000000
    87  O3    s     0.599289    0.203607    0.117037    0.000000
    88  O2    s     0.911790    0.808640    0.093033    0.000000
    89  O2    s     0.412179    0.191269    0.919598    0.000000
    90  O2    s     0.099257    0.807435    0.904686    0.000000
    91  O2    s     0.377160    0.859315    0.903446    0.000000
    92  O3    s     0.122818    0.132444    0.879938    0.000000
    93  O3    s     0.631853    0.849901    0.120424    0.000000
    94  O2    s     0.881865    0.141064    0.105724    0.000000
    95  O3    s     0.509333    0.956706    0.979482    0.000000
    96  O2    s     0.010482    0.035743    0.011920    0.000000
    97  O2    s     0.137317    0.470374    0.301759    0.000000
    98  O3    s     0.361040    0.501303    0.318081    0.000000
    99  O2    s     0.855623    0.480471    0.695211    0.000000
   100  O2    s     0.640190    0.514457    0.715925    0.000000
   101  O2    s     0.254711    0.269383    0.325515    0.000000
   102  O3    s     0.234007    0.717413    0.330855    0.000000
   103  O2    s     0.741915    0.269329    0.700019    0.000000
   104  O2    s     0.753518    0.724774    0.694159    0.000000
   105  O3    s     0.162238    0.222756    0.139856    0.000000
   106  O3    s     0.341203    0.766728    0.135266    0.000000
   107  O2    s     0.843800    0.248380    0.875635    0.000000
   108  O2    s     0.661599    0.757818    0.884271    0.000000
   109  O2    s     0.859084    0.713611    0.869512    0.000000
   110  O2    s     0.642520    0.274359    0.886831    0.000000
   111  O2    s     0.142990    0.718926    0.137058    0.000000
   112  O2    s     0.353668    0.275922    0.141113    0.000000
   113  O2    s     0.644176    0.521981    0.055282    0.000000
   114  O2    s     0.866831    0.478535    0.047242    0.000000
   115  O2    s     0.366872    0.522459    0.974750    0.000000
   116  O3    s     0.133864    0.484657    0.964061    0.000000
   117  O2    s     0.745664    0.283101    0.061731    0.000000
   118  O2    s     0.765729    0.717203    0.059529    0.000000
   119  O3    s     0.267780    0.283790    0.942476    0.000000
   120  O2    s     0.243192    0.703872    0.957307    0.000000
--------------------------------------------------------------------------------

  Final Cartesian lattice vectors (Angstroms) :

       17.069043    0.003253    0.036486
        0.001038    7.616993    0.018567
        0.021018    0.024780   10.263573


  Final cell parameters and derivatives :

--------------------------------------------------------------------------------
       a           17.069083 Angstrom     dE/de1(xx)    -0.002108 eV/strain
       b            7.617015 Angstrom     dE/de2(yy)    -0.001864 eV/strain
       c           10.263624 Angstrom     dE/de3(zz)     0.008441 eV/strain
       alpha       89.721993 Degrees      dE/de4(yz)    -0.000115 eV/strain
       beta        89.760174 Degrees      dE/de5(xz)     0.000284 eV/strain
       gamma       89.980976 Degrees      dE/de6(xy)    -0.000243 eV/strain
--------------------------------------------------------------------------------

  Primitive cell volume =          1334.402432 Angs**3

  Density of cell =      1.960867 g/cm**3

  Non-primitive cell volume =          1334.402432 Angs**3


  Final internal derivatives :

--------------------------------------------------------------------------------
   No.  Atomic          a             b             c           Radius
        Label          (eV)          (eV)          (eV)        (eV/Angs)
--------------------------------------------------------------------------------
      1 Ge    c       0.000000      0.000000      0.000000      0.000000
      2 Ge    c      -0.001459     -0.000434      0.001587      0.000000
      3 Ge    c       0.001321      0.000636     -0.001544      0.000000
      4 Si    c       0.003243     -0.000051     -0.000521      0.000000
      5 Si    c      -0.003044     -0.000068     -0.000006      0.000000
      6 Si    c      -0.003435     -0.000151      0.000337      0.000000
      7 Si    c       0.002457      0.000149      0.001264      0.000000
      8 Si    c      -0.002605     -0.000129     -0.001158      0.000000
      9 Si    c      -0.002658     -0.000031      0.001035      0.000000
     10 Si    c       0.002797      0.000107      0.000525      0.000000
     11 Si    c       0.000917      0.000409      0.001779      0.000000
     12 Si    c      -0.001362      0.000285     -0.001792      0.000000
     13 Si    c       0.001211     -0.000488     -0.001720      0.000000
     14 Si    c      -0.001420     -0.000184     -0.001663      0.000000
     15 Si    c       0.001316      0.000177     -0.001827      0.000000
     16 Si    c       0.001291     -0.000188      0.001792      0.000000
     17 Si    c      -0.001425      0.000392      0.001636      0.000000
     18 Si    c       0.001347      0.000281      0.001675      0.000000
     19 Si    c      -0.001036     -0.000159      0.001952      0.000000
     20 Si    c      -0.000964      0.000252     -0.001898      0.000000
     21 Si    c       0.001534     -0.000597     -0.001558      0.000000
     22 Si    c      -0.001289     -0.000538     -0.001654      0.000000
     23 Si    c       0.001436     -0.000463      0.001652      0.000000
     24 Si    c      -0.001305      0.000536      0.001710      0.000000
     25 O2    c      -0.000868     -0.000393     -0.000050      0.000000
     26 O3    c       0.001416      0.000648     -0.000111      0.000000
     27 O2    c       0.000675     -0.000303      0.000103      0.000000
     28 O2    c      -0.000753      0.000389     -0.000065      0.000000
     29 O2    c       0.000668      0.000410      0.000128      0.000000
     30 O2    c      -0.000482     -0.000372      0.000056      0.000000
     31 O2    c      -0.000268      0.000225     -0.000158      0.000000
     32 O2    c       0.000528     -0.000307     -0.000023      0.000000
     33 O2    c       0.000364      0.000181      0.000149      0.000000
     34 O2    c      -0.000164     -0.000027     -0.001065      0.000000
     35 O2    c      -0.000206      0.000176      0.000776      0.000000
     36 O3    c       0.000082     -0.000476     -0.000884      0.000000
     37 O2    c      -0.000456      0.000021     -0.000095      0.000000
     38 O2    c       0.000720     -0.000052     -0.001374      0.000000
     39 O3    c      -0.000755     -0.000532     -0.000191      0.000000
     40 O2    c       0.000201      0.000261     -0.000099      0.000000
     41 O2    c       0.000002     -0.000124      0.000094      0.000000
     42 O2    c      -0.000521      0.000220     -0.000156      0.000000
     43 O2    c       0.001173      0.000548     -0.000161      0.000000
     44 O3    c      -0.001708     -0.000722     -0.000268      0.000000
     45 O3    c      -0.001490      0.000648      0.000022      0.000000
     46 O2    c       0.001063     -0.000493      0.000147      0.000000
     47 O3    c      -0.000219     -0.000519     -0.000978      0.000000
     48 O2    c      -0.000076      0.000410      0.000602      0.000000
     49 O2    c       0.000293      0.000055     -0.000197      0.000000
     50 O3    c      -0.000394     -0.000200     -0.000538      0.000000
     51 O2    c      -0.000137      0.000014      0.000282      0.000000
     52 O2    c       0.000229      0.000116      0.000242      0.000000
     53 O2    c       0.000336      0.000092     -0.000574      0.000000
     54 O3    c       0.000175     -0.000196     -0.000902      0.000000
     55 O2    c       0.000230      0.000131      0.000513      0.000000
     56 O2    c      -0.000026     -0.000110      0.000521      0.000000
     57 O3    c      -0.000414     -0.001044     -0.000142      0.000000
     58 O3    c       0.000616      0.001011      0.000083      0.000000
     59 O2    c       0.000742     -0.000559      0.000130      0.000000
     60 O2    c      -0.000535      0.000650     -0.000019      0.000000
     61 O2    c       0.000872      0.000507     -0.000152      0.000000
     62 O2    c      -0.000894     -0.000597      0.000212      0.000000
     63 O2    c      -0.000453      0.000593     -0.000151      0.000000
     64 O2    c       0.000424     -0.000587      0.000070      0.000000
     65 O2    c       0.000243      0.000054     -0.000224      0.000000
     66 O2    c      -0.000264     -0.000168     -0.000257      0.000000
     67 O2    c      -0.000379     -0.000015      0.000200      0.000000
     68 O3    c       0.000650      0.000212      0.000437      0.000000
     69 O2    c       0.000082      0.000069     -0.000495      0.000000
     70 O2    c      -0.000170     -0.000075     -0.000522      0.000000
     71 O3    c      -0.000212      0.000063      0.000901      0.000000
     72 O2    c      -0.000238     -0.000021      0.000568      0.000000
     73 O2    s       0.000463      0.000193      0.000473      0.000000
     74 O3    s      -0.000925     -0.000413      0.000642      0.000000
     75 O2    s      -0.000516      0.000153     -0.000549      0.000000
     76 O2    s       0.000219     -0.000137     -0.000372      0.000000
     77 O2    s      -0.000544     -0.000167     -0.000606      0.000000
     78 O2    s       0.000183      0.000110     -0.000416      0.000000
     79 O2    s       0.000377     -0.000154      0.000498      0.000000
     80 O2    s      -0.000380      0.000168      0.000555      0.000000
     81 O2    s      -0.000019     -0.000085     -0.000122      0.000000
     82 O2    s       0.000317      0.000044      0.000357      0.000000
     83 O2    s      -0.000139     -0.000124     -0.000097      0.000000
     84 O3    s       0.000046      0.000329      0.000474      0.000000
     85 O2    s      -0.000083     -0.000021     -0.000071      0.000000
     86 O2    s      -0.000310      0.000053      0.000245      0.000000
     87 O3    s       0.000638      0.000291      0.000703      0.000000
     88 O2    s      -0.000294     -0.000096      0.000372      0.000000
     89 O2    s      -0.000180      0.000054     -0.000301      0.000000
     90 O2    s       0.000764     -0.000249     -0.000338      0.000000
     91 O2    s      -0.000534     -0.000227     -0.000345      0.000000
     92 O3    s       0.001425      0.000542     -0.000473      0.000000
     93 O3    s       0.001110     -0.000375      0.000642      0.000000
     94 O2    s      -0.000592      0.000190      0.000337      0.000000
     95 O3    s       0.000108      0.000334      0.000395      0.000000
     96 O2    s      -0.000286     -0.000273     -0.000087      0.000000
     97 O2    s       0.000361      0.000009      0.000244      0.000000
     98 O3    s      -0.000381      0.000070      0.000528      0.000000
     99 O2    s      -0.000341     -0.000010     -0.000516      0.000000
    100 O2    s       0.000214     -0.000018     -0.000457      0.000000
    101 O2    s      -0.000037      0.000198      0.000621      0.000000
    102 O3    s      -0.000137     -0.000148      0.000877      0.000000
    103 O2    s      -0.000105      0.000087     -0.000653      0.000000
    104 O2    s      -0.000048     -0.000107     -0.000673      0.000000
    105 O3    s       0.000236      0.000605      0.000040      0.000000
    106 O3    s      -0.000476     -0.000618      0.000028      0.000000
    107 O2    s      -0.000232      0.000182     -0.000051      0.000000
    108 O2    s       0.000077     -0.000216     -0.000017      0.000000
    109 O2    s      -0.000328     -0.000152      0.000018      0.000000
    110 O2    s       0.000331      0.000185     -0.000077      0.000000
    111 O2    s       0.000327     -0.000282      0.000004      0.000000
    112 O2    s      -0.000272      0.000255      0.000079      0.000000
    113 O2    s       0.000395     -0.000081      0.000366      0.000000
    114 O2    s      -0.000345      0.000075      0.000476      0.000000
    115 O2    s      -0.000437      0.000014     -0.000235      0.000000
    116 O3    s       0.000447      0.000039     -0.000366      0.000000
    117 O2    s       0.000076      0.000145      0.000564      0.000000
    118 O2    s       0.000050     -0.000116      0.000643      0.000000
    119 O3    s       0.000205      0.000154     -0.000925      0.000000
    120 O2    s       0.000018     -0.000234     -0.000465      0.000000
--------------------------------------------------------------------------------
  Maximum abs         0.003435      0.001044      0.001952      0.000000
--------------------------------------------------------------------------------


  Born effective charge tensors : 

-------------------------------------------------------------------------------
  Atom             x           y             z
-------------------------------------------------------------------------------
    1 Ge    x       4.2994      0.2744     -0.0937
            y      -0.1901      3.9110     -0.0257
            z      -0.7699     -0.0898      3.7200
-------------------------------------------------------------------------------
    2 Ge    x       3.9573      0.3801      0.1767
            y       0.1855      4.1667      0.2506
            z       0.1724      0.0565      3.4627
-------------------------------------------------------------------------------
    3 Ge    x       4.0101      0.4366      0.2022
            y       0.1029      4.1683      0.2998
            z       0.1842      0.0684      3.3612
-------------------------------------------------------------------------------
    4 Si    x       3.4176     -0.1378     -0.2347
            y       0.1292      3.2152      0.0196
            z      -0.4013      0.0705      3.8237
-------------------------------------------------------------------------------
    5 Si    x       3.7797      0.0177     -0.1024
            y       0.2421      3.4256     -0.0450
            z       0.5556      0.1109      4.0694
-------------------------------------------------------------------------------
    6 Si    x       3.4472      0.0749     -0.1354
            y      -0.1034      3.2419      0.0100
            z      -0.5662     -0.0651      3.7557
-------------------------------------------------------------------------------
    7 Si    x       3.4513      0.0590      0.3412
            y      -0.0847      3.2693      0.0058
            z       0.2920      0.0193      3.7450
-------------------------------------------------------------------------------
    8 Si    x       3.4284      0.1534      0.2971
            y      -0.2060      3.2613      0.0395
            z       0.4385      0.0315      3.1412
-------------------------------------------------------------------------------
    9 Si    x       3.7318     -0.2250     -0.2123
            y       0.1471      3.3094     -0.0111
            z      -0.2596     -0.0352      3.2842
-------------------------------------------------------------------------------
   10 Si    x       3.7100      0.0432      0.1291
            y       0.3242      3.3999     -0.0743
            z       0.5930      0.0176      3.1120
-------------------------------------------------------------------------------
   11 Si    x       3.2870      0.3483     -0.0688
            y       0.1656      3.5546     -0.0946
            z      -0.1209      0.0386      3.1131
-------------------------------------------------------------------------------
   12 Si    x       3.1916     -0.3099     -0.1329
            y      -0.2038      3.4676      0.1527
            z      -0.1203      0.0802      2.8105
-------------------------------------------------------------------------------
   13 Si    x       3.2318     -0.3079      0.1032
            y      -0.2149      3.4850     -0.1730
            z       0.1429     -0.0619      2.7788
-------------------------------------------------------------------------------
   14 Si    x       3.1800      0.2350     -0.0800
            y       0.2669      3.4338     -0.1727
            z      -0.0935     -0.0839      2.8110
-------------------------------------------------------------------------------
   15 Si    x       3.2138      0.2236      0.0682
            y       0.2687      3.4526      0.2065
            z       0.1043      0.0782      2.7861
-------------------------------------------------------------------------------
   16 Si    x       3.5244     -0.1756      0.0808
            y      -0.2441      3.5340      0.2341
            z      -0.0295      0.0772      2.8925
-------------------------------------------------------------------------------
   17 Si    x       3.2921     -0.1669      0.0777
            y      -0.1298      3.7351     -0.0933
            z       0.1757     -0.0115      2.9039
-------------------------------------------------------------------------------
   18 Si    x       3.5045      0.3901     -0.2970
            y       0.4132      3.5029     -0.3192
            z      -0.3001     -0.1420      2.8802
-------------------------------------------------------------------------------
   19 Si    x       3.2294      0.2609      0.1292
            y       0.2984      3.4142      0.1467
            z       0.1932      0.0696      2.7282
-------------------------------------------------------------------------------
   20 Si    x       3.6157     -0.2174      0.0426
            y      -0.2209      3.4974      0.2027
            z      -0.1307      0.0670      2.8106
-------------------------------------------------------------------------------
   21 Si    x       3.3728     -0.2046      0.1544
            y      -0.1088      3.7255     -0.1266
            z       0.1934      0.0047      2.8007
-------------------------------------------------------------------------------
   22 Si    x       3.2928      0.3866     -0.1442
            y       0.0770      3.5303     -0.1117
            z      -0.1039      0.0242      3.0474
-------------------------------------------------------------------------------
   23 Si    x       3.3648     -0.4711     -0.2855
            y      -0.2159      3.6154      0.3779
            z      -0.2027      0.2131      2.9140
-------------------------------------------------------------------------------
   24 Si    x       3.1815     -0.3237      0.1593
            y      -0.1057      3.4588     -0.1683
            z       0.1163     -0.0860      2.7367
-------------------------------------------------------------------------------
   25 O2    x      -1.7807     -0.7368      0.3067
            y      -0.7470     -1.9405      0.3118
            z       0.3524      0.3132     -1.3412
-------------------------------------------------------------------------------
   26 O3    x      -2.1174     -0.9350     -0.3206
            y      -0.9890     -2.3140     -0.3448
            z      -0.4053     -0.3164     -1.5609
-------------------------------------------------------------------------------
   27 O2    x      -1.7264      0.7283      0.3083
            y       0.7605     -1.9820     -0.3468
            z       0.3734     -0.3324     -1.3489
-------------------------------------------------------------------------------
   28 O2    x      -1.7664      0.7497     -0.3786
            y       0.7676     -1.9856      0.3776
            z      -0.3778      0.3520     -1.3436
-------------------------------------------------------------------------------
   29 O2    x      -1.6360     -0.7017      0.2906
            y      -0.6683     -1.9873      0.3018
            z       0.3567      0.3131     -1.3569
-------------------------------------------------------------------------------
   30 O2    x      -1.6763     -0.7174     -0.3710
            y      -0.6811     -2.0031     -0.3824
            z      -0.3556     -0.3543     -1.3553
-------------------------------------------------------------------------------
   31 O2    x      -1.6254      0.7003      0.3175
            y       0.6288     -2.0203     -0.3387
            z       0.3329     -0.3208     -1.3650
-------------------------------------------------------------------------------
   32 O2    x      -1.6900      0.6587     -0.3106
            y       0.6560     -1.9187      0.3439
            z      -0.4037      0.3115     -1.3803
-------------------------------------------------------------------------------
   33 O2    x      -1.6471      0.0162      0.8307
            y      -0.0066     -1.0871     -0.0086
            z       1.0728     -0.0224     -2.7308
-------------------------------------------------------------------------------
   34 O2    x      -1.6811      0.0032     -0.7931
            y       0.0021     -1.0917      0.0076
            z      -0.9856     -0.0045     -2.6474
-------------------------------------------------------------------------------
   35 O2    x      -1.6572      0.0150     -0.7182
            y       0.0367     -1.1153      0.0154
            z      -0.6823      0.0089     -2.2729
-------------------------------------------------------------------------------
   36 O3    x      -2.0168     -0.0060      0.9434
            y       0.0236     -1.2824     -0.0558
            z       0.9376     -0.0464     -2.7891
-------------------------------------------------------------------------------
   37 O2    x      -1.7523      0.0143     -0.7298
            y      -0.0001     -1.1131      0.0199
            z      -0.7345      0.0250     -2.1868
-------------------------------------------------------------------------------
   38 O2    x      -1.7525      0.0070      0.6792
            y      -0.0323     -1.1094      0.0057
            z       0.6511     -0.0052     -2.1561
-------------------------------------------------------------------------------
   39 O3    x      -2.0288     -0.9288      0.4855
            y      -0.8350     -2.3749      0.4781
            z       0.5521      0.4771     -1.4946
-------------------------------------------------------------------------------
   40 O2    x      -1.6660     -0.6927     -0.3594
            y      -0.6007     -2.0468     -0.3854
            z      -0.3763     -0.3744     -1.2352
-------------------------------------------------------------------------------
   41 O2    x      -1.6544      0.6718      0.3787
            y       0.5228     -2.0482     -0.4359
            z       0.3574     -0.3940     -1.2734
-------------------------------------------------------------------------------
   42 O2    x      -1.6707      0.6505     -0.3420
            y       0.5922     -1.9396      0.3879
            z      -0.3789      0.3350     -1.2762
-------------------------------------------------------------------------------
   43 O2    x      -1.7555     -0.7138      0.3936
            y      -0.6420     -1.9264      0.3890
            z       0.3451      0.3644     -1.2808
-------------------------------------------------------------------------------
   44 O3    x      -2.1701     -0.9567     -0.3310
            y      -0.9339     -2.2713     -0.3886
            z      -0.3592     -0.3392     -1.4484
-------------------------------------------------------------------------------
   45 O3    x      -2.0946      0.9219      0.4252
            y       0.9187     -2.2819     -0.5297
            z       0.4743     -0.4925     -1.5307
-------------------------------------------------------------------------------
   46 O2    x      -1.7473      0.7119     -0.3478
            y       0.6971     -1.9278      0.3537
            z      -0.3447      0.3447     -1.2487
-------------------------------------------------------------------------------
   47 O3    x      -2.2326      0.1039     -0.8384
            y       0.1022     -1.3543      0.0542
            z      -0.4893      0.0161     -2.0254
-------------------------------------------------------------------------------
   48 O2    x      -1.7641     -0.0196      0.5550
            y      -0.0135     -1.2297     -0.0270
            z       0.2934     -0.0481     -1.7127
-------------------------------------------------------------------------------
   49 O2    x      -1.1933      0.0906      0.0321
            y       0.1594     -2.5903      0.0194
            z       0.0581      0.0256     -1.0655
-------------------------------------------------------------------------------
   50 O3    x      -1.3328     -0.0046     -0.0801
            y       0.0428     -3.1856     -0.0781
            z      -0.1069     -0.0881     -1.2018
-------------------------------------------------------------------------------
   51 O2    x      -1.1523     -0.0448      0.0676
            y      -0.0790     -2.5429      0.0230
            z       0.0789     -0.0001     -1.0773
-------------------------------------------------------------------------------
   52 O2    x      -1.1757     -0.0519     -0.0508
            y      -0.0851     -2.5927      0.0007
            z      -0.0687      0.0159     -1.0472
-------------------------------------------------------------------------------
   53 O2    x      -2.4357     -0.0830     -0.0031
            y      -0.0395     -1.2426      0.0615
            z      -0.0189      0.0305     -1.1033
-------------------------------------------------------------------------------
   54 O3    x      -3.0105     -0.1889     -0.1371
            y      -0.1154     -1.3963     -0.1087
            z      -0.1228     -0.0658     -1.2418
-------------------------------------------------------------------------------
   55 O2    x      -2.3995      0.0926      0.0522
            y       0.0367     -1.2510     -0.0734
            z       0.0182     -0.0484     -1.0643
-------------------------------------------------------------------------------
   56 O2    x      -2.3875      0.1050      0.0609
            y       0.0510     -1.2464      0.0664
            z       0.0493      0.0410     -1.0745
-------------------------------------------------------------------------------
   57 O3    x      -1.3240     -0.1531     -0.0191
            y      -0.0844     -1.4751     -0.0719
            z       0.0027     -0.0714     -2.6167
-------------------------------------------------------------------------------
   58 O3    x      -1.3204     -0.1570      0.0149
            y      -0.0894     -1.4751     -0.1100
            z      -0.0006     -0.0744     -2.6122
-------------------------------------------------------------------------------
   59 O2    x      -1.1675      0.1288     -0.0565
            y       0.0891     -1.2850     -0.0321
            z      -0.0318     -0.0087     -2.0696
-------------------------------------------------------------------------------
   60 O2    x      -1.2010      0.1377     -0.0381
            y       0.0928     -1.3092      0.0122
            z      -0.0564     -0.0072     -2.0285
-------------------------------------------------------------------------------
   61 O2    x      -1.1911     -0.1228     -0.0761
            y      -0.1238     -1.2666     -0.0006
            z      -0.0920      0.0147     -2.0758
-------------------------------------------------------------------------------
   62 O2    x      -1.2241     -0.1422     -0.0088
            y      -0.1320     -1.2948     -0.0185
            z       0.0058     -0.0312     -2.0292
-------------------------------------------------------------------------------
   63 O2    x      -1.2148      0.1246      0.0184
            y       0.1062     -1.2884      0.0282
            z       0.0140      0.0326     -2.0844
-------------------------------------------------------------------------------
   64 O2    x      -1.2178      0.1054      0.0869
            y       0.0944     -1.2791      0.0396
            z       0.0927      0.0622     -2.1171
-------------------------------------------------------------------------------
   65 O2    x      -1.2526     -0.0640      0.0899
            y      -0.1400     -2.4135     -0.0004
            z       0.1064      0.0081     -1.0411
-------------------------------------------------------------------------------
   66 O2    x      -1.2254     -0.0676     -0.0838
            y      -0.1490     -2.5001      0.0271
            z      -0.1065      0.0045     -1.0231
-------------------------------------------------------------------------------
   67 O2    x      -1.2748      0.0972      0.0604
            y       0.1776     -2.5277      0.0353
            z       0.0945      0.0198     -1.0222
-------------------------------------------------------------------------------
   68 O3    x      -1.4168     -0.0141     -0.0991
            y       0.0766     -3.1388     -0.0990
            z      -0.1241     -0.0766     -1.1348
-------------------------------------------------------------------------------
   69 O2    x      -2.3965      0.1179      0.0272
            y       0.0879     -1.2495      0.0648
            z       0.0210      0.0352     -1.0550
-------------------------------------------------------------------------------
   70 O2    x      -2.3636      0.0807      0.0244
            y       0.0503     -1.2429     -0.0690
            z       0.0253     -0.0439     -1.0572
-------------------------------------------------------------------------------
   71 O3    x      -3.0425     -0.1846     -0.1466
            y      -0.1342     -1.3874     -0.1059
            z      -0.1194     -0.0545     -1.2280
-------------------------------------------------------------------------------
   72 O2    x      -2.4849     -0.0898      0.0152
            y      -0.0441     -1.2437      0.0557
            z       0.0121      0.0176     -1.0569
-------------------------------------------------------------------------------




  Elastic Constant Matrix: (Units=GPa)

-------------------------------------------------------------------------------
  Indices      1         2         3         4         5         6    
-------------------------------------------------------------------------------
       1     52.6612   28.2218   27.6025   -1.5934    2.3365   -4.7523
       2     28.2218   77.9807   24.9692   -2.1316    3.0162   -3.2358
       3     27.6025   24.9692   32.6205   -0.8577    0.4004   -2.2437
       4     -1.5934   -2.1316   -0.8577   12.3459   -0.2237    0.1491
       5      2.3365    3.0162    0.4004   -0.2237   25.8246    0.5256
       6     -4.7523   -3.2358   -2.2437    0.1491    0.5256   24.8847
-------------------------------------------------------------------------------


  Elastic Compliance Matrix: (Units=1/GPa)

-------------------------------------------------------------------------------
  Indices      1         2         3         4         5         6    
-------------------------------------------------------------------------------
       1    0.035706 -0.004042 -0.026769  0.001960 -0.002406  0.003919
       2   -0.004042  0.017606 -0.009947  0.001792 -0.001534  0.000642
       3   -0.026769 -0.009947  0.060798 -0.000889  0.002653 -0.000975
       4    0.001960  0.001792 -0.000889  0.081505  0.000333  0.000032
       5   -0.002406 -0.001534  0.002653  0.000333  0.039107 -0.001248
       6    0.003919  0.000642 -0.000975  0.000032 -0.001248  0.040956
-------------------------------------------------------------------------------

  Mechanical properties :

-------------------------------------------------------------------------------
  Convention :                    Reuss         Voigt         Hill
-------------------------------------------------------------------------------
  Bulk  Modulus (GPa)     =      30.67954      36.09438      33.38696
  Shear Modulus (GPa)     =      13.58485      18.10897      15.84691
-------------------------------------------------------------------------------
  Velocity S-wave (km/s)  =       2.63211       3.03894       2.84281
  Velocity P-wave (km/s)  =       4.98831       5.54265       5.27277
-------------------------------------------------------------------------------
  Compressibility (1/GPa) =    0.03259502
-------------------------------------------------------------------------------
  Stress axis :                     x             y             z
-------------------------------------------------------------------------------
  Youngs Moduli (GPa)     =      28.00632      56.79813      16.44799
-------------------------------------------------------------------------------
  Poissons Ratio (x)      =                     0.22956       0.44030
  Poissons Ratio (y)      =       0.11319                     0.16360
  Poissons Ratio (z)      =       0.74971       0.56495
-------------------------------------------------------------------------------


  Piezoelectric Strain Matrix: (Units=C/m**2)

-------------------------------------------------------------------------------
  Indices      1         2         3         4         5         6    
-------------------------------------------------------------------------------
       x     0.02162  -0.00807  -0.64296   0.38095   0.00974   0.21631
       y    -0.09378   0.13964  -0.02045   0.06392   0.49536   0.20213
       z     0.13288  -0.15909   0.34652   0.09719   0.30678   0.05862
-------------------------------------------------------------------------------


  Piezoelectric Stress Matrix: (Units=10**-11 C/N)

-------------------------------------------------------------------------------
  Indices      1         2         3         4         5         6    
-------------------------------------------------------------------------------
       x     1.95871   0.69723  -4.01125   3.16587  -0.15078   0.95651
       y    -0.36398   0.25255   0.09383   0.54656   1.90981   0.74043
       z    -0.42064  -0.70436   1.97633   0.76930   1.28002   0.21017
-------------------------------------------------------------------------------


  Static dielectric constant tensor : 

-------------------------------------------------------------------------------
              x         y         z
-------------------------------------------------------------------------------
       x     4.02092   0.05907  -0.04351
       y     0.05907   4.14037  -0.02452
       z    -0.04351  -0.02452   3.18783
--------------------------------------------------------------------------------

  High frequency dielectric constant tensor : 

-------------------------------------------------------------------------------
              x         y         z
-------------------------------------------------------------------------------
       x     1.68113  -0.00057   0.00091
       y    -0.00057   1.68837   0.00041
       z     0.00091   0.00041   1.62189
-------------------------------------------------------------------------------

  Static refractive indices : 

-------------------------------------------------------------------------------
    1 =    1.78468      2 =    1.99945      3 =    2.04113
-------------------------------------------------------------------------------

  High frequency refractive indices : 

-------------------------------------------------------------------------------
    1 =    1.27353      2 =    1.29657      3 =    1.29939
-------------------------------------------------------------------------------


  Time to end of optimisation =      13.3692 seconds


  Peak dynamic memory used =       5.01 MB 


  Timing analysis for GULP :

--------------------------------------------------------------------------------
  Task / Subroutine                                          Time (Seconds)
--------------------------------------------------------------------------------
  Calculation of reciprocal space energy and derivatives          0.6902
  Calculation of real space energy and derivatives                8.8242
  Calculation of three-body energy and derivatives                0.6439
  Calculation and manipulation of Hessian matrix                  4.1008
  Calculation of matrix inversion                                 0.0273
  Global summation overhead                                       0.0001
--------------------------------------------------------------------------------
  Total CPU time                                                 13.3692
--------------------------------------------------------------------------------


  Dump file written as c00160.vasp.grs
  CIF file written as c00160.vasp.cif


  Job Finished at 11:54.45  7th October    2025                               

