********************************************************************************
*                       GENERAL UTILITY LATTICE PROGRAM                        *
*                                 Julian Gale                                  *
*                       Curtin Institute for Computation                       *
*                    School of Molecular and Life Sciences                     *
*                    Curtin University, Western Australia                      *
********************************************************************************
* Version = 6.1.2 * Last modified =   3rd November 2022                        *
********************************************************************************
*  optimise     - perform optimisation run                                     *
*  conp         - constant pressure calculation                                *
*  property     - calculate properties for final geometry                      *
********************************************************************************

  Job Started  at 11:48.05  7th October    2025                               

  Number of CPUs =     1


  Total number of configurations input =      1

********************************************************************************
*  Input for Configuration =   1 : c00125.vasp                                 *
********************************************************************************

  Formula = Ge3Si21O48                                                  

  Number of irreducible atoms/shells =     120


  Total number atoms/shells =     120

  Dimensionality = 3               :  Bulk   



  Cartesian lattice vectors (Angstroms) :

       17.182800    0.000000    0.000000
        0.000000    7.513760    0.000000
        0.000000    0.000000   10.447700

  Cell parameters (Angstroms/Degrees):

  a =      17.1828    alpha =  90.0000
  b =       7.5138    beta  =  90.0000
  c =      10.4477    gamma =  90.0000

  Initial cell volume =        1348.875752 Angs**3

  Temperature of configuration =   0.00     K 

  Pressure of configuration =         0.000 GPa 

  Fractional coordinates of asymmetric unit :

--------------------------------------------------------------------------------
   No.  Atomic       x           y          z         Charge      Occupancy
        Label      (Frac)      (Frac)     (Frac)        (e)         (Frac)  
--------------------------------------------------------------------------------
      1 Ge    c    0.556730    0.000000    0.122130     4.00000    1.000000    
      2 Ge    c    0.943270 *  0.000000 *  0.122130 *   4.00000    1.000000    
      3 Ge    c    0.660660 *  0.294090 *  0.017440 *   4.00000    1.000000    
      4 Si    c    0.052090 *  0.000000 *  0.372270 *   4.00000    1.000000    
      5 Si    c    0.447910 *  0.000000 *  0.372270 *   4.00000    1.000000    
      6 Si    c    0.947910 *  0.000000 *  0.627730 *   4.00000    1.000000    
      7 Si    c    0.552090 *  0.000000 *  0.627730 *   4.00000    1.000000    
      8 Si    c    0.443270 *  0.000000 *  0.877870 *   4.00000    1.000000    
      9 Si    c    0.056730 *  0.000000 *  0.877870 *   4.00000    1.000000    
     10 Si    c    0.160190 *  0.293910 *  0.273440 *   4.00000    1.000000    
     11 Si    c    0.339810 *  0.706090 *  0.273440 *   4.00000    1.000000    
     12 Si    c    0.839810 *  0.293910 *  0.726560 *   4.00000    1.000000    
     13 Si    c    0.660190 *  0.706090 *  0.726560 *   4.00000    1.000000    
     14 Si    c    0.839810 *  0.706090 *  0.726560 *   4.00000    1.000000    
     15 Si    c    0.660190 *  0.293910 *  0.726560 *   4.00000    1.000000    
     16 Si    c    0.160190 *  0.706090 *  0.273440 *   4.00000    1.000000    
     17 Si    c    0.339810 *  0.293910 *  0.273440 *   4.00000    1.000000    
     18 Si    c    0.839340 *  0.705910 *  0.017440 *   4.00000    1.000000    
     19 Si    c    0.339340 *  0.294090 *  0.982560 *   4.00000    1.000000    
     20 Si    c    0.160660 *  0.705910 *  0.982560 *   4.00000    1.000000    
     21 Si    c    0.339340 *  0.705910 *  0.982560 *   4.00000    1.000000    
     22 Si    c    0.160660 *  0.294090 *  0.982560 *   4.00000    1.000000    
     23 Si    c    0.660660 *  0.705910 *  0.017440 *   4.00000    1.000000    
     24 Si    c    0.839340 *  0.294090 *  0.017440 *   4.00000    1.000000    
     25 O2    c    0.106570 *  0.174340 *  0.366200 *   0.87073    1.000000    
     26 O2    c    0.393430 *  0.825660 *  0.366200 *   0.87073    1.000000    
     27 O2    c    0.893430 *  0.174340 *  0.633800 *   0.87073    1.000000    
     28 O2    c    0.606570 *  0.825660 *  0.633800 *   0.87073    1.000000    
     29 O2    c    0.893430 *  0.825660 *  0.633800 *   0.87073    1.000000    
     30 O2    c    0.606570 *  0.174340 *  0.633800 *   0.87073    1.000000    
     31 O2    c    0.106570 *  0.825660 *  0.366200 *   0.87073    1.000000    
     32 O2    c    0.393430 *  0.174340 *  0.366200 *   0.87073    1.000000    
     33 O2    c    0.000000 *  0.000000 *  0.500000 *   0.87073    1.000000    
     34 O2    c    0.500000 *  0.000000 *  0.500000 *   0.87073    1.000000    
     35 O3    c    0.994520 *  0.000000 *  0.250840 *   1.33043    1.000000    
     36 O3    c    0.505480 *  0.000000 *  0.250840 *   1.33043    1.000000    
     37 O2    c    0.005480 *  0.000000 *  0.749160 *   0.87073    1.000000    
     38 O2    c    0.494520 *  0.000000 *  0.749160 *   0.87073    1.000000    
     39 O1    c    0.610230 *  0.175520 *  0.115390 *   1.73396    1.000000    
     40 O3    c    0.889770 *  0.824480 *  0.115390 *   1.33043    1.000000    
     41 O2    c    0.389770 *  0.175520 *  0.884610 *   0.87073    1.000000    
     42 O2    c    0.110230 *  0.824480 *  0.884610 *   0.87073    1.000000    
     43 O2    c    0.389770 *  0.824480 *  0.884610 *   0.87073    1.000000    
     44 O2    c    0.110230 *  0.175520 *  0.884610 *   0.87073    1.000000    
     45 O3    c    0.610230 *  0.824480 *  0.115390 *   1.33043    1.000000    
     46 O3    c    0.889770 *  0.175520 *  0.115390 *   1.33043    1.000000    
     47 O3    c    0.500000 *  0.000000 *  0.000000 *   1.33043    1.000000    
     48 O3    c    0.000000 *  0.000000 *  0.000000 *   1.33043    1.000000    
     49 O2    c    0.151750 *  0.500000 *  0.313330 *   0.87073    1.000000    
     50 O2    c    0.348250 *  0.500000 *  0.313330 *   0.87073    1.000000    
     51 O2    c    0.848250 *  0.500000 *  0.686670 *   0.87073    1.000000    
     52 O2    c    0.651750 *  0.500000 *  0.686670 *   0.87073    1.000000    
     53 O2    c    0.250000 *  0.234950 *  0.285720 *   0.87073    1.000000    
     54 O2    c    0.250000 *  0.765050 *  0.285720 *   0.87073    1.000000    
     55 O2    c    0.750000 *  0.234950 *  0.714280 *   0.87073    1.000000    
     56 O2    c    0.750000 *  0.765050 *  0.714280 *   0.87073    1.000000    
     57 O2    c    0.131410 *  0.268650 *  0.127790 *   0.87073    1.000000    
     58 O2    c    0.368590 *  0.731350 *  0.127790 *   0.87073    1.000000    
     59 O2    c    0.868590 *  0.268650 *  0.872210 *   0.87073    1.000000    
     60 O2    c    0.631410 *  0.731350 *  0.872210 *   0.87073    1.000000    
     61 O2    c    0.868590 *  0.731350 *  0.872210 *   0.87073    1.000000    
     62 O3    c    0.631410 *  0.268650 *  0.872210 *   1.33043    1.000000    
     63 O2    c    0.131410 *  0.731350 *  0.127790 *   0.87073    1.000000    
     64 O2    c    0.368590 *  0.268650 *  0.127790 *   0.87073    1.000000    
     65 O3    c    0.653920 *  0.500000 *  0.058200 *   1.33043    1.000000    
     66 O2    c    0.846080 *  0.500000 *  0.058200 *   0.87073    1.000000    
     67 O2    c    0.346080 *  0.500000 *  0.941800 *   0.87073    1.000000    
     68 O2    c    0.153920 *  0.500000 *  0.941800 *   0.87073    1.000000    
     69 O3    c    0.750000 *  0.231060 *  0.027050 *   1.33043    1.000000    
     70 O2    c    0.750000 *  0.768940 *  0.027050 *   0.87073    1.000000    
     71 O2    c    0.250000 *  0.231060 *  0.972950 *   0.87073    1.000000    
     72 O2    c    0.250000 *  0.768940 *  0.972950 *   0.87073    1.000000    
     73 O2    s    0.106570 *  0.174340 *  0.366200 *  -2.87073    1.000000    
     74 O2    s    0.393430 *  0.825660 *  0.366200 *  -2.87073    1.000000    
     75 O2    s    0.893430 *  0.174340 *  0.633800 *  -2.87073    1.000000    
     76 O2    s    0.606570 *  0.825660 *  0.633800 *  -2.87073    1.000000    
     77 O2    s    0.893430 *  0.825660 *  0.633800 *  -2.87073    1.000000    
     78 O2    s    0.606570 *  0.174340 *  0.633800 *  -2.87073    1.000000    
     79 O2    s    0.106570 *  0.825660 *  0.366200 *  -2.87073    1.000000    
     80 O2    s    0.393430 *  0.174340 *  0.366200 *  -2.87073    1.000000    
     81 O2    s    0.000000 *  0.000000 *  0.500000 *  -2.87073    1.000000    
     82 O2    s    0.500000 *  0.000000 *  0.500000 *  -2.87073    1.000000    
     83 O3    s    0.994520 *  0.000000 *  0.250840 *  -3.33043    1.000000    
     84 O3    s    0.505480 *  0.000000 *  0.250840 *  -3.33043    1.000000    
     85 O2    s    0.005480 *  0.000000 *  0.749160 *  -2.87073    1.000000    
     86 O2    s    0.494520 *  0.000000 *  0.749160 *  -2.87073    1.000000    
     87 O1    s    0.610230 *  0.175520 *  0.115390 *  -3.73396    1.000000    
     88 O3    s    0.889770 *  0.824480 *  0.115390 *  -3.33043    1.000000    
     89 O2    s    0.389770 *  0.175520 *  0.884610 *  -2.87073    1.000000    
     90 O2    s    0.110230 *  0.824480 *  0.884610 *  -2.87073    1.000000    
     91 O2    s    0.389770 *  0.824480 *  0.884610 *  -2.87073    1.000000    
     92 O2    s    0.110230 *  0.175520 *  0.884610 *  -2.87073    1.000000    
     93 O3    s    0.610230 *  0.824480 *  0.115390 *  -3.33043    1.000000    
     94 O3    s    0.889770 *  0.175520 *  0.115390 *  -3.33043    1.000000    
     95 O3    s    0.500000 *  0.000000 *  0.000000 *  -3.33043    1.000000    
     96 O3    s    0.000000 *  0.000000 *  0.000000 *  -3.33043    1.000000    
     97 O2    s    0.151750 *  0.500000 *  0.313330 *  -2.87073    1.000000    
     98 O2    s    0.348250 *  0.500000 *  0.313330 *  -2.87073    1.000000    
     99 O2    s    0.848250 *  0.500000 *  0.686670 *  -2.87073    1.000000    
    100 O2    s    0.651750 *  0.500000 *  0.686670 *  -2.87073    1.000000    
    101 O2    s    0.250000 *  0.234950 *  0.285720 *  -2.87073    1.000000    
    102 O2    s    0.250000 *  0.765050 *  0.285720 *  -2.87073    1.000000    
    103 O2    s    0.750000 *  0.234950 *  0.714280 *  -2.87073    1.000000    
    104 O2    s    0.750000 *  0.765050 *  0.714280 *  -2.87073    1.000000    
    105 O2    s    0.131410 *  0.268650 *  0.127790 *  -2.87073    1.000000    
    106 O2    s    0.368590 *  0.731350 *  0.127790 *  -2.87073    1.000000    
    107 O2    s    0.868590 *  0.268650 *  0.872210 *  -2.87073    1.000000    
    108 O2    s    0.631410 *  0.731350 *  0.872210 *  -2.87073    1.000000    
    109 O2    s    0.868590 *  0.731350 *  0.872210 *  -2.87073    1.000000    
    110 O3    s    0.631410 *  0.268650 *  0.872210 *  -3.33043    1.000000    
    111 O2    s    0.131410 *  0.731350 *  0.127790 *  -2.87073    1.000000    
    112 O2    s    0.368590 *  0.268650 *  0.127790 *  -2.87073    1.000000    
    113 O3    s    0.653920 *  0.500000 *  0.058200 *  -3.33043    1.000000    
    114 O2    s    0.846080 *  0.500000 *  0.058200 *  -2.87073    1.000000    
    115 O2    s    0.346080 *  0.500000 *  0.941800 *  -2.87073    1.000000    
    116 O2    s    0.153920 *  0.500000 *  0.941800 *  -2.87073    1.000000    
    117 O3    s    0.750000 *  0.231060 *  0.027050 *  -3.33043    1.000000    
    118 O2    s    0.750000 *  0.768940 *  0.027050 *  -2.87073    1.000000    
    119 O2    s    0.250000 *  0.231060 *  0.972950 *  -2.87073    1.000000    
    120 O2    s    0.250000 *  0.768940 *  0.972950 *  -2.87073    1.000000    
--------------------------------------------------------------------------------



********************************************************************************
*  General input information                                                   *
********************************************************************************

  Species output for all configurations : 

--------------------------------------------------------------------------------
  Species    Type    Atomic    Atomic    Charge       Radii (Angs)     Library
                     Number     Mass       (e)     Cova   Ionic  VDW   Symbol
--------------------------------------------------------------------------------
    Ge       Core       32      72.61   4.000000   1.170  0.000  1.750 Ge       
    Si       Core       14      28.09   4.000000   1.200  0.000  2.100 Si       
    O1       Core        8      16.00   1.733957   0.730  0.000  1.360 O1       
    O2       Core        8      16.00   0.870733   0.730  0.000  1.360 O2       
    O3       Core        8      16.00   1.330431   0.730  0.000  1.360 O3       
    O1       Shell       8       0.00  -3.733957   0.730  0.000  0.000 O1       
    O2       Shell       8       0.00  -2.870733   0.730  0.000  0.000 O2       
    O3       Shell       8       0.00  -3.330431   0.730  0.000  0.000 O3       
--------------------------------------------------------------------------------


  Lattice summation method               =    Ewald          (3-D)
                                         =    Parry          (2-D)
                                         =    Saunders et al (1-D)
  Accuracy factor for lattice sums       =   12.000


  Analytic derivatives to be used

  Time limit = Infinity

  Maximum range for interatomic potentials =    100000.000000 Angstroms

  General interatomic potentials :

--------------------------------------------------------------------------------
Atom  Types   Potential      Parameter       Value         Units   Cutoffs(Ang)
  1     2                                                            Min /  Max 
--------------------------------------------------------------------------------
Si   c O1   s Buckingham    Buckingham A     1315.2478    eV        0.000 16.000
                            Buckingham rho  0.31775900    Ang       
                            Buckingham C     10.141118    eV*Ang^6  
--------------------------------------------------------------------------------
Si   c O2   s Buckingham    Buckingham A     1315.2478    eV        0.000 16.000
                            Buckingham rho  0.31775900    Ang       
                            Buckingham C     10.141118    eV*Ang^6  
--------------------------------------------------------------------------------
Si   c O3   s Buckingham    Buckingham A     1315.2478    eV        0.000 16.000
                            Buckingham rho  0.31775900    Ang       
                            Buckingham C     10.141118    eV*Ang^6  
--------------------------------------------------------------------------------
Ge   c O1   s Buckingham    Buckingham A     1497.3996    eV        0.000 16.000
                            Buckingham rho  0.32564600    Ang       
                            Buckingham C     16.808599    eV*Ang^6  
--------------------------------------------------------------------------------
Ge   c O2   s Buckingham    Buckingham A     1497.3996    eV        0.000 16.000
                            Buckingham rho  0.32564600    Ang       
                            Buckingham C     16.808599    eV*Ang^6  
--------------------------------------------------------------------------------
Ge   c O3   s Buckingham    Buckingham A     1497.3996    eV        0.000 16.000
                            Buckingham rho  0.32564600    Ang       
                            Buckingham C     16.808599    eV*Ang^6  
--------------------------------------------------------------------------------
O1   s O1   s Buckingham    Buckingham A     22764.000    eV        0.000 16.000
                            Buckingham rho  0.14900000    Ang       
                            Buckingham C     10.937044    eV*Ang^6  
--------------------------------------------------------------------------------
O1   s O2   s Buckingham    Buckingham A     22764.000    eV        0.000 16.000
                            Buckingham rho  0.14900000    Ang       
                            Buckingham C     10.937044    eV*Ang^6  
--------------------------------------------------------------------------------
O1   s O3   s Buckingham    Buckingham A     22764.000    eV        0.000 16.000
                            Buckingham rho  0.14900000    Ang       
                            Buckingham C     10.937044    eV*Ang^6  
--------------------------------------------------------------------------------
O2   s O2   s Buckingham    Buckingham A     22764.000    eV        0.000 16.000
                            Buckingham rho  0.14900000    Ang       
                            Buckingham C     10.937044    eV*Ang^6  
--------------------------------------------------------------------------------
O2   s O3   s Buckingham    Buckingham A     22764.000    eV        0.000 16.000
                            Buckingham rho  0.14900000    Ang       
                            Buckingham C     10.937044    eV*Ang^6  
--------------------------------------------------------------------------------
O3   s O3   s Buckingham    Buckingham A     22764.000    eV        0.000 16.000
                            Buckingham rho  0.14900000    Ang       
                            Buckingham C     10.937044    eV*Ang^6  
--------------------------------------------------------------------------------
O1   c O1   s Spring (c-s)  Spring k 2       180.31577    eV*Ang^-2 0.000  0.800
                            Spring k 4       0.0000000    eV*Ang^-4 
--------------------------------------------------------------------------------
O2   c O2   s Spring (c-s)  Spring k 2       75.969800    eV*Ang^-2 0.000  0.800
                            Spring k 4       0.0000000    eV*Ang^-4 
--------------------------------------------------------------------------------
O3   c O3   s Spring (c-s)  Spring k 2       128.14270    eV*Ang^-2 0.000  0.800
                            Spring k 4       0.0000000    eV*Ang^-4 
--------------------------------------------------------------------------------

  General Three-body potentials :

--------------------------------------------------------------------------------
  Atoms       Potential      Parameter       Value         Units   Cutoffs(Ang)
  1 / 2 / 3                                                          Min /  Max 
--------------------------------------------------------------------------------
Si    core    Harmonic      Three-body cnst  1.2614000    eV*rad^-2 0.000  1.900
O1    shel                  Three-body angl  109.47000    degrees   0.000  1.900
O1    shel                  Three-body k4    0.0000000    eV*rad^-4 0.000  3.500
                            Three-body k3    0.0000000    eV*rad^-3 
--------------------------------------------------------------------------------
Si    core    Harmonic      Three-body cnst  1.2614000    eV*rad^-2 0.000  1.900
O1    shel                  Three-body angl  109.47000    degrees   0.000  1.900
õ(1   shel                  Three-body k4    0.0000000    eV*rad^-4 0.000  3.500
                            Three-body k3    0.0000000    eV*rad^-3 
--------------------------------------------------------------------------------
Si    core    Harmonic      Three-body cnst  1.2614000    eV*rad^-2 0.000  1.900
õ(1   shel                  Three-body angl  109.47000    degrees   0.000  1.900
õ(1   shel                  Three-body k4    0.0000000    eV*rad^-4 0.000  3.500
                            Three-body k3    0.0000000    eV*rad^-3 
--------------------------------------------------------------------------------
Si    core    Harmonic      Three-body cnst  1.2614000    eV*rad^-2 0.000  1.900
O1    shel                  Three-body angl  109.47000    degrees   0.000  1.900
O2    shel                  Three-body k4    0.0000000    eV*rad^-4 0.000  3.500
                            Three-body k3    0.0000000    eV*rad^-3 
--------------------------------------------------------------------------------
Si    core    Harmonic      Three-body cnst  1.2614000    eV*rad^-2 0.000  1.900
O1    shel                  Three-body angl  109.47000    degrees   0.000  1.900
õ(2   shel                  Three-body k4    0.0000000    eV*rad^-4 0.000  3.500
                            Three-body k3    0.0000000    eV*rad^-3 
--------------------------------------------------------------------------------
Si    core    Harmonic      Three-body cnst  1.2614000    eV*rad^-2 0.000  1.900
O2    shel                  Three-body angl  109.47000    degrees   0.000  1.900
õ(1   shel                  Three-body k4    0.0000000    eV*rad^-4 0.000  3.500
                            Three-body k3    0.0000000    eV*rad^-3 
--------------------------------------------------------------------------------
Si    core    Harmonic      Three-body cnst  1.2614000    eV*rad^-2 0.000  1.900
õ(1   shel                  Three-body angl  109.47000    degrees   0.000  1.900
õ(2   shel                  Three-body k4    0.0000000    eV*rad^-4 0.000  3.500
                            Three-body k3    0.0000000    eV*rad^-3 
--------------------------------------------------------------------------------
Si    core    Harmonic      Three-body cnst  1.2614000    eV*rad^-2 0.000  1.900
O2    shel                  Three-body angl  109.47000    degrees   0.000  1.900
O2    shel                  Three-body k4    0.0000000    eV*rad^-4 0.000  3.500
                            Three-body k3    0.0000000    eV*rad^-3 
--------------------------------------------------------------------------------
Si    core    Harmonic      Three-body cnst  1.2614000    eV*rad^-2 0.000  1.900
O2    shel                  Three-body angl  109.47000    degrees   0.000  1.900
õ(2   shel                  Three-body k4    0.0000000    eV*rad^-4 0.000  3.500
                            Three-body k3    0.0000000    eV*rad^-3 
--------------------------------------------------------------------------------
Si    core    Harmonic      Three-body cnst  1.2614000    eV*rad^-2 0.000  1.900
õ(2   shel                  Three-body angl  109.47000    degrees   0.000  1.900
õ(2   shel                  Three-body k4    0.0000000    eV*rad^-4 0.000  3.500
                            Three-body k3    0.0000000    eV*rad^-3 
--------------------------------------------------------------------------------

********************************************************************************
*  Output for configuration   1 : c00125.vasp                                  *
********************************************************************************


  Components of energy : 

--------------------------------------------------------------------------------
  Interatomic potentials     =         760.40693262 eV    
  Three-body potentials      =           0.01196551 eV    
  Monopole - monopole (real) =       -2676.00317478 eV    
  Monopole - monopole (recip)=       -1115.35404472 eV    
  Monopole - monopole (total)=       -3791.35721950 eV    
--------------------------------------------------------------------------------
  Total lattice energy       =       -3030.93832138 eV    
--------------------------------------------------------------------------------
  Total lattice energy       =         -292439.2159 kJ/(mole unit cells)
--------------------------------------------------------------------------------


  Number of variables =      363

  Maximum number of calculations  =          1000
  Maximum Hessian update interval =            10
  Maximum step size               =   0.100000000
  Maximum parameter tolerance     =   0.000010000
  Maximum function  tolerance     =   0.000010000
  Maximum gradient  tolerance     =   0.001000000
  Maximum gradient  component     =   0.010000000

  Symmetry not applied to optimisation

  Cell parameters to be optimised using strains

  Newton-Raphson optimiser to be used

  BFGS hessian update to be used

  Lower half triangular hessian to be used

  Minimiser to switch to RFO
  When gradient norm is less than     0.050000

  Dumpfile to be written after every cycle

  Start of bulk optimisation :

  Cycle:      0 Energy:     -3030.938321  Gnorm:      4.351487  CPU:    0.106
  ** Hessian calculated **
  Cycle:      1 Energy:     -3061.667944  Gnorm:      0.961827  CPU:    0.225
  ** Hessian calculated **
  Cycle:      2 Energy:     -3065.604612  Gnorm:      0.455577  CPU:    0.443
  ** Hessian calculated **
  Cycle:      3 Energy:     -3066.168579  Gnorm:      0.240687  CPU:    0.624
  Cycle:      4 Energy:     -3066.339876  Gnorm:      0.150319  CPU:    0.719
  Cycle:      5 Energy:     -3066.473879  Gnorm:      0.117803  CPU:    0.831
  Cycle:      6 Energy:     -3066.604620  Gnorm:      0.094437  CPU:    0.943
  Cycle:      7 Energy:     -3066.714674  Gnorm:      0.085690  CPU:    1.054
  Cycle:      8 Energy:     -3066.767505  Gnorm:      0.068424  CPU:    1.145
  Cycle:      9 Energy:     -3066.802237  Gnorm:      0.063518  CPU:    1.236
  Cycle:     10 Energy:     -3066.826361  Gnorm:      0.054444  CPU:    1.343
  Cycle:     11 Energy:     -3066.845377  Gnorm:      0.054562  CPU:    1.452
  Cycle:     12 Energy:     -3066.869322  Gnorm:      0.057075  CPU:    1.561
  ** Hessian calculated **
  Cycle:     13 Energy:     -3066.877635  Gnorm:      0.051109  CPU:    1.747
  Cycle:     14 Energy:     -3066.888816  Gnorm:      0.047131  CPU:    1.850
  ** Hessian has required structure
  Cycle:     15 Energy:     -3066.905511  Gnorm:      0.065129  CPU:    2.008
  ** Hessian has required structure
  Cycle:     16 Energy:     -3066.919793  Gnorm:      0.070806  CPU:    2.151
  ** Hessian has required structure
  Cycle:     17 Energy:     -3066.929070  Gnorm:      0.076642  CPU:    2.276
  ** Hessian has required structure
  Cycle:     18 Energy:     -3066.933789  Gnorm:      0.082679  CPU:    2.402
  ** Hessian has required structure
  Cycle:     19 Energy:     -3066.942773  Gnorm:      0.113398  CPU:    2.528
  ** Hessian has required structure
  Cycle:     20 Energy:     -3066.957976  Gnorm:      0.079441  CPU:    2.653
  ** Hessian has required structure
  Cycle:     21 Energy:     -3066.963794  Gnorm:      0.088743  CPU:    2.782
  ** Hessian has required structure
  Cycle:     22 Energy:     -3066.972804  Gnorm:      0.069522  CPU:    2.910
  ** Hessian has wrong structure
  ** Imaginary eigenvectors =   6
  Cycle:     23 Energy:     -3067.018492  Gnorm:      0.071592  CPU:    3.328
  ** Hessian has wrong structure
  ** Imaginary eigenvectors =   5
  Cycle:     24 Energy:     -3067.107070  Gnorm:      0.088901  CPU:    3.697
  ** Hessian has wrong structure
  ** Imaginary eigenvectors =   3
  ** Hessian has wrong structure
  ** Imaginary eigenvectors =   2
  Cycle:     25 Energy:     -3067.149613  Gnorm:      0.111312  CPU:    4.153
  ** Hessian has wrong structure
  ** Imaginary eigenvectors =   1
  ** Hessian has required structure
  Cycle:     26 Energy:     -3067.561070  Gnorm:      0.072492  CPU:    4.625
  ** Hessian has required structure
  Cycle:     27 Energy:     -3067.725172  Gnorm:      0.049911  CPU:    4.788
  ** Hessian has required structure
  Cycle:     28 Energy:     -3067.825336  Gnorm:      0.042916  CPU:    4.951
  ** Hessian has required structure
  Cycle:     29 Energy:     -3067.879276  Gnorm:      0.026436  CPU:    5.099
  ** Hessian has required structure
  Cycle:     30 Energy:     -3067.924624  Gnorm:      0.038794  CPU:    5.256
  ** Hessian has required structure
  Cycle:     31 Energy:     -3067.941419  Gnorm:      0.020462  CPU:    5.415
  ** Hessian has required structure
  Cycle:     32 Energy:     -3067.953833  Gnorm:      0.025012  CPU:    5.572
  ** Hessian has required structure
  Cycle:     33 Energy:     -3067.961594  Gnorm:      0.020517  CPU:    5.713
  ** Hessian has required structure
  Cycle:     34 Energy:     -3067.967932  Gnorm:      0.015334  CPU:    5.871
  ** Hessian has required structure
  Cycle:     35 Energy:     -3067.970174  Gnorm:      0.010043  CPU:    6.011
  ** Hessian has required structure
  Cycle:     36 Energy:     -3067.973701  Gnorm:      0.007351  CPU:    6.270
  ** Hessian has required structure
  Cycle:     37 Energy:     -3067.975928  Gnorm:      0.004879  CPU:    6.428
  ** Hessian has required structure
  Cycle:     38 Energy:     -3067.976867  Gnorm:      0.002640  CPU:    6.602
  ** Hessian has required structure
  Cycle:     39 Energy:     -3067.977161  Gnorm:      0.001548  CPU:    6.775
  ** Hessian has required structure
  Cycle:     40 Energy:     -3067.977277  Gnorm:      0.000923  CPU:    6.945
  ** Hessian has required structure
  Cycle:     41 Energy:     -3067.977327  Gnorm:      0.000532  CPU:    7.115
  ** Hessian has required structure
  Cycle:     42 Energy:     -3067.977343  Gnorm:      0.000383  CPU:    7.266
  ** Hessian has required structure
  Cycle:     43 Energy:     -3067.977352  Gnorm:      0.000205  CPU:    7.411
  ** Hessian has required structure
  Cycle:     44 Energy:     -3067.977355  Gnorm:      0.000162  CPU:    7.556
  ** Hessian has required structure
  Cycle:     45 Energy:     -3067.977355  Gnorm:      0.000141  CPU:    7.685
  ** Hessian has required structure
  Cycle:     46 Energy:     -3067.977355  Gnorm:      0.000141  CPU:    7.938
  ** Hessian calculated **


  **** Optimisation achieved ****


  Final energy =   -3067.97735504 eV      
  Final Gnorm  =       0.00014132

  Components of energy : 

--------------------------------------------------------------------------------
  Interatomic potentials     =         817.42551028 eV    
  Three-body potentials      =           0.28108326 eV    
  Monopole - monopole (real) =       -2204.53569900 eV    
  Monopole - monopole (recip)=       -1681.14824958 eV    
  Monopole - monopole (total)=       -3885.68394858 eV    
--------------------------------------------------------------------------------
  Total lattice energy       =       -3067.97735504 eV    
--------------------------------------------------------------------------------
  Total lattice energy       =         -296012.9164 kJ/(mole unit cells)
--------------------------------------------------------------------------------

  Final fractional coordinates of atoms :

--------------------------------------------------------------------------------
   No.  Atomic        x           y          z          Radius
        Label       (Frac)      (Frac)     (Frac)       (Angs) 
--------------------------------------------------------------------------------
     1  Ge    c     0.556730    0.000000    0.122130    0.000000
     2  Ge    c     0.945768    0.969449    0.118163    0.000000
     3  Ge    c     0.642434    0.332023    0.020681    0.000000
     4  Si    c     0.050610    0.969655    0.372397    0.000000
     5  Si    c     0.454293    0.974365    0.374193    0.000000
     6  Si    c     0.956112    0.958558    0.632946    0.000000
     7  Si    c     0.551299    0.984262    0.631077    0.000000
     8  Si    c     0.448208    0.967508    0.881542    0.000000
     9  Si    c     0.060167    0.972867    0.880527    0.000000
    10  Si    c     0.168676    0.250594    0.276205    0.000000
    11  Si    c     0.336894    0.692356    0.277400    0.000000
    12  Si    c     0.833156    0.244752    0.723075    0.000000
    13  Si    c     0.672888    0.702325    0.714272    0.000000
    14  Si    c     0.854846    0.650851    0.716715    0.000000
    15  Si    c     0.651302    0.294886    0.719671    0.000000
    16  Si    c     0.153762    0.658851    0.278836    0.000000
    17  Si    c     0.352136    0.283664    0.276775    0.000000
    18  Si    c     0.857967    0.645705    0.011466    0.000000
    19  Si    c     0.355510    0.288516    0.982046    0.000000
    20  Si    c     0.151917    0.653158    0.983343    0.000000
    21  Si    c     0.336009    0.690375    0.981106    0.000000
    22  Si    c     0.171222    0.251633    0.979931    0.000000
    23  Si    c     0.675760    0.730277    0.011243    0.000000
    24  Si    c     0.827567    0.252433    0.020117    0.000000
    25  O2    c     0.118324    0.119327    0.362690    0.000000
    26  O2    c     0.387111    0.823687    0.364903    0.000000
    27  O2    c     0.885572    0.104626    0.642541    0.000000
    28  O2    c     0.621519    0.835868    0.627868    0.000000
    29  O2    c     0.917016    0.763443    0.633586    0.000000
    30  O2    c     0.590671    0.178431    0.635314    0.000000
    31  O2    c     0.092859    0.776170    0.362603    0.000000
    32  O2    c     0.412607    0.167656    0.359822    0.000000
    33  O2    c     0.005222    0.986026    0.505166    0.000000
    34  O2    c     0.497377    0.965492    0.508045    0.000000
    35  O3    c     0.986519    0.999666    0.264338    0.000000
    36  O3    c     0.520049    0.940666    0.267057    0.000000
    37  O2    c     0.018353    0.983921    0.745828    0.000000
    38  O2    c     0.493004    0.949609    0.748834    0.000000
    39  O1    c     0.574677    0.221003    0.110735    0.000000
    40  O3    c     0.918010    0.751664    0.098134    0.000000
    41  O2    c     0.414765    0.169603    0.896476    0.000000
    42  O2    c     0.092681    0.772010    0.900208    0.000000
    43  O2    c     0.375562    0.828819    0.886412    0.000000
    44  O2    c     0.133251    0.110573    0.884689    0.000000
    45  O3    c     0.648017    0.893873    0.095449    0.000000
    46  O3    c     0.863206    0.105852    0.110756    0.000000
    47  O3    c     0.502053    0.914488    0.998682    0.000000
    48  O3    c     0.004366    0.037256    0.994321    0.000000
    49  O2    c     0.140456    0.451947    0.305872    0.000000
    50  O2    c     0.365259    0.491024    0.304269    0.000000
    51  O2    c     0.867999    0.440367    0.697205    0.000000
    52  O2    c     0.638648    0.504790    0.695874    0.000000
    53  O2    c     0.261872    0.230216    0.308336    0.000000
    54  O2    c     0.243812    0.712216    0.311598    0.000000
    55  O2    c     0.741416    0.239709    0.679490    0.000000
    56  O2    c     0.765555    0.704017    0.673680    0.000000
    57  O2    c     0.155702    0.201873    0.127689    0.000000
    58  O2    c     0.349805    0.741866    0.129309    0.000000
    59  O2    c     0.834376    0.192772    0.871452    0.000000
    60  O2    c     0.666904    0.767110    0.860104    0.000000
    61  O2    c     0.870866    0.701822    0.863862    0.000000
    62  O3    c     0.632278    0.255290    0.865349    0.000000
    63  O2    c     0.134849    0.700748    0.131357    0.000000
    64  O2    c     0.373147    0.239683    0.129232    0.000000
    65  O3    c     0.624891    0.555271    0.039500    0.000000
    66  O2    c     0.874960    0.437875    0.032010    0.000000
    67  O2    c     0.373034    0.494189    0.955943    0.000000
    68  O2    c     0.134860    0.447408    0.954639    0.000000
    69  O3    c     0.738100    0.282379    0.064738    0.000000
    70  O2    c     0.766848    0.688939    0.046999    0.000000
    71  O2    c     0.264712    0.248050    0.950628    0.000000
    72  O2    c     0.242875    0.693885    0.950446    0.000000
    73  O2    s     0.116875    0.118301    0.353946    0.000000
    74  O2    s     0.388586    0.824969    0.356057    0.000000
    75  O2    s     0.887327    0.104460    0.650503    0.000000
    76  O2    s     0.619714    0.837004    0.637597    0.000000
    77  O2    s     0.914451    0.771729    0.642356    0.000000
    78  O2    s     0.592892    0.170209    0.643662    0.000000
    79  O2    s     0.095202    0.783477    0.354297    0.000000
    80  O2    s     0.410235    0.160285    0.352039    0.000000
    81  O2    s     0.004780    0.980871    0.504613    0.000000
    82  O2    s     0.498593    0.968753    0.506615    0.000000
    83  O3    s     0.989707    0.993743    0.262711    0.000000
    84  O3    s     0.516437    0.949339    0.265476    0.000000
    85  O2    s     0.016216    0.979738    0.748984    0.000000
    86  O2    s     0.494305    0.955621    0.751293    0.000000
    87  O1    s     0.578442    0.212308    0.104753    0.000000
    88  O3    s     0.914023    0.758286    0.090737    0.000000
    89  O2    s     0.411650    0.162096    0.904491    0.000000
    90  O2    s     0.095872    0.779739    0.907475    0.000000
    91  O2    s     0.378684    0.827796    0.896529    0.000000
    92  O2    s     0.129924    0.112025    0.894947    0.000000
    93  O3    s     0.643963    0.884826    0.088560    0.000000
    94  O3    s     0.866273    0.110078    0.101751    0.000000
    95  O3    s     0.500919    0.927007    0.996582    0.000000
    96  O3    s     0.005256    0.024872    0.992911    0.000000
    97  O2    s     0.144952    0.452993    0.299740    0.000000
    98  O2    s     0.360773    0.489883    0.298389    0.000000
    99  O2    s     0.862929    0.442520    0.701995    0.000000
   100  O2    s     0.643629    0.503513    0.700298    0.000000
   101  O2    s     0.261600    0.238215    0.301475    0.000000
   102  O2    s     0.244189    0.704292    0.304381    0.000000
   103  O2    s     0.741800    0.246034    0.688268    0.000000
   104  O2    s     0.765085    0.698202    0.682464    0.000000
   105  O2    s     0.158664    0.212061    0.127950    0.000000
   106  O2    s     0.347025    0.731418    0.129465    0.000000
   107  O2    s     0.833565    0.204342    0.870777    0.000000
   108  O2    s     0.668480    0.756425    0.859932    0.000000
   109  O2    s     0.867907    0.690966    0.863445    0.000000
   110  O3    s     0.634949    0.265163    0.862764    0.000000
   111  O2    s     0.138567    0.691539    0.131313    0.000000
   112  O2    s     0.369236    0.249065    0.129343    0.000000
   113  O3    s     0.631092    0.553517    0.035356    0.000000
   114  O2    s     0.868350    0.441329    0.028594    0.000000
   115  O2    s     0.367262    0.492538    0.961428    0.000000
   116  O2    s     0.140551    0.448975    0.960432    0.000000
   117  O3    s     0.739320    0.283469    0.056434    0.000000
   118  O2    s     0.766944    0.688640    0.039214    0.000000
   119  O2    s     0.264538    0.253106    0.957476    0.000000
   120  O2    s     0.243101    0.688876    0.957552    0.000000
--------------------------------------------------------------------------------

  Final Cartesian lattice vectors (Angstroms) :

       16.832052    0.112905    0.047242
        0.048854    7.545750   -0.029764
        0.027933   -0.040868   10.497740


  Final cell parameters and derivatives :

--------------------------------------------------------------------------------
       a           16.832497 Angstrom     dE/de1(xx)     0.008815 eV/strain
       b            7.545967 Angstrom     dE/de2(yy)     0.004937 eV/strain
       c           10.497857 Angstrom     dE/de3(zz)     0.013539 eV/strain
       alpha       90.448055 Degrees      dE/de4(yz)     0.000345 eV/strain
       beta        89.688238 Degrees      dE/de5(xz)     0.000395 eV/strain
       gamma       89.245374 Degrees      dE/de6(xy)     0.000437 eV/strain
--------------------------------------------------------------------------------

  Primitive cell volume =          1333.234334 Angs**3

  Density of cell =      1.962585 g/cm**3

  Non-primitive cell volume =          1333.234334 Angs**3


  Final internal derivatives :

--------------------------------------------------------------------------------
   No.  Atomic          a             b             c           Radius
        Label          (eV)          (eV)          (eV)        (eV/Angs)
--------------------------------------------------------------------------------
      1 Ge    c       0.000000      0.000000      0.000000      0.000000
      2 Ge    c      -0.007237     -0.001410     -0.002810      0.000000
      3 Ge    c       0.000763     -0.000017     -0.000195      0.000000
      4 Si    c       0.021732     -0.002082     -0.003096      0.000000
      5 Si    c       0.001974      0.000019      0.000767      0.000000
      6 Si    c      -0.014365     -0.002403      0.000391      0.000000
      7 Si    c      -0.002716     -0.000263      0.000436      0.000000
      8 Si    c       0.001850      0.000044      0.000769      0.000000
      9 Si    c       0.011549     -0.003016     -0.001989      0.000000
     10 Si    c      -0.000718      0.000989      0.001002      0.000000
     11 Si    c      -0.000455      0.000110     -0.000685      0.000000
     12 Si    c      -0.000278      0.000632     -0.000722      0.000000
     13 Si    c       0.000087     -0.000050      0.000124      0.000000
     14 Si    c       0.001597      0.000078     -0.000310      0.000000
     15 Si    c       0.000486      0.000008      0.000570      0.000000
     16 Si    c      -0.002003      0.000185      0.000306      0.000000
     17 Si    c      -0.000038     -0.000081     -0.000019      0.000000
     18 Si    c       0.000642     -0.000652     -0.001195      0.000000
     19 Si    c       0.000138      0.000306     -0.000350      0.000000
     20 Si    c       0.000124     -0.000331      0.000119      0.000000
     21 Si    c      -0.001283     -0.000088      0.000636      0.000000
     22 Si    c      -0.001747     -0.000301     -0.000907      0.000000
     23 Si    c      -0.000744     -0.000129     -0.000364      0.000000
     24 Si    c       0.000031      0.000420      0.000208      0.000000
     25 O2    c       0.001722      0.001333      0.001396      0.000000
     26 O2    c       0.000122      0.000069     -0.000013      0.000000
     27 O2    c      -0.002712      0.001520     -0.000963      0.000000
     28 O2    c       0.000142     -0.000000      0.000174      0.000000
     29 O2    c       0.000447     -0.000185      0.000155      0.000000
     30 O2    c       0.000332      0.000226     -0.000091      0.000000
     31 O2    c      -0.000718     -0.000278     -0.000189      0.000000
     32 O2    c      -0.000039     -0.000046      0.000045      0.000000
     33 O2    c       0.000126      0.002504      0.005301      0.000000
     34 O2    c      -0.001550      0.000196     -0.001045      0.000000
     35 O3    c      -0.022914      0.002985      0.002966      0.000000
     36 O3    c      -0.002246      0.000095      0.001582      0.000000
     37 O2    c       0.006246      0.002193     -0.000566      0.000000
     38 O2    c       0.004908      0.000378     -0.002225      0.000000
     39 O1    c       0.002098      0.002106      0.000813      0.000000
     40 O3    c      -0.001314     -0.004998      0.001422      0.000000
     41 O2    c      -0.000587      0.000774     -0.000297      0.000000
     42 O2    c       0.000316     -0.002282      0.000236      0.000000
     43 O2    c      -0.000924     -0.000260     -0.000284      0.000000
     44 O2    c       0.002034      0.001651      0.000110      0.000000
     45 O3    c      -0.000337      0.000749     -0.000363      0.000000
     46 O3    c      -0.004063      0.001217      0.000543      0.000000
     47 O3    c      -0.005308     -0.000691     -0.004125      0.000000
     48 O3    c       0.001376      0.009700      0.004617      0.000000
     49 O2    c      -0.000239      0.000073      0.000050      0.000000
     50 O2    c      -0.000033      0.000010     -0.000002      0.000000
     51 O2    c       0.000015     -0.000295      0.000108      0.000000
     52 O2    c       0.000439      0.000295      0.000423      0.000000
     53 O2    c       0.002622     -0.000227      0.000334      0.000000
     54 O2    c       0.000466     -0.000122     -0.000058      0.000000
     55 O2    c       0.000476      0.000142      0.000207      0.000000
     56 O2    c      -0.000803     -0.000009      0.000554      0.000000
     57 O2    c       0.000359      0.000155     -0.001385      0.000000
     58 O2    c      -0.000932     -0.000099      0.000567      0.000000
     59 O2    c      -0.000539      0.000077      0.000871      0.000000
     60 O2    c       0.000095      0.000050      0.000785      0.000000
     61 O2    c       0.000349     -0.000184     -0.000138      0.000000
     62 O3    c       0.000795      0.000120     -0.000569      0.000000
     63 O2    c       0.000424     -0.000258     -0.000584      0.000000
     64 O2    c       0.000562     -0.000262      0.001114      0.000000
     65 O3    c       0.000263      0.000169     -0.000221      0.000000
     66 O2    c      -0.000178     -0.000653      0.000183      0.000000
     67 O2    c      -0.000205      0.000055      0.000163      0.000000
     68 O2    c      -0.000358      0.000606      0.000086      0.000000
     69 O3    c       0.003995     -0.000102     -0.000408      0.000000
     70 O2    c      -0.002314      0.000332     -0.000311      0.000000
     71 O2    c      -0.003011      0.000038     -0.000292      0.000000
     72 O2    c      -0.000715     -0.000393      0.000051      0.000000
     73 O2    s       0.007929      0.001249     -0.001102      0.000000
     74 O2    s       0.001006      0.000070     -0.000544      0.000000
     75 O2    s      -0.007148      0.000501      0.000399      0.000000
     76 O2    s      -0.001119     -0.000258     -0.000169      0.000000
     77 O2    s      -0.004501     -0.001668     -0.000831      0.000000
     78 O2    s      -0.000587     -0.000065      0.000151      0.000000
     79 O2    s       0.006371     -0.002202      0.000567      0.000000
     80 O2    s       0.000712     -0.000201     -0.000144      0.000000
     81 O2    s       0.001884     -0.001242     -0.000511      0.000000
     82 O2    s       0.000212     -0.000123      0.000543      0.000000
     83 O3    s       0.002711     -0.000886      0.000099      0.000000
     84 O3    s      -0.000148     -0.000054      0.000041      0.000000
     85 O2    s      -0.001141     -0.000269     -0.002080      0.000000
     86 O2    s      -0.000990     -0.000469      0.000512      0.000000
     87 O1    s      -0.002670     -0.000312     -0.000679      0.000000
     88 O3    s      -0.004158     -0.000134     -0.000031      0.000000
     89 O2    s      -0.000059      0.000263     -0.000303      0.000000
     90 O2    s       0.006510     -0.002166      0.000190      0.000000
     91 O2    s       0.000844     -0.000415     -0.000328      0.000000
     92 O2    s       0.007896      0.000655     -0.000867      0.000000
     93 O3    s       0.000992     -0.001071      0.000555      0.000000
     94 O3    s      -0.005692      0.000942      0.000071      0.000000
     95 O3    s       0.002595      0.000052      0.002163      0.000000
     96 O3    s       0.000221     -0.001104     -0.000675      0.000000
     97 O2    s       0.000843      0.000106     -0.000241      0.000000
     98 O2    s      -0.000364      0.000138     -0.000417      0.000000
     99 O2    s      -0.001631     -0.000040      0.000710      0.000000
    100 O2    s       0.000795     -0.000088      0.000265      0.000000
    101 O2    s       0.000688      0.000188      0.000068      0.000000
    102 O2    s       0.001131     -0.000182     -0.000069      0.000000
    103 O2    s      -0.000338      0.000456      0.000289      0.000000
    104 O2    s      -0.000740     -0.000443      0.000213      0.000000
    105 O2    s      -0.002897     -0.001022      0.000576      0.000000
    106 O2    s      -0.000638     -0.000243      0.000034      0.000000
    107 O2    s       0.001247      0.000178     -0.000563      0.000000
    108 O2    s       0.001013     -0.000860     -0.000332      0.000000
    109 O2    s       0.000398      0.000084     -0.000604      0.000000
    110 O3    s      -0.000083      0.000467      0.000058      0.000000
    111 O2    s       0.000771      0.000456     -0.000595      0.000000
    112 O2    s       0.000308      0.000482      0.000235      0.000000
    113 O3    s       0.001319      0.000252     -0.000012      0.000000
    114 O2    s      -0.001524     -0.000376     -0.000609      0.000000
    115 O2    s       0.000263      0.000181      0.000055      0.000000
    116 O2    s       0.001511      0.000042      0.000772      0.000000
    117 O3    s      -0.001396      0.000125     -0.000845      0.000000
    118 O2    s      -0.001848      0.000079     -0.000702      0.000000
    119 O2    s       0.000030      0.000229      0.000044      0.000000
    120 O2    s      -0.000507     -0.000034      0.000321      0.000000
--------------------------------------------------------------------------------
  Maximum abs         0.022914      0.009700      0.005301      0.000000
--------------------------------------------------------------------------------


  Born effective charge tensors : 

-------------------------------------------------------------------------------
  Atom             x           y             z
-------------------------------------------------------------------------------
    1 Ge    x       4.1252      0.4122     -0.3706
            y      -0.3000      3.9464      0.0330
            z      -0.5800     -0.1545      3.8821
-------------------------------------------------------------------------------
    2 Ge    x       4.1743      0.3018      0.3246
            y      -0.2807      3.8945      0.0336
            z       0.6031      0.0975      3.8802
-------------------------------------------------------------------------------
    3 Ge    x       4.1097      0.3446     -0.2513
            y       0.3524      4.1818     -0.2649
            z      -0.3395     -0.0543      3.3514
-------------------------------------------------------------------------------
    4 Si    x       3.6598     -0.1639     -0.1225
            y       0.1138      3.2843     -0.0464
            z      -0.2849     -0.0233      4.0991
-------------------------------------------------------------------------------
    5 Si    x       3.6153     -0.1433      0.1793
            y       0.1291      3.2815      0.0040
            z       0.2902      0.0267      4.0653
-------------------------------------------------------------------------------
    6 Si    x       3.4970      0.1997     -0.2097
            y      -0.1380      3.2210     -0.0001
            z      -0.4709     -0.1106      3.7838
-------------------------------------------------------------------------------
    7 Si    x       3.4950      0.1760      0.1802
            y      -0.1301      3.2022      0.0110
            z       0.5303      0.0096      3.7574
-------------------------------------------------------------------------------
    8 Si    x       3.5946     -0.2282     -0.1198
            y       0.1572      3.3213     -0.0621
            z      -0.4500     -0.0309      3.3326
-------------------------------------------------------------------------------
    9 Si    x       3.6122     -0.2436      0.1385
            y       0.1553      3.3344      0.0533
            z       0.4352      0.0598      3.3214
-------------------------------------------------------------------------------
   10 Si    x       3.1795      0.2698     -0.1495
            y       0.1671      3.4604     -0.1628
            z      -0.1135     -0.0839      2.8312
-------------------------------------------------------------------------------
   11 Si    x       3.1709      0.2648      0.1475
            y       0.1687      3.4669      0.1693
            z       0.1226      0.0803      2.8343
-------------------------------------------------------------------------------
   12 Si    x       3.2252     -0.3273     -0.1047
            y      -0.1385      3.4906      0.1596
            z      -0.1413      0.0564      2.7492
-------------------------------------------------------------------------------
   13 Si    x       3.2567     -0.3315      0.1501
            y      -0.1489      3.4432     -0.1625
            z       0.1435     -0.0321      2.7324
-------------------------------------------------------------------------------
   14 Si    x       3.2220      0.2293     -0.0285
            y       0.3105      3.4628     -0.2329
            z      -0.0875     -0.0695      2.7741
-------------------------------------------------------------------------------
   15 Si    x       3.3115      0.2676     -0.0267
            y       0.3438      3.5569      0.1615
            z       0.0388      0.0232      3.0763
-------------------------------------------------------------------------------
   16 Si    x       3.1691     -0.1837     -0.0720
            y      -0.2795      3.4204      0.1698
            z      -0.1023      0.0839      2.8275
-------------------------------------------------------------------------------
   17 Si    x       3.1771     -0.1819      0.0602
            y      -0.2805      3.4164     -0.1694
            z       0.0951     -0.0884      2.8301
-------------------------------------------------------------------------------
   18 Si    x       3.4948      0.3853      0.3413
            y       0.3782      3.4555      0.3250
            z       0.3590      0.1319      2.8916
-------------------------------------------------------------------------------
   19 Si    x       3.2563     -0.2284     -0.1384
            y      -0.2524      3.3809      0.1595
            z      -0.1547      0.0535      2.7076
-------------------------------------------------------------------------------
   20 Si    x       3.2664     -0.2306      0.1535
            y      -0.2537      3.3910     -0.1677
            z       0.1759     -0.0721      2.7199
-------------------------------------------------------------------------------
   21 Si    x       3.2145      0.3034     -0.2053
            y       0.0641      3.4345     -0.1936
            z      -0.1106     -0.0777      2.7485
-------------------------------------------------------------------------------
   22 Si    x       3.2161      0.3173      0.2121
            y       0.0659      3.4293      0.1799
            z       0.1041      0.0736      2.7425
-------------------------------------------------------------------------------
   23 Si    x       3.4264     -0.4443     -0.2536
            y       0.0531      3.9004      0.2808
            z      -0.1895      0.2012      2.9395
-------------------------------------------------------------------------------
   24 Si    x       3.6497     -0.5765      0.1553
            y      -0.1765      3.7057     -0.3912
            z       0.1277     -0.2246      2.9699
-------------------------------------------------------------------------------
   25 O2    x      -1.7427     -0.6909      0.3874
            y      -0.7331     -1.9287      0.3945
            z       0.3964      0.3584     -1.3893
-------------------------------------------------------------------------------
   26 O2    x      -1.7295     -0.6875     -0.3923
            y      -0.7333     -1.9285     -0.3915
            z      -0.4008     -0.3599     -1.3914
-------------------------------------------------------------------------------
   27 O2    x      -1.8087      0.7136      0.3333
            y       0.7721     -1.9369     -0.3536
            z       0.3763     -0.3156     -1.3269
-------------------------------------------------------------------------------
   28 O2    x      -1.8014      0.7035     -0.3158
            y       0.7467     -1.8896      0.3239
            z      -0.3662      0.3060     -1.3509
-------------------------------------------------------------------------------
   29 O2    x      -1.6542     -0.6990      0.3215
            y      -0.6453     -2.0180      0.3214
            z       0.3652      0.3186     -1.3564
-------------------------------------------------------------------------------
   30 O2    x      -1.6586     -0.7043     -0.3001
            y      -0.6511     -2.0366     -0.3182
            z      -0.3628     -0.3153     -1.3418
-------------------------------------------------------------------------------
   31 O2    x      -1.6134      0.6566      0.3497
            y       0.6220     -1.9972     -0.3644
            z       0.3835     -0.3623     -1.3911
-------------------------------------------------------------------------------
   32 O2    x      -1.6094      0.6479     -0.3597
            y       0.6148     -1.9914      0.3924
            z      -0.3875      0.3891     -1.4100
-------------------------------------------------------------------------------
   33 O2    x      -1.6202     -0.0354      0.8386
            y      -0.0106     -1.0975      0.0261
            z       1.0486      0.0666     -2.7885
-------------------------------------------------------------------------------
   34 O2    x      -1.6505     -0.0289     -0.8529
            y      -0.0112     -1.0888     -0.0163
            z      -1.0775     -0.0408     -2.7497
-------------------------------------------------------------------------------
   35 O3    x      -2.0520      0.0131     -0.9952
            y       0.0469     -1.2563      0.0226
            z      -0.9687     -0.0049     -2.7950
-------------------------------------------------------------------------------
   36 O3    x      -1.9920     -0.0296      0.9076
            y       0.0296     -1.2645      0.0377
            z       0.8887      0.1045     -2.7130
-------------------------------------------------------------------------------
   37 O2    x      -1.7253     -0.0210     -0.7406
            y      -0.0226     -1.1227     -0.0133
            z      -0.7308     -0.0115     -2.2170
-------------------------------------------------------------------------------
   38 O2    x      -1.7117     -0.0204      0.7365
            y      -0.0247     -1.1318      0.0333
            z       0.7248      0.0382     -2.2240
-------------------------------------------------------------------------------
   39 O1    x      -2.0567     -0.8545      0.5265
            y      -0.6454     -2.6375      0.4952
            z       0.5310      0.4878     -1.5561
-------------------------------------------------------------------------------
   40 O3    x      -1.9986     -0.8962     -0.5838
            y      -0.7181     -2.3585     -0.5712
            z      -0.5645     -0.5427     -1.5281
-------------------------------------------------------------------------------
   41 O2    x      -1.6231      0.6363      0.3609
            y       0.5311     -2.0185     -0.3946
            z       0.3772     -0.3732     -1.2709
-------------------------------------------------------------------------------
   42 O2    x      -1.6280      0.6416     -0.3775
            y       0.5343     -2.0244      0.4204
            z      -0.3905      0.3972     -1.2745
-------------------------------------------------------------------------------
   43 O2    x      -1.7395     -0.6706      0.3808
            y      -0.6409     -1.8844      0.4043
            z       0.3497      0.3455     -1.2901
-------------------------------------------------------------------------------
   44 O2    x      -1.7388     -0.6709     -0.3766
            y      -0.6318     -1.8804     -0.3946
            z      -0.3397     -0.3462     -1.2888
-------------------------------------------------------------------------------
   45 O3    x      -2.1077      0.7916      0.5123
            y       0.7574     -2.2212     -0.6114
            z       0.4633     -0.5310     -1.5309
-------------------------------------------------------------------------------
   46 O3    x      -2.0621      0.8781     -0.4939
            y       0.8384     -2.2851      0.5947
            z      -0.4742      0.5407     -1.5518
-------------------------------------------------------------------------------
   47 O3    x      -2.0698      0.0057     -0.8101
            y       0.0345     -1.3829      0.0057
            z      -0.4563     -0.0198     -2.0771
-------------------------------------------------------------------------------
   48 O3    x      -2.1288      0.0384      0.8380
            y       0.0373     -1.3952     -0.0548
            z       0.4653     -0.0474     -2.0289
-------------------------------------------------------------------------------
   49 O2    x      -1.1527      0.0590      0.0647
            y       0.1127     -2.5592     -0.0093
            z       0.0704      0.0052     -1.0710
-------------------------------------------------------------------------------
   50 O2    x      -1.1546      0.0662     -0.0611
            y       0.1163     -2.5647      0.0045
            z      -0.0688     -0.0066     -1.0699
-------------------------------------------------------------------------------
   51 O2    x      -1.1853     -0.0869      0.0502
            y      -0.1824     -2.5726      0.0440
            z       0.0692     -0.0014     -1.0466
-------------------------------------------------------------------------------
   52 O2    x      -1.2038     -0.0968     -0.0493
            y      -0.1789     -2.5707     -0.0068
            z      -0.0661      0.0137     -1.0445
-------------------------------------------------------------------------------
   53 O2    x      -2.3907     -0.1113     -0.0017
            y      -0.0539     -1.2586      0.0659
            z      -0.0176      0.0464     -1.0577
-------------------------------------------------------------------------------
   54 O2    x      -2.3808     -0.1120      0.0008
            y      -0.0552     -1.2572     -0.0674
            z       0.0122     -0.0456     -1.0616
-------------------------------------------------------------------------------
   55 O2    x      -2.4047      0.1477     -0.0461
            y       0.0697     -1.2749     -0.0675
            z      -0.0620     -0.0321     -1.0619
-------------------------------------------------------------------------------
   56 O2    x      -2.4070      0.1519     -0.0244
            y       0.0858     -1.2525      0.0761
            z       0.0056      0.0343     -1.0682
-------------------------------------------------------------------------------
   57 O2    x      -1.1750     -0.1273     -0.0203
            y      -0.0898     -1.2962      0.0212
            z      -0.0085      0.0028     -2.0826
-------------------------------------------------------------------------------
   58 O2    x      -1.1683     -0.1231      0.0208
            y      -0.0865     -1.3013     -0.0164
            z       0.0092      0.0035     -2.0848
-------------------------------------------------------------------------------
   59 O2    x      -1.1839      0.1156     -0.0358
            y       0.0501     -1.3341     -0.0355
            z       0.0082     -0.0162     -2.0353
-------------------------------------------------------------------------------
   60 O2    x      -1.2107      0.1346     -0.0025
            y       0.0644     -1.2975     -0.0455
            z      -0.0375     -0.0681     -2.0313
-------------------------------------------------------------------------------
   61 O2    x      -1.2260     -0.1395     -0.0340
            y      -0.1306     -1.2954      0.0195
            z      -0.0500      0.0364     -2.0347
-------------------------------------------------------------------------------
   62 O3    x      -1.3697     -0.1568      0.1368
            y      -0.1503     -1.4611     -0.0156
            z       0.1488     -0.0663     -2.5745
-------------------------------------------------------------------------------
   63 O2    x      -1.2151      0.1266     -0.0377
            y       0.1313     -1.2744     -0.0021
            z      -0.0506     -0.0119     -2.0715
-------------------------------------------------------------------------------
   64 O2    x      -1.2366      0.1371      0.0406
            y       0.1440     -1.2784      0.0092
            z       0.0561      0.0191     -2.0619
-------------------------------------------------------------------------------
   65 O3    x      -1.5552     -0.2661      0.1396
            y      -0.3728     -2.9028      0.0823
            z       0.1795      0.1116     -1.1545
-------------------------------------------------------------------------------
   66 O2    x      -1.2956     -0.0977     -0.0892
            y      -0.1745     -2.3704      0.0502
            z      -0.1127      0.0221     -1.0381
-------------------------------------------------------------------------------
   67 O2    x      -1.2394      0.0739      0.0929
            y       0.1523     -2.4950      0.0143
            z       0.1007     -0.0006     -1.0144
-------------------------------------------------------------------------------
   68 O2    x      -1.2326      0.0691     -0.0966
            y       0.1479     -2.4913     -0.0114
            z      -0.1021      0.0052     -1.0175
-------------------------------------------------------------------------------
   69 O3    x      -2.9965      0.3003      0.1049
            y       0.1922     -1.4169      0.0620
            z       0.0720      0.0138     -1.2038
-------------------------------------------------------------------------------
   70 O2    x      -2.3539      0.2639     -0.0275
            y       0.1703     -1.2913     -0.0502
            z      -0.0009     -0.0258     -1.0725
-------------------------------------------------------------------------------
   71 O2    x      -2.4292     -0.1177     -0.0117
            y      -0.0679     -1.2433     -0.0604
            z       0.0017     -0.0317     -1.0209
-------------------------------------------------------------------------------
   72 O2    x      -2.4293     -0.1163      0.0024
            y      -0.0715     -1.2456      0.0636
            z      -0.0084      0.0348     -1.0256
-------------------------------------------------------------------------------




  Elastic Constant Matrix: (Units=GPa)

-------------------------------------------------------------------------------
  Indices      1         2         3         4         5         6    
-------------------------------------------------------------------------------
       1     52.2933   25.4727   35.0141   -0.8217    1.7754    2.6857
       2     25.4727   72.1209   22.7277   -0.7050    1.9353    2.5649
       3     35.0141   22.7277   63.7434   -0.9952    1.8397    2.6358
       4     -0.8217   -0.7050   -0.9952   12.5747    1.4639   -0.4159
       5      1.7754    1.9353    1.8397    1.4639   23.8285   -0.6708
       6      2.6857    2.5649    2.6358   -0.4159   -0.6708   31.2258
-------------------------------------------------------------------------------


  Elastic Compliance Matrix: (Units=1/GPa)

-------------------------------------------------------------------------------
  Indices      1         2         3         4         5         6    
-------------------------------------------------------------------------------
       1    0.032914 -0.006634 -0.015642  0.000598 -0.000770 -0.000974
       2   -0.006634  0.017000 -0.002363  0.000398 -0.000746 -0.000637
       3   -0.015642 -0.002363  0.025180  0.000895 -0.000658 -0.000588
       4    0.000598  0.000398  0.000895  0.080272 -0.005055  0.000801
       5   -0.000770 -0.000746 -0.000658 -0.005055  0.042475  0.001028
       6   -0.000974 -0.000637 -0.000588  0.000801  0.001028  0.032243
-------------------------------------------------------------------------------

  Mechanical properties :

-------------------------------------------------------------------------------
  Convention :                    Reuss         Voigt         Hill
-------------------------------------------------------------------------------
  Bulk  Modulus (GPa)     =      38.73770      39.39852      39.06811
  Shear Modulus (GPa)     =      17.36304      20.52199      18.94252
-------------------------------------------------------------------------------
  Velocity S-wave (km/s)  =       2.97439       3.23367       3.10674
  Velocity P-wave (km/s)  =       5.61553       5.83241       5.72499
-------------------------------------------------------------------------------
  Compressibility (1/GPa) =    0.02581465
-------------------------------------------------------------------------------
  Stress axis :                     x             y             z
-------------------------------------------------------------------------------
  Youngs Moduli (GPa)     =      30.38248      58.82322      39.71421
-------------------------------------------------------------------------------
  Poissons Ratio (x)      =                     0.39026       0.62121
  Poissons Ratio (y)      =       0.20157                     0.09384
  Poissons Ratio (z)      =       0.47525       0.13900
-------------------------------------------------------------------------------


  Piezoelectric Strain Matrix: (Units=C/m**2)

-------------------------------------------------------------------------------
  Indices      1         2         3         4         5         6    
-------------------------------------------------------------------------------
       x     0.05970   0.14765  -0.02409   0.29301  -0.39283  -0.06313
       y    -0.24343   0.36338   0.10846  -0.43943   0.87088  -0.10433
       z    -0.26877  -0.61696   0.67964  -0.09430   0.03278   0.05590
-------------------------------------------------------------------------------


  Piezoelectric Stress Matrix: (Units=10**-11 C/N)

-------------------------------------------------------------------------------
  Indices      1         2         3         4         5         6    
-------------------------------------------------------------------------------
       x     0.19015   0.26211  -0.13313   2.55284  -1.83718  -0.23428
       y    -1.29513   0.67776   0.47748  -3.96636   3.89496  -0.28787
       z    -1.55201  -1.04090   2.26365  -0.74888   0.21467   0.20155
-------------------------------------------------------------------------------


  Static dielectric constant tensor : 

-------------------------------------------------------------------------------
              x         y         z
-------------------------------------------------------------------------------
       x     4.07765   0.00220   0.03611
       y     0.00220   4.15517  -0.02444
       z     0.03611  -0.02444   3.30917
--------------------------------------------------------------------------------

  High frequency dielectric constant tensor : 

-------------------------------------------------------------------------------
              x         y         z
-------------------------------------------------------------------------------
       x     1.67988   0.00018   0.00111
       y     0.00018   1.68929  -0.00045
       z     0.00111  -0.00045   1.62249
-------------------------------------------------------------------------------

  Static refractive indices : 

-------------------------------------------------------------------------------
    1 =    1.81845      2 =    2.01973      3 =    2.03860
-------------------------------------------------------------------------------

  High frequency refractive indices : 

-------------------------------------------------------------------------------
    1 =    1.27376      2 =    1.29611      3 =    1.29973
-------------------------------------------------------------------------------


  Time to end of optimisation =       8.3102 seconds


  Peak dynamic memory used =       5.01 MB 


  Timing analysis for GULP :

--------------------------------------------------------------------------------
  Task / Subroutine                                          Time (Seconds)
--------------------------------------------------------------------------------
  Calculation of reciprocal space energy and derivatives          0.5335
  Calculation of real space energy and derivatives                5.2459
  Calculation of three-body energy and derivatives                0.5100
  Calculation and manipulation of Hessian matrix                  2.4030
  Calculation of matrix inversion                                 0.0335
  Global summation overhead                                       0.0001
--------------------------------------------------------------------------------
  Total CPU time                                                  8.3102
--------------------------------------------------------------------------------


  Dump file written as c00125.vasp.grs
  CIF file written as c00125.vasp.cif


  Job Finished at 11:48.14  7th October    2025                               

