********************************************************************************
*                       GENERAL UTILITY LATTICE PROGRAM                        *
*                                 Julian Gale                                  *
*                       Curtin Institute for Computation                       *
*                    School of Molecular and Life Sciences                     *
*                    Curtin University, Western Australia                      *
********************************************************************************
* Version = 6.1.2 * Last modified =   3rd November 2022                        *
********************************************************************************
*  optimise     - perform optimisation run                                     *
*  conp         - constant pressure calculation                                *
*  property     - calculate properties for final geometry                      *
********************************************************************************

  Job Started  at 12:09.44  7th October    2025                               

  Number of CPUs =     1


  Total number of configurations input =      1

********************************************************************************
*  Input for Configuration =   1 : c00239.vasp                                 *
********************************************************************************

  Formula = Ge3Si21O48                                                  

  Number of irreducible atoms/shells =     120


  Total number atoms/shells =     120

  Dimensionality = 3               :  Bulk   



  Cartesian lattice vectors (Angstroms) :

       17.182800    0.000000    0.000000
        0.000000    7.513760    0.000000
        0.000000    0.000000   10.447700

  Cell parameters (Angstroms/Degrees):

  a =      17.1828    alpha =  90.0000
  b =       7.5138    beta  =  90.0000
  c =      10.4477    gamma =  90.0000

  Initial cell volume =        1348.875752 Angs**3

  Temperature of configuration =   0.00     K 

  Pressure of configuration =         0.000 GPa 

  Fractional coordinates of asymmetric unit :

--------------------------------------------------------------------------------
   No.  Atomic       x           y          z         Charge      Occupancy
        Label      (Frac)      (Frac)     (Frac)        (e)         (Frac)  
--------------------------------------------------------------------------------
      1 Ge    c    0.160190    0.293910    0.273440     4.00000    1.000000    
      2 Ge    c    0.660660 *  0.294090 *  0.017440 *   4.00000    1.000000    
      3 Ge    c    0.660660 *  0.705910 *  0.017440 *   4.00000    1.000000    
      4 Si    c    0.052090 *  0.000000 *  0.372270 *   4.00000    1.000000    
      5 Si    c    0.447910 *  0.000000 *  0.372270 *   4.00000    1.000000    
      6 Si    c    0.947910 *  0.000000 *  0.627730 *   4.00000    1.000000    
      7 Si    c    0.552090 *  0.000000 *  0.627730 *   4.00000    1.000000    
      8 Si    c    0.556730 *  0.000000 *  0.122130 *   4.00000    1.000000    
      9 Si    c    0.943270 *  0.000000 *  0.122130 *   4.00000    1.000000    
     10 Si    c    0.443270 *  0.000000 *  0.877870 *   4.00000    1.000000    
     11 Si    c    0.056730 *  0.000000 *  0.877870 *   4.00000    1.000000    
     12 Si    c    0.339810 *  0.706090 *  0.273440 *   4.00000    1.000000    
     13 Si    c    0.839810 *  0.293910 *  0.726560 *   4.00000    1.000000    
     14 Si    c    0.660190 *  0.706090 *  0.726560 *   4.00000    1.000000    
     15 Si    c    0.839810 *  0.706090 *  0.726560 *   4.00000    1.000000    
     16 Si    c    0.660190 *  0.293910 *  0.726560 *   4.00000    1.000000    
     17 Si    c    0.160190 *  0.706090 *  0.273440 *   4.00000    1.000000    
     18 Si    c    0.339810 *  0.293910 *  0.273440 *   4.00000    1.000000    
     19 Si    c    0.839340 *  0.705910 *  0.017440 *   4.00000    1.000000    
     20 Si    c    0.339340 *  0.294090 *  0.982560 *   4.00000    1.000000    
     21 Si    c    0.160660 *  0.705910 *  0.982560 *   4.00000    1.000000    
     22 Si    c    0.339340 *  0.705910 *  0.982560 *   4.00000    1.000000    
     23 Si    c    0.160660 *  0.294090 *  0.982560 *   4.00000    1.000000    
     24 Si    c    0.839340 *  0.294090 *  0.017440 *   4.00000    1.000000    
     25 O3    c    0.106570 *  0.174340 *  0.366200 *   1.33043    1.000000    
     26 O2    c    0.393430 *  0.825660 *  0.366200 *   0.87073    1.000000    
     27 O2    c    0.893430 *  0.174340 *  0.633800 *   0.87073    1.000000    
     28 O2    c    0.606570 *  0.825660 *  0.633800 *   0.87073    1.000000    
     29 O2    c    0.893430 *  0.825660 *  0.633800 *   0.87073    1.000000    
     30 O2    c    0.606570 *  0.174340 *  0.633800 *   0.87073    1.000000    
     31 O2    c    0.106570 *  0.825660 *  0.366200 *   0.87073    1.000000    
     32 O2    c    0.393430 *  0.174340 *  0.366200 *   0.87073    1.000000    
     33 O2    c    0.000000 *  0.000000 *  0.500000 *   0.87073    1.000000    
     34 O2    c    0.500000 *  0.000000 *  0.500000 *   0.87073    1.000000    
     35 O2    c    0.994520 *  0.000000 *  0.250840 *   0.87073    1.000000    
     36 O2    c    0.505480 *  0.000000 *  0.250840 *   0.87073    1.000000    
     37 O2    c    0.005480 *  0.000000 *  0.749160 *   0.87073    1.000000    
     38 O2    c    0.494520 *  0.000000 *  0.749160 *   0.87073    1.000000    
     39 O3    c    0.610230 *  0.175520 *  0.115390 *   1.33043    1.000000    
     40 O2    c    0.889770 *  0.824480 *  0.115390 *   0.87073    1.000000    
     41 O2    c    0.389770 *  0.175520 *  0.884610 *   0.87073    1.000000    
     42 O2    c    0.110230 *  0.824480 *  0.884610 *   0.87073    1.000000    
     43 O2    c    0.389770 *  0.824480 *  0.884610 *   0.87073    1.000000    
     44 O2    c    0.110230 *  0.175520 *  0.884610 *   0.87073    1.000000    
     45 O3    c    0.610230 *  0.824480 *  0.115390 *   1.33043    1.000000    
     46 O2    c    0.889770 *  0.175520 *  0.115390 *   0.87073    1.000000    
     47 O2    c    0.500000 *  0.000000 *  0.000000 *   0.87073    1.000000    
     48 O2    c    0.000000 *  0.000000 *  0.000000 *   0.87073    1.000000    
     49 O3    c    0.151750 *  0.500000 *  0.313330 *   1.33043    1.000000    
     50 O2    c    0.348250 *  0.500000 *  0.313330 *   0.87073    1.000000    
     51 O2    c    0.848250 *  0.500000 *  0.686670 *   0.87073    1.000000    
     52 O2    c    0.651750 *  0.500000 *  0.686670 *   0.87073    1.000000    
     53 O3    c    0.250000 *  0.234950 *  0.285720 *   1.33043    1.000000    
     54 O2    c    0.250000 *  0.765050 *  0.285720 *   0.87073    1.000000    
     55 O2    c    0.750000 *  0.234950 *  0.714280 *   0.87073    1.000000    
     56 O2    c    0.750000 *  0.765050 *  0.714280 *   0.87073    1.000000    
     57 O3    c    0.131410 *  0.268650 *  0.127790 *   1.33043    1.000000    
     58 O2    c    0.368590 *  0.731350 *  0.127790 *   0.87073    1.000000    
     59 O2    c    0.868590 *  0.268650 *  0.872210 *   0.87073    1.000000    
     60 O3    c    0.631410 *  0.731350 *  0.872210 *   1.33043    1.000000    
     61 O2    c    0.868590 *  0.731350 *  0.872210 *   0.87073    1.000000    
     62 O3    c    0.631410 *  0.268650 *  0.872210 *   1.33043    1.000000    
     63 O2    c    0.131410 *  0.731350 *  0.127790 *   0.87073    1.000000    
     64 O2    c    0.368590 *  0.268650 *  0.127790 *   0.87073    1.000000    
     65 O1    c    0.653920 *  0.500000 *  0.058200 *   1.73396    1.000000    
     66 O2    c    0.846080 *  0.500000 *  0.058200 *   0.87073    1.000000    
     67 O2    c    0.346080 *  0.500000 *  0.941800 *   0.87073    1.000000    
     68 O2    c    0.153920 *  0.500000 *  0.941800 *   0.87073    1.000000    
     69 O3    c    0.750000 *  0.231060 *  0.027050 *   1.33043    1.000000    
     70 O3    c    0.750000 *  0.768940 *  0.027050 *   1.33043    1.000000    
     71 O2    c    0.250000 *  0.231060 *  0.972950 *   0.87073    1.000000    
     72 O2    c    0.250000 *  0.768940 *  0.972950 *   0.87073    1.000000    
     73 O3    s    0.106570 *  0.174340 *  0.366200 *  -3.33043    1.000000    
     74 O2    s    0.393430 *  0.825660 *  0.366200 *  -2.87073    1.000000    
     75 O2    s    0.893430 *  0.174340 *  0.633800 *  -2.87073    1.000000    
     76 O2    s    0.606570 *  0.825660 *  0.633800 *  -2.87073    1.000000    
     77 O2    s    0.893430 *  0.825660 *  0.633800 *  -2.87073    1.000000    
     78 O2    s    0.606570 *  0.174340 *  0.633800 *  -2.87073    1.000000    
     79 O2    s    0.106570 *  0.825660 *  0.366200 *  -2.87073    1.000000    
     80 O2    s    0.393430 *  0.174340 *  0.366200 *  -2.87073    1.000000    
     81 O2    s    0.000000 *  0.000000 *  0.500000 *  -2.87073    1.000000    
     82 O2    s    0.500000 *  0.000000 *  0.500000 *  -2.87073    1.000000    
     83 O2    s    0.994520 *  0.000000 *  0.250840 *  -2.87073    1.000000    
     84 O2    s    0.505480 *  0.000000 *  0.250840 *  -2.87073    1.000000    
     85 O2    s    0.005480 *  0.000000 *  0.749160 *  -2.87073    1.000000    
     86 O2    s    0.494520 *  0.000000 *  0.749160 *  -2.87073    1.000000    
     87 O3    s    0.610230 *  0.175520 *  0.115390 *  -3.33043    1.000000    
     88 O2    s    0.889770 *  0.824480 *  0.115390 *  -2.87073    1.000000    
     89 O2    s    0.389770 *  0.175520 *  0.884610 *  -2.87073    1.000000    
     90 O2    s    0.110230 *  0.824480 *  0.884610 *  -2.87073    1.000000    
     91 O2    s    0.389770 *  0.824480 *  0.884610 *  -2.87073    1.000000    
     92 O2    s    0.110230 *  0.175520 *  0.884610 *  -2.87073    1.000000    
     93 O3    s    0.610230 *  0.824480 *  0.115390 *  -3.33043    1.000000    
     94 O2    s    0.889770 *  0.175520 *  0.115390 *  -2.87073    1.000000    
     95 O2    s    0.500000 *  0.000000 *  0.000000 *  -2.87073    1.000000    
     96 O2    s    0.000000 *  0.000000 *  0.000000 *  -2.87073    1.000000    
     97 O3    s    0.151750 *  0.500000 *  0.313330 *  -3.33043    1.000000    
     98 O2    s    0.348250 *  0.500000 *  0.313330 *  -2.87073    1.000000    
     99 O2    s    0.848250 *  0.500000 *  0.686670 *  -2.87073    1.000000    
    100 O2    s    0.651750 *  0.500000 *  0.686670 *  -2.87073    1.000000    
    101 O3    s    0.250000 *  0.234950 *  0.285720 *  -3.33043    1.000000    
    102 O2    s    0.250000 *  0.765050 *  0.285720 *  -2.87073    1.000000    
    103 O2    s    0.750000 *  0.234950 *  0.714280 *  -2.87073    1.000000    
    104 O2    s    0.750000 *  0.765050 *  0.714280 *  -2.87073    1.000000    
    105 O3    s    0.131410 *  0.268650 *  0.127790 *  -3.33043    1.000000    
    106 O2    s    0.368590 *  0.731350 *  0.127790 *  -2.87073    1.000000    
    107 O2    s    0.868590 *  0.268650 *  0.872210 *  -2.87073    1.000000    
    108 O3    s    0.631410 *  0.731350 *  0.872210 *  -3.33043    1.000000    
    109 O2    s    0.868590 *  0.731350 *  0.872210 *  -2.87073    1.000000    
    110 O3    s    0.631410 *  0.268650 *  0.872210 *  -3.33043    1.000000    
    111 O2    s    0.131410 *  0.731350 *  0.127790 *  -2.87073    1.000000    
    112 O2    s    0.368590 *  0.268650 *  0.127790 *  -2.87073    1.000000    
    113 O1    s    0.653920 *  0.500000 *  0.058200 *  -3.73396    1.000000    
    114 O2    s    0.846080 *  0.500000 *  0.058200 *  -2.87073    1.000000    
    115 O2    s    0.346080 *  0.500000 *  0.941800 *  -2.87073    1.000000    
    116 O2    s    0.153920 *  0.500000 *  0.941800 *  -2.87073    1.000000    
    117 O3    s    0.750000 *  0.231060 *  0.027050 *  -3.33043    1.000000    
    118 O3    s    0.750000 *  0.768940 *  0.027050 *  -3.33043    1.000000    
    119 O2    s    0.250000 *  0.231060 *  0.972950 *  -2.87073    1.000000    
    120 O2    s    0.250000 *  0.768940 *  0.972950 *  -2.87073    1.000000    
--------------------------------------------------------------------------------



********************************************************************************
*  General input information                                                   *
********************************************************************************

  Species output for all configurations : 

--------------------------------------------------------------------------------
  Species    Type    Atomic    Atomic    Charge       Radii (Angs)     Library
                     Number     Mass       (e)     Cova   Ionic  VDW   Symbol
--------------------------------------------------------------------------------
    Ge       Core       32      72.61   4.000000   1.170  0.000  1.750 Ge       
    Si       Core       14      28.09   4.000000   1.200  0.000  2.100 Si       
    O1       Core        8      16.00   1.733957   0.730  0.000  1.360 O1       
    O2       Core        8      16.00   0.870733   0.730  0.000  1.360 O2       
    O3       Core        8      16.00   1.330431   0.730  0.000  1.360 O3       
    O1       Shell       8       0.00  -3.733957   0.730  0.000  0.000 O1       
    O2       Shell       8       0.00  -2.870733   0.730  0.000  0.000 O2       
    O3       Shell       8       0.00  -3.330431   0.730  0.000  0.000 O3       
--------------------------------------------------------------------------------


  Lattice summation method               =    Ewald          (3-D)
                                         =    Parry          (2-D)
                                         =    Saunders et al (1-D)
  Accuracy factor for lattice sums       =   12.000


  Analytic derivatives to be used

  Time limit = Infinity

  Maximum range for interatomic potentials =    100000.000000 Angstroms

  General interatomic potentials :

--------------------------------------------------------------------------------
Atom  Types   Potential      Parameter       Value         Units   Cutoffs(Ang)
  1     2                                                            Min /  Max 
--------------------------------------------------------------------------------
Si   c O1   s Buckingham    Buckingham A     1315.2478    eV        0.000 16.000
                            Buckingham rho  0.31775900    Ang       
                            Buckingham C     10.141118    eV*Ang^6  
--------------------------------------------------------------------------------
Si   c O2   s Buckingham    Buckingham A     1315.2478    eV        0.000 16.000
                            Buckingham rho  0.31775900    Ang       
                            Buckingham C     10.141118    eV*Ang^6  
--------------------------------------------------------------------------------
Si   c O3   s Buckingham    Buckingham A     1315.2478    eV        0.000 16.000
                            Buckingham rho  0.31775900    Ang       
                            Buckingham C     10.141118    eV*Ang^6  
--------------------------------------------------------------------------------
Ge   c O1   s Buckingham    Buckingham A     1497.3996    eV        0.000 16.000
                            Buckingham rho  0.32564600    Ang       
                            Buckingham C     16.808599    eV*Ang^6  
--------------------------------------------------------------------------------
Ge   c O2   s Buckingham    Buckingham A     1497.3996    eV        0.000 16.000
                            Buckingham rho  0.32564600    Ang       
                            Buckingham C     16.808599    eV*Ang^6  
--------------------------------------------------------------------------------
Ge   c O3   s Buckingham    Buckingham A     1497.3996    eV        0.000 16.000
                            Buckingham rho  0.32564600    Ang       
                            Buckingham C     16.808599    eV*Ang^6  
--------------------------------------------------------------------------------
O1   s O1   s Buckingham    Buckingham A     22764.000    eV        0.000 16.000
                            Buckingham rho  0.14900000    Ang       
                            Buckingham C     10.937044    eV*Ang^6  
--------------------------------------------------------------------------------
O1   s O2   s Buckingham    Buckingham A     22764.000    eV        0.000 16.000
                            Buckingham rho  0.14900000    Ang       
                            Buckingham C     10.937044    eV*Ang^6  
--------------------------------------------------------------------------------
O1   s O3   s Buckingham    Buckingham A     22764.000    eV        0.000 16.000
                            Buckingham rho  0.14900000    Ang       
                            Buckingham C     10.937044    eV*Ang^6  
--------------------------------------------------------------------------------
O2   s O2   s Buckingham    Buckingham A     22764.000    eV        0.000 16.000
                            Buckingham rho  0.14900000    Ang       
                            Buckingham C     10.937044    eV*Ang^6  
--------------------------------------------------------------------------------
O2   s O3   s Buckingham    Buckingham A     22764.000    eV        0.000 16.000
                            Buckingham rho  0.14900000    Ang       
                            Buckingham C     10.937044    eV*Ang^6  
--------------------------------------------------------------------------------
O3   s O3   s Buckingham    Buckingham A     22764.000    eV        0.000 16.000
                            Buckingham rho  0.14900000    Ang       
                            Buckingham C     10.937044    eV*Ang^6  
--------------------------------------------------------------------------------
O1   c O1   s Spring (c-s)  Spring k 2       180.31577    eV*Ang^-2 0.000  0.800
                            Spring k 4       0.0000000    eV*Ang^-4 
--------------------------------------------------------------------------------
O2   c O2   s Spring (c-s)  Spring k 2       75.969800    eV*Ang^-2 0.000  0.800
                            Spring k 4       0.0000000    eV*Ang^-4 
--------------------------------------------------------------------------------
O3   c O3   s Spring (c-s)  Spring k 2       128.14270    eV*Ang^-2 0.000  0.800
                            Spring k 4       0.0000000    eV*Ang^-4 
--------------------------------------------------------------------------------

  General Three-body potentials :

--------------------------------------------------------------------------------
  Atoms       Potential      Parameter       Value         Units   Cutoffs(Ang)
  1 / 2 / 3                                                          Min /  Max 
--------------------------------------------------------------------------------
Si    core    Harmonic      Three-body cnst  1.2614000    eV*rad^-2 0.000  1.900
O1    shel                  Three-body angl  109.47000    degrees   0.000  1.900
O1    shel                  Three-body k4    0.0000000    eV*rad^-4 0.000  3.500
                            Three-body k3    0.0000000    eV*rad^-3 
--------------------------------------------------------------------------------
Si    core    Harmonic      Three-body cnst  1.2614000    eV*rad^-2 0.000  1.900
O1    shel                  Three-body angl  109.47000    degrees   0.000  1.900
õ(1   shel                  Three-body k4    0.0000000    eV*rad^-4 0.000  3.500
                            Three-body k3    0.0000000    eV*rad^-3 
--------------------------------------------------------------------------------
Si    core    Harmonic      Three-body cnst  1.2614000    eV*rad^-2 0.000  1.900
õ(1   shel                  Three-body angl  109.47000    degrees   0.000  1.900
õ(1   shel                  Three-body k4    0.0000000    eV*rad^-4 0.000  3.500
                            Three-body k3    0.0000000    eV*rad^-3 
--------------------------------------------------------------------------------
Si    core    Harmonic      Three-body cnst  1.2614000    eV*rad^-2 0.000  1.900
O1    shel                  Three-body angl  109.47000    degrees   0.000  1.900
O2    shel                  Three-body k4    0.0000000    eV*rad^-4 0.000  3.500
                            Three-body k3    0.0000000    eV*rad^-3 
--------------------------------------------------------------------------------
Si    core    Harmonic      Three-body cnst  1.2614000    eV*rad^-2 0.000  1.900
O1    shel                  Three-body angl  109.47000    degrees   0.000  1.900
õ(2   shel                  Three-body k4    0.0000000    eV*rad^-4 0.000  3.500
                            Three-body k3    0.0000000    eV*rad^-3 
--------------------------------------------------------------------------------
Si    core    Harmonic      Three-body cnst  1.2614000    eV*rad^-2 0.000  1.900
O2    shel                  Three-body angl  109.47000    degrees   0.000  1.900
õ(1   shel                  Three-body k4    0.0000000    eV*rad^-4 0.000  3.500
                            Three-body k3    0.0000000    eV*rad^-3 
--------------------------------------------------------------------------------
Si    core    Harmonic      Three-body cnst  1.2614000    eV*rad^-2 0.000  1.900
õ(1   shel                  Three-body angl  109.47000    degrees   0.000  1.900
õ(2   shel                  Three-body k4    0.0000000    eV*rad^-4 0.000  3.500
                            Three-body k3    0.0000000    eV*rad^-3 
--------------------------------------------------------------------------------
Si    core    Harmonic      Three-body cnst  1.2614000    eV*rad^-2 0.000  1.900
O2    shel                  Three-body angl  109.47000    degrees   0.000  1.900
O2    shel                  Three-body k4    0.0000000    eV*rad^-4 0.000  3.500
                            Three-body k3    0.0000000    eV*rad^-3 
--------------------------------------------------------------------------------
Si    core    Harmonic      Three-body cnst  1.2614000    eV*rad^-2 0.000  1.900
O2    shel                  Three-body angl  109.47000    degrees   0.000  1.900
õ(2   shel                  Three-body k4    0.0000000    eV*rad^-4 0.000  3.500
                            Three-body k3    0.0000000    eV*rad^-3 
--------------------------------------------------------------------------------
Si    core    Harmonic      Three-body cnst  1.2614000    eV*rad^-2 0.000  1.900
õ(2   shel                  Three-body angl  109.47000    degrees   0.000  1.900
õ(2   shel                  Three-body k4    0.0000000    eV*rad^-4 0.000  3.500
                            Three-body k3    0.0000000    eV*rad^-3 
--------------------------------------------------------------------------------

********************************************************************************
*  Output for configuration   1 : c00239.vasp                                  *
********************************************************************************


  Components of energy : 

--------------------------------------------------------------------------------
  Interatomic potentials     =         760.31794850 eV    
  Three-body potentials      =           0.01467312 eV    
  Monopole - monopole (real) =       -2676.00317478 eV    
  Monopole - monopole (recip)=       -1115.35404472 eV    
  Monopole - monopole (total)=       -3791.35721950 eV    
--------------------------------------------------------------------------------
  Total lattice energy       =       -3031.02459788 eV    
--------------------------------------------------------------------------------
  Total lattice energy       =         -292447.5402 kJ/(mole unit cells)
--------------------------------------------------------------------------------


  Number of variables =      363

  Maximum number of calculations  =          1000
  Maximum Hessian update interval =            10
  Maximum step size               =   0.100000000
  Maximum parameter tolerance     =   0.000010000
  Maximum function  tolerance     =   0.000010000
  Maximum gradient  tolerance     =   0.001000000
  Maximum gradient  component     =   0.010000000

  Symmetry not applied to optimisation

  Cell parameters to be optimised using strains

  Newton-Raphson optimiser to be used

  BFGS hessian update to be used

  Lower half triangular hessian to be used

  Minimiser to switch to RFO
  When gradient norm is less than     0.050000

  Dumpfile to be written after every cycle

  Start of bulk optimisation :

  Cycle:      0 Energy:     -3031.024598  Gnorm:      4.457179  CPU:    0.140
  ** Hessian calculated **
  Cycle:      1 Energy:     -3045.635015  Gnorm:      3.439343  CPU:    0.360
  ** Hessian calculated **
  Cycle:      2 Energy:     -3063.877703  Gnorm:      0.765753  CPU:    0.590
  ** Hessian calculated **
  Cycle:      3 Energy:     -3065.854634  Gnorm:      0.505308  CPU:    0.843
  ** Hessian calculated **
  Cycle:      4 Energy:     -3066.523347  Gnorm:      0.291397  CPU:    1.075
  Cycle:      5 Energy:     -3066.752355  Gnorm:      0.192142  CPU:    1.198
  Cycle:      6 Energy:     -3066.929703  Gnorm:      0.146032  CPU:    1.338
  Cycle:      7 Energy:     -3067.090186  Gnorm:      0.118419  CPU:    1.481
  Cycle:      8 Energy:     -3067.200753  Gnorm:      0.099371  CPU:    1.601
  Cycle:      9 Energy:     -3067.273225  Gnorm:      0.078792  CPU:    1.722
  Cycle:     10 Energy:     -3067.310129  Gnorm:      0.052139  CPU:    1.839
  Cycle:     11 Energy:     -3067.332172  Gnorm:      0.041686  CPU:    1.983
  ** Hessian has required structure
  Cycle:     12 Energy:     -3067.341443  Gnorm:      0.075858  CPU:    2.157
  ** Hessian has required structure
  Cycle:     13 Energy:     -3067.355359  Gnorm:      0.074553  CPU:    2.349
  ** Hessian has wrong structure
  ** Imaginary eigenvectors =   1
  ** Hessian has wrong structure
  ** Imaginary eigenvectors =   1
  Cycle:     14 Energy:     -3067.360711  Gnorm:      0.074612  CPU:    3.005
  ** Hessian has wrong structure
  ** Imaginary eigenvectors =   1
  ** Hessian has wrong structure
  ** Imaginary eigenvectors =   1
  Cycle:     15 Energy:     -3067.379870  Gnorm:      0.074824  CPU:    3.527
  ** Hessian has wrong structure
  ** Imaginary eigenvectors =   1
  ** Hessian has wrong structure
  ** Imaginary eigenvectors =   1
  Cycle:     16 Energy:     -3067.428710  Gnorm:      0.074719  CPU:    4.009
  ** Hessian has wrong structure
  ** Imaginary eigenvectors =   1
  Cycle:     17 Energy:     -3067.430994  Gnorm:      0.061110  CPU:    4.228
  ** Hessian has required structure
  Cycle:     18 Energy:     -3067.555390  Gnorm:      0.057662  CPU:    4.524
  ** Hessian has required structure
  Cycle:     19 Energy:     -3067.769535  Gnorm:      0.038959  CPU:    4.725
  ** Hessian has required structure
  Cycle:     20 Energy:     -3067.821814  Gnorm:      0.061393  CPU:    4.904
  ** Hessian has required structure
  Cycle:     21 Energy:     -3067.881395  Gnorm:      0.046027  CPU:    5.087
  ** Hessian has required structure
  Cycle:     22 Energy:     -3067.914806  Gnorm:      0.032302  CPU:    5.271
  ** Hessian has required structure
  Cycle:     23 Energy:     -3067.925924  Gnorm:      0.023986  CPU:    5.435
  ** Hessian has required structure
  Cycle:     24 Energy:     -3067.944531  Gnorm:      0.021645  CPU:    5.643
  ** Hessian has required structure
  Cycle:     25 Energy:     -3067.958016  Gnorm:      0.022199  CPU:    5.806
  ** Hessian has required structure
  Cycle:     26 Energy:     -3067.976702  Gnorm:      0.029417  CPU:    6.009
  ** Hessian has required structure
  Cycle:     27 Energy:     -3067.989638  Gnorm:      0.038432  CPU:    6.168
  ** Hessian has required structure
  Cycle:     28 Energy:     -3068.044030  Gnorm:      0.033954  CPU:    6.456
  ** Hessian has required structure
  Cycle:     29 Energy:     -3068.073056  Gnorm:      0.027242  CPU:    6.656
  ** Hessian has required structure
  Cycle:     30 Energy:     -3068.093158  Gnorm:      0.012717  CPU:    6.853
  ** Hessian has required structure
  Cycle:     31 Energy:     -3068.100745  Gnorm:      0.013295  CPU:    7.050
  ** Hessian has required structure
  Cycle:     32 Energy:     -3068.103224  Gnorm:      0.006434  CPU:    7.249
  ** Hessian has required structure
  Cycle:     33 Energy:     -3068.103793  Gnorm:      0.004192  CPU:    7.445
  ** Hessian has required structure
  Cycle:     34 Energy:     -3068.104106  Gnorm:      0.001898  CPU:    7.642
  ** Hessian has required structure
  Cycle:     35 Energy:     -3068.104225  Gnorm:      0.001142  CPU:    7.835
  ** Hessian has required structure
  Cycle:     36 Energy:     -3068.104263  Gnorm:      0.000675  CPU:    8.027
  ** Hessian has required structure
  Cycle:     37 Energy:     -3068.104282  Gnorm:      0.000436  CPU:    8.244
  ** Hessian has required structure
  Cycle:     38 Energy:     -3068.104287  Gnorm:      0.000262  CPU:    8.559
  ** Hessian has required structure
  Cycle:     39 Energy:     -3068.104287  Gnorm:      0.000235  CPU:    8.732
  ** Hessian has required structure
  Cycle:     40 Energy:     -3068.104288  Gnorm:      0.000222  CPU:    8.896
  ** Hessian has required structure
  Cycle:     41 Energy:     -3068.104288  Gnorm:      0.000221  CPU:    9.149
  ** Hessian has required structure
  Cycle:     42 Energy:     -3068.104288  Gnorm:      0.000222  CPU:    9.420
  ** Hessian has required structure
  Cycle:     43 Energy:     -3068.104288  Gnorm:      0.000218  CPU:    9.709
  ** Hessian has required structure
  Cycle:     44 Energy:     -3068.104288  Gnorm:      0.000216  CPU:    9.871
  ** Hessian has required structure
  Cycle:     45 Energy:     -3068.104288  Gnorm:      0.000214  CPU:   10.034
  ** Hessian has required structure
  Cycle:     46 Energy:     -3068.104287  Gnorm:      0.000213  CPU:   10.304
  ** Hessian has required structure
  Cycle:     47 Energy:     -3068.104288  Gnorm:      0.000149  CPU:   10.543
  ** Hessian has required structure
  Cycle:     48 Energy:     -3068.104288  Gnorm:      0.000119  CPU:   10.698
  ** Hessian has required structure
  Cycle:     49 Energy:     -3068.104288  Gnorm:      0.000112  CPU:   10.857
  ** Hessian has required structure
  Cycle:     50 Energy:     -3068.104288  Gnorm:      0.000108  CPU:   11.019
  ** Hessian has required structure
  Cycle:     51 Energy:     -3068.104288  Gnorm:      0.000106  CPU:   11.178
  ** Hessian has required structure
  Cycle:     52 Energy:     -3068.104288  Gnorm:      0.000105  CPU:   11.336
  ** Hessian has required structure
  Cycle:     53 Energy:     -3068.104288  Gnorm:      0.000105  CPU:   11.496
  ** Hessian has required structure
  Cycle:     54 Energy:     -3068.104288  Gnorm:      0.000105  CPU:   11.657
  ** Hessian has required structure
  Cycle:     55 Energy:     -3068.104288  Gnorm:      0.000104  CPU:   11.817
  ** Hessian has required structure
  Cycle:     56 Energy:     -3068.104288  Gnorm:      0.000104  CPU:   11.978
  ** Hessian has required structure
  Cycle:     57 Energy:     -3068.104288  Gnorm:      0.000105  CPU:   12.347
  ** Hessian calculated **


  **** Optimisation achieved ****


  Final energy =   -3068.10428824 eV      
  Final Gnorm  =       0.00010476

  Components of energy : 

--------------------------------------------------------------------------------
  Interatomic potentials     =         816.08835177 eV    
  Three-body potentials      =           0.22170506 eV    
  Monopole - monopole (real) =       -2203.11639766 eV    
  Monopole - monopole (recip)=       -1681.29794741 eV    
  Monopole - monopole (total)=       -3884.41434507 eV    
--------------------------------------------------------------------------------
  Total lattice energy       =       -3068.10428824 eV    
--------------------------------------------------------------------------------
  Total lattice energy       =         -296025.1635 kJ/(mole unit cells)
--------------------------------------------------------------------------------

  Final fractional coordinates of atoms :

--------------------------------------------------------------------------------
   No.  Atomic        x           y          z          Radius
        Label       (Frac)      (Frac)     (Frac)       (Angs) 
--------------------------------------------------------------------------------
     1  Ge    c     0.160190    0.293910    0.273440    0.000000
     2  Ge    c     0.645920    0.343195    0.022194    0.000000
     3  Ge    c     0.669973    0.753408    0.014962    0.000000
     4  Si    c     0.043778    0.009143    0.358310    0.000000
     5  Si    c     0.448323    0.012709    0.365379    0.000000
     6  Si    c     0.947792    0.985432    0.617613    0.000000
     7  Si    c     0.549666    0.008799    0.623048    0.000000
     8  Si    c     0.556012    0.030511    0.120439    0.000000
     9  Si    c     0.946522    0.004575    0.096714    0.000000
    10  Si    c     0.448207    0.996059    0.878047    0.000000
    11  Si    c     0.059629    0.002207    0.858954    0.000000
    12  Si    c     0.334364    0.723500    0.273891    0.000000
    13  Si    c     0.830827    0.280674    0.713778    0.000000
    14  Si    c     0.666755    0.723438    0.707427    0.000000
    15  Si    c     0.845618    0.681035    0.708026    0.000000
    16  Si    c     0.651882    0.314898    0.715186    0.000000
    17  Si    c     0.152535    0.706425    0.268859    0.000000
    18  Si    c     0.344400    0.319165    0.279540    0.000000
    19  Si    c     0.852058    0.685483    0.013571    0.000000
    20  Si    c     0.347928    0.311689    0.974920    0.000000
    21  Si    c     0.155454    0.692183    0.966749    0.000000
    22  Si    c     0.336694    0.711691    0.970984    0.000000
    23  Si    c     0.167023    0.287747    0.964786    0.000000
    24  Si    c     0.830088    0.292792    0.019207    0.000000
    25  O3    c     0.102063    0.171248    0.371734    0.000000
    26  O2    c     0.383646    0.859620    0.360753    0.000000
    27  O2    c     0.882884    0.138339    0.636597    0.000000
    28  O2    c     0.613508    0.849848    0.617997    0.000000
    29  O2    c     0.906961    0.796161    0.628872    0.000000
    30  O2    c     0.592529    0.197214    0.628991    0.000000
    31  O2    c     0.096786    0.832706    0.353956    0.000000
    32  O2    c     0.405727    0.202862    0.361375    0.000000
    33  O2    c     0.982686    0.000161    0.474711    0.000000
    34  O2    c     0.498197    0.998241    0.494598    0.000000
    35  O2    c     0.995951    0.034019    0.225654    0.000000
    36  O2    c     0.507211    0.985143    0.246219    0.000000
    37  O2    c     0.018763    0.005687    0.719254    0.000000
    38  O2    c     0.490273    0.984495    0.741061    0.000000
    39  O3    c     0.577710    0.233558    0.113613    0.000000
    40  O2    c     0.915385    0.804996    0.088968    0.000000
    41  O2    c     0.407776    0.188022    0.895112    0.000000
    42  O2    c     0.100039    0.810759    0.876475    0.000000
    43  O2    c     0.383274    0.844186    0.881335    0.000000
    44  O2    c     0.123892    0.156086    0.864834    0.000000
    45  O3    c     0.636796    0.921206    0.114168    0.000000
    46  O2    c     0.874556    0.143392    0.100134    0.000000
    47  O2    c     0.510530    0.959740    0.991558    0.000000
    48  O2    c     0.997154    0.045985    0.970521    0.000000
    49  O3    c     0.130371    0.509016    0.295147    0.000000
    50  O2    c     0.362358    0.525063    0.304252    0.000000
    51  O2    c     0.864478    0.474277    0.685012    0.000000
    52  O2    c     0.634570    0.523813    0.700901    0.000000
    53  O3    c     0.257080    0.275561    0.320988    0.000000
    54  O2    c     0.242727    0.744404    0.308461    0.000000
    55  O2    c     0.740463    0.271165    0.667099    0.000000
    56  O2    c     0.757210    0.723863    0.659758    0.000000
    57  O3    c     0.153258    0.230306    0.111844    0.000000
    58  O2    c     0.346677    0.765916    0.122211    0.000000
    59  O2    c     0.831398    0.240398    0.866540    0.000000
    60  O3    c     0.664028    0.801821    0.852126    0.000000
    61  O2    c     0.853863    0.729490    0.860232    0.000000
    62  O3    c     0.639299    0.265044    0.863552    0.000000
    63  O2    c     0.140834    0.749055    0.116227    0.000000
    64  O2    c     0.356239    0.270185    0.127250    0.000000
    65  O1    c     0.622476    0.559429    0.038538    0.000000
    66  O2    c     0.873384    0.480727    0.038069    0.000000
    67  O2    c     0.369723    0.513678    0.947660    0.000000
    68  O2    c     0.135023    0.487165    0.945667    0.000000
    69  O3    c     0.742230    0.307705    0.069949    0.000000
    70  O3    c     0.765919    0.724513    0.064346    0.000000
    71  O2    c     0.259096    0.276655    0.930723    0.000000
    72  O2    c     0.245796    0.723292    0.930210    0.000000
    73  O3    s     0.101094    0.165272    0.362120    0.000000
    74  O2    s     0.385072    0.860881    0.351513    0.000000
    75  O2    s     0.884089    0.137707    0.643357    0.000000
    76  O2    s     0.612529    0.852974    0.628142    0.000000
    77  O2    s     0.904571    0.803795    0.636426    0.000000
    78  O2    s     0.594363    0.189946    0.637563    0.000000
    79  O2    s     0.097311    0.837565    0.344850    0.000000
    80  O2    s     0.403584    0.195142    0.352852    0.000000
    81  O2    s     0.985743    0.999536    0.477736    0.000000
    82  O2    s     0.498292    0.001258    0.494247    0.000000
    83  O2    s     0.995495    0.027750    0.225255    0.000000
    84  O2    s     0.506267    0.993591    0.244927    0.000000
    85  O2    s     0.015552    0.003043    0.723909    0.000000
    86  O2    s     0.492043    0.988616    0.743959    0.000000
    87  O3    s     0.580955    0.221918    0.107054    0.000000
    88  O2    s     0.911867    0.813229    0.081630    0.000000
    89  O2    s     0.405409    0.181410    0.902276    0.000000
    90  O2    s     0.101875    0.817935    0.884639    0.000000
    91  O2    s     0.385037    0.845685    0.891151    0.000000
    92  O2    s     0.121724    0.153987    0.875153    0.000000
    93  O3    s     0.631615    0.918094    0.106461    0.000000
    94  O2    s     0.877378    0.144891    0.090739    0.000000
    95  O2    s     0.508439    0.970740    0.992316    0.000000
    96  O2    s     0.998508    0.036501    0.972065    0.000000
    97  O3    s     0.135231    0.512068    0.290532    0.000000
    98  O2    s     0.357446    0.524432    0.298359    0.000000
    99  O2    s     0.858942    0.475911    0.690472    0.000000
   100  O2    s     0.639754    0.522880    0.703064    0.000000
   101  O3    s     0.258159    0.281493    0.312888    0.000000
   102  O2    s     0.243154    0.738138    0.300529    0.000000
   103  O2    s     0.740828    0.276792    0.677020    0.000000
   104  O2    s     0.757075    0.719229    0.669734    0.000000
   105  O3    s     0.155163    0.241014    0.110269    0.000000
   106  O2    s     0.344304    0.755711    0.122188    0.000000
   107  O2    s     0.831184    0.250317    0.866088    0.000000
   108  O3    s     0.664781    0.790061    0.850859    0.000000
   109  O2    s     0.852803    0.719756    0.859868    0.000000
   110  O3    s     0.641062    0.276160    0.861221    0.000000
   111  O2    s     0.143601    0.738702    0.116082    0.000000
   112  O2    s     0.354141    0.279678    0.126808    0.000000
   113  O1    s     0.627991    0.556892    0.035449    0.000000
   114  O2    s     0.866786    0.482901    0.033567    0.000000
   115  O2    s     0.363922    0.513085    0.953038    0.000000
   116  O2    s     0.140552    0.488296    0.949920    0.000000
   117  O3    s     0.743525    0.309005    0.060970    0.000000
   118  O3    s     0.767118    0.722747    0.054974    0.000000
   119  O2    s     0.258959    0.281792    0.939252    0.000000
   120  O2    s     0.245908    0.718559    0.938664    0.000000
--------------------------------------------------------------------------------

  Final Cartesian lattice vectors (Angstroms) :

       17.048829    0.100534   -0.026664
        0.044290    7.603133   -0.059590
       -0.017417   -0.083178   10.283618


  Final cell parameters and derivatives :

--------------------------------------------------------------------------------
       a           17.049146 Angstrom     dE/de1(xx)    -0.004645 eV/strain
       b            7.603495 Angstrom     dE/de2(yy)    -0.005626 eV/strain
       c           10.283969 Angstrom     dE/de3(zz)    -0.008335 eV/strain
       alpha       90.913016 Degrees      dE/de4(yz)     0.000406 eV/strain
       beta        90.189374 Degrees      dE/de5(xz)     0.000494 eV/strain
       gamma       89.327706 Degrees      dE/de6(xy)     0.000297 eV/strain
--------------------------------------------------------------------------------

  Primitive cell volume =          1332.875255 Angs**3

  Density of cell =      1.963114 g/cm**3

  Non-primitive cell volume =          1332.875255 Angs**3


  Final internal derivatives :

--------------------------------------------------------------------------------
   No.  Atomic          a             b             c           Radius
        Label          (eV)          (eV)          (eV)        (eV/Angs)
--------------------------------------------------------------------------------
      1 Ge    c       0.000000      0.000000      0.000000      0.000000
      2 Ge    c       0.001308     -0.002670      0.000494      0.000000
      3 Ge    c      -0.016496     -0.001164     -0.002887      0.000000
      4 Si    c      -0.002468      0.000063      0.000659      0.000000
      5 Si    c       0.001797      0.000064      0.000801      0.000000
      6 Si    c       0.000573      0.000008      0.000269      0.000000
      7 Si    c       0.000340     -0.000297     -0.000045      0.000000
      8 Si    c       0.000536     -0.000263     -0.000501      0.000000
      9 Si    c       0.000343     -0.000529      0.000323      0.000000
     10 Si    c       0.001223     -0.000325      0.000407      0.000000
     11 Si    c      -0.000711     -0.000202     -0.000365      0.000000
     12 Si    c      -0.001736     -0.000507      0.000863      0.000000
     13 Si    c       0.001078     -0.000285     -0.000955      0.000000
     14 Si    c       0.000940     -0.000276      0.002181      0.000000
     15 Si    c      -0.000772      0.000026      0.000578      0.000000
     16 Si    c      -0.000041      0.000776      0.000060      0.000000
     17 Si    c      -0.000250     -0.002733      0.000933      0.000000
     18 Si    c      -0.006017     -0.000512     -0.000333      0.000000
     19 Si    c       0.008916     -0.001496     -0.002425      0.000000
     20 Si    c      -0.001517     -0.000615      0.001327      0.000000
     21 Si    c      -0.001031     -0.000123      0.000766      0.000000
     22 Si    c      -0.000007      0.000663     -0.000279      0.000000
     23 Si    c       0.000686      0.000048      0.003916      0.000000
     24 Si    c      -0.002842     -0.001401      0.000814      0.000000
     25 O3    c      -0.000082     -0.000071      0.000891      0.000000
     26 O2    c      -0.000240     -0.000080     -0.000182      0.000000
     27 O2    c      -0.000704      0.000238      0.000282      0.000000
     28 O2    c       0.000184     -0.000023     -0.000027      0.000000
     29 O2    c      -0.000137     -0.000029     -0.000030      0.000000
     30 O2    c       0.000417      0.000064      0.000277      0.000000
     31 O2    c       0.000644     -0.000364      0.000003      0.000000
     32 O2    c       0.000615     -0.000412     -0.000204      0.000000
     33 O2    c       0.000731     -0.000002     -0.000450      0.000000
     34 O2    c      -0.001185     -0.000087     -0.001855      0.000000
     35 O2    c      -0.000683      0.000212     -0.001312      0.000000
     36 O2    c      -0.000748     -0.000166      0.000581      0.000000
     37 O2    c      -0.001458     -0.000035     -0.000788      0.000000
     38 O2    c       0.000145     -0.000107     -0.000370      0.000000
     39 O3    c       0.001172      0.000611     -0.000277      0.000000
     40 O2    c       0.000910      0.000851      0.000291      0.000000
     41 O2    c      -0.000029     -0.000180     -0.000006      0.000000
     42 O2    c       0.000038     -0.000030     -0.000154      0.000000
     43 O2    c       0.000165     -0.000016      0.000006      0.000000
     44 O2    c       0.000295     -0.000088     -0.000371      0.000000
     45 O3    c       0.001431     -0.000031     -0.000177      0.000000
     46 O2    c       0.000596     -0.000089      0.000161      0.000000
     47 O2    c       0.000577      0.000109      0.000104      0.000000
     48 O2    c      -0.000567     -0.000027      0.000593      0.000000
     49 O3    c       0.005369      0.002071     -0.003370      0.000000
     50 O2    c      -0.002013      0.000579     -0.001182      0.000000
     51 O2    c       0.000522      0.000917     -0.000002      0.000000
     52 O2    c       0.001571     -0.000852      0.000698      0.000000
     53 O3    c      -0.002062      0.002456     -0.004211      0.000000
     54 O2    c       0.001821     -0.000612     -0.001006      0.000000
     55 O2    c      -0.003214      0.000218     -0.000175      0.000000
     56 O2    c      -0.003612      0.000141      0.000554      0.000000
     57 O3    c       0.004407      0.002752     -0.001661      0.000000
     58 O2    c      -0.000600     -0.000118      0.000378      0.000000
     59 O2    c       0.000166     -0.000262      0.000847      0.000000
     60 O3    c       0.002508     -0.001154     -0.001698      0.000000
     61 O2    c      -0.000513     -0.000043      0.000845      0.000000
     62 O3    c       0.000232      0.000807     -0.001416      0.000000
     63 O2    c       0.001022     -0.000605     -0.000061      0.000000
     64 O2    c      -0.002119      0.001162      0.000099      0.000000
     65 O1    c      -0.002413      0.003686     -0.001108      0.000000
     66 O2    c       0.002938      0.000178      0.000366      0.000000
     67 O2    c      -0.000337     -0.000511      0.000256      0.000000
     68 O2    c       0.001965     -0.001556      0.000617      0.000000
     69 O3    c      -0.001123      0.002892     -0.001442      0.000000
     70 O3    c       0.015731      0.004624      0.006047      0.000000
     71 O2    c      -0.001246      0.000419      0.001537      0.000000
     72 O2    c       0.000352     -0.000173      0.000215      0.000000
     73 O3    s       0.001735      0.000811     -0.000886      0.000000
     74 O2    s      -0.001145     -0.000490     -0.000318      0.000000
     75 O2    s       0.000899     -0.000149     -0.000284      0.000000
     76 O2    s       0.000493     -0.000166      0.000920      0.000000
     77 O2    s       0.001108     -0.000043     -0.000338      0.000000
     78 O2    s       0.000252      0.000548      0.000577      0.000000
     79 O2    s       0.000838     -0.001167     -0.000142      0.000000
     80 O2    s      -0.001505      0.000276     -0.000405      0.000000
     81 O2    s      -0.000190     -0.000021      0.000244      0.000000
     82 O2    s      -0.000070      0.000467      0.000188      0.000000
     83 O2    s      -0.000715     -0.000559      0.000182      0.000000
     84 O2    s      -0.001250     -0.000034      0.000341      0.000000
     85 O2    s       0.000420      0.000097      0.000208      0.000000
     86 O2    s      -0.000254      0.000187      0.000031      0.000000
     87 O3    s       0.000669     -0.000203     -0.000785      0.000000
     88 O2    s       0.001970      0.000917     -0.000277      0.000000
     89 O2    s      -0.001218      0.000286      0.001218      0.000000
     90 O2    s       0.000130     -0.000386      0.000626      0.000000
     91 O2    s      -0.000687     -0.000026      0.000334      0.000000
     92 O2    s       0.001081      0.000893      0.001218      0.000000
     93 O3    s      -0.003682      0.001065      0.000597      0.000000
     94 O2    s      -0.001074     -0.000360     -0.000329      0.000000
     95 O2    s      -0.001336      0.000314     -0.000052      0.000000
     96 O2    s      -0.000252     -0.000065      0.000122      0.000000
     97 O3    s       0.002153     -0.000807     -0.000969      0.000000
     98 O2    s      -0.003113     -0.000408     -0.002296      0.000000
     99 O2    s       0.000852     -0.000310     -0.000504      0.000000
    100 O2    s       0.001161     -0.000418      0.000679      0.000000
    101 O3    s       0.002022      0.000585     -0.001897      0.000000
    102 O2    s      -0.000439     -0.001809     -0.002099      0.000000
    103 O2    s      -0.001609      0.000296      0.000460      0.000000
    104 O2    s      -0.001151     -0.000393     -0.000155      0.000000
    105 O3    s       0.001718      0.001447      0.000233      0.000000
    106 O2    s      -0.002800     -0.001516      0.000843      0.000000
    107 O2    s      -0.001290     -0.000637      0.000572      0.000000
    108 O3    s      -0.003718      0.000652     -0.002533      0.000000
    109 O2    s       0.002987     -0.000263     -0.001539      0.000000
    110 O3    s       0.001682      0.000033      0.000220      0.000000
    111 O2    s       0.002719     -0.001276      0.001361      0.000000
    112 O2    s      -0.003359      0.001234      0.000165      0.000000
    113 O1    s      -0.000392     -0.004671      0.001695      0.000000
    114 O2    s      -0.000539     -0.001710      0.000308      0.000000
    115 O2    s      -0.003404     -0.000473      0.001549      0.000000
    116 O2    s       0.004311     -0.000399      0.001575      0.000000
    117 O3    s       0.000686      0.000747     -0.000068      0.000000
    118 O3    s      -0.006648      0.000262     -0.001120      0.000000
    119 O2    s      -0.000778      0.001479      0.002454      0.000000
    120 O2    s      -0.000127     -0.001000      0.001670      0.000000
--------------------------------------------------------------------------------
  Maximum abs         0.016496      0.004671      0.006047      0.000000
--------------------------------------------------------------------------------


  Born effective charge tensors : 

-------------------------------------------------------------------------------
  Atom             x           y             z
-------------------------------------------------------------------------------
    1 Ge    x       3.9643      0.3474     -0.1643
            y       0.2530      4.1784     -0.2679
            z      -0.1729     -0.0538      3.4564
-------------------------------------------------------------------------------
    2 Ge    x       4.0996      0.2436     -0.1802
            y       0.2740      4.2244     -0.2484
            z      -0.3152      0.0261      3.3366
-------------------------------------------------------------------------------
    3 Ge    x       4.0098     -0.4770     -0.1696
            y      -0.0058      4.2026      0.2216
            z      -0.1936      0.0591      3.3703
-------------------------------------------------------------------------------
    4 Si    x       3.6138      0.1339     -0.0740
            y       0.2400      3.4204      0.0360
            z      -0.6476     -0.0982      3.8414
-------------------------------------------------------------------------------
    5 Si    x       3.4013     -0.0955      0.2273
            y       0.1418      3.2096     -0.0358
            z       0.5197     -0.0395      3.7474
-------------------------------------------------------------------------------
    6 Si    x       3.4549      0.1376     -0.2937
            y      -0.1146      3.2411     -0.0060
            z      -0.2836     -0.0653      3.8220
-------------------------------------------------------------------------------
    7 Si    x       3.4815      0.1240      0.1745
            y      -0.0985      3.2114      0.0034
            z       0.4602     -0.0122      3.7820
-------------------------------------------------------------------------------
    8 Si    x       3.7548      0.2544     -0.2200
            y      -0.3006      3.5728     -0.0120
            z      -0.5723     -0.1272      3.2012
-------------------------------------------------------------------------------
    9 Si    x       3.4348      0.1840      0.1243
            y      -0.2115      3.2146      0.0264
            z       0.5164      0.0739      3.0792
-------------------------------------------------------------------------------
   10 Si    x       3.4827     -0.1024     -0.2798
            y       0.1580      3.2622      0.0217
            z      -0.4924      0.0034      3.1140
-------------------------------------------------------------------------------
   11 Si    x       3.4820     -0.1337      0.2842
            y       0.1223      3.2523     -0.0196
            z       0.4476     -0.0070      3.1431
-------------------------------------------------------------------------------
   12 Si    x       3.1843      0.2978      0.1370
            y       0.1636      3.4444      0.1698
            z       0.1144      0.0743      2.8337
-------------------------------------------------------------------------------
   13 Si    x       3.2011     -0.3393     -0.0631
            y      -0.1532      3.4788      0.1412
            z      -0.1517      0.0799      2.7883
-------------------------------------------------------------------------------
   14 Si    x       3.3083     -0.3679      0.0828
            y      -0.1875      3.5775     -0.0924
            z       0.1575      0.0935      3.0400
-------------------------------------------------------------------------------
   15 Si    x       3.1991      0.2557     -0.0142
            y       0.2877      3.4560     -0.1966
            z      -0.1264     -0.0773      2.7952
-------------------------------------------------------------------------------
   16 Si    x       3.3057      0.2972     -0.0218
            y       0.3164      3.5559      0.1308
            z       0.0878     -0.0373      3.0936
-------------------------------------------------------------------------------
   17 Si    x       3.2992     -0.1636     -0.1079
            y      -0.1127      3.7385      0.0976
            z      -0.1394      0.0013      2.9013
-------------------------------------------------------------------------------
   18 Si    x       3.5157     -0.1593     -0.0319
            y      -0.2146      3.5163     -0.2075
            z       0.0490     -0.1021      2.8990
-------------------------------------------------------------------------------
   19 Si    x       3.6028      0.2168     -0.0156
            y       0.2066      3.4696      0.2020
            z       0.1183      0.0602      2.8073
-------------------------------------------------------------------------------
   20 Si    x       3.2738     -0.2706     -0.0882
            y      -0.2590      3.4149      0.1534
            z      -0.1609      0.0595      2.7179
-------------------------------------------------------------------------------
   21 Si    x       3.2915     -0.2658      0.1492
            y      -0.2428      3.4151     -0.2057
            z       0.1647     -0.0486      2.7193
-------------------------------------------------------------------------------
   22 Si    x       3.2463      0.3085     -0.1582
            y       0.1226      3.4481     -0.1921
            z      -0.1246     -0.0672      2.7441
-------------------------------------------------------------------------------
   23 Si    x       3.3224      0.3536      0.1445
            y       0.1490      3.5609      0.1240
            z       0.0873     -0.0302      3.0101
-------------------------------------------------------------------------------
   24 Si    x       3.5833     -0.4055     -0.0087
            y      -0.0710      3.4911     -0.1877
            z       0.0506     -0.0725      2.8170
-------------------------------------------------------------------------------
   25 O3    x      -2.1105     -0.9553      0.3405
            y      -1.0186     -2.3616      0.3564
            z       0.4077      0.3092     -1.5615
-------------------------------------------------------------------------------
   26 O2    x      -1.7378     -0.7252     -0.3290
            y      -0.7447     -1.9440     -0.3440
            z      -0.3666     -0.3339     -1.3563
-------------------------------------------------------------------------------
   27 O2    x      -1.7631      0.7369      0.3481
            y       0.7637     -1.9791     -0.3660
            z       0.3662     -0.3493     -1.3302
-------------------------------------------------------------------------------
   28 O2    x      -1.7721      0.7282     -0.2866
            y       0.7326     -1.9238      0.2903
            z      -0.3545      0.2969     -1.3460
-------------------------------------------------------------------------------
   29 O2    x      -1.6588     -0.7131      0.3332
            y      -0.6704     -2.0220      0.3479
            z       0.3564      0.3431     -1.3447
-------------------------------------------------------------------------------
   30 O2    x      -1.6774     -0.7308     -0.2978
            y      -0.6629     -2.0091     -0.3093
            z      -0.3576     -0.3080     -1.3413
-------------------------------------------------------------------------------
   31 O2    x      -1.7140      0.6686      0.3121
            y       0.6815     -1.8845     -0.3264
            z       0.3828     -0.2890     -1.3813
-------------------------------------------------------------------------------
   32 O2    x      -1.6135      0.6785     -0.3094
            y       0.6298     -1.9972      0.3355
            z      -0.3547      0.3370     -1.3662
-------------------------------------------------------------------------------
   33 O2    x      -1.6149     -0.0556      0.8049
            y      -0.0140     -1.0865      0.0395
            z       0.9903      0.1033     -2.7517
-------------------------------------------------------------------------------
   34 O2    x      -1.6653      0.0079     -0.8435
            y       0.0086     -1.0793      0.0236
            z      -1.0855      0.0277     -2.7162
-------------------------------------------------------------------------------
   35 O2    x      -1.6322     -0.0301     -0.7081
            y       0.0163     -1.1412      0.0017
            z      -0.6509      0.0011     -2.2916
-------------------------------------------------------------------------------
   36 O2    x      -1.6753     -0.0584      0.6626
            y      -0.0169     -1.1291      0.0588
            z       0.6573      0.0872     -2.1489
-------------------------------------------------------------------------------
   37 O2    x      -1.7814     -0.0323     -0.7272
            y      -0.0250     -1.1037     -0.0134
            z      -0.7372     -0.0246     -2.1923
-------------------------------------------------------------------------------
   38 O2    x      -1.7050     -0.0283      0.7508
            y      -0.0305     -1.1160      0.0276
            z       0.7264      0.0460     -2.2756
-------------------------------------------------------------------------------
   39 O3    x      -1.8814     -0.7927      0.3989
            y      -0.6800     -2.4828      0.4239
            z       0.4520      0.3925     -1.4186
-------------------------------------------------------------------------------
   40 O2    x      -1.6459     -0.6862     -0.2924
            y      -0.5575     -2.0408     -0.3199
            z      -0.3354     -0.3063     -1.2017
-------------------------------------------------------------------------------
   41 O2    x      -1.6942      0.7053      0.3402
            y       0.6345     -2.0266     -0.3631
            z       0.3710     -0.3471     -1.2283
-------------------------------------------------------------------------------
   42 O2    x      -1.6580      0.6998     -0.3873
            y       0.6034     -2.0086      0.4157
            z      -0.3772      0.3802     -1.2833
-------------------------------------------------------------------------------
   43 O2    x      -1.7656     -0.7193      0.3566
            y      -0.7049     -1.9254      0.3595
            z       0.3596      0.3375     -1.2587
-------------------------------------------------------------------------------
   44 O2    x      -1.7476     -0.7128     -0.3549
            y      -0.6731     -1.9239     -0.3652
            z      -0.3269     -0.3254     -1.2736
-------------------------------------------------------------------------------
   45 O3    x      -2.2941      0.8440      0.3855
            y       0.8179     -2.0797     -0.4250
            z       0.3860     -0.3655     -1.4503
-------------------------------------------------------------------------------
   46 O2    x      -1.7699      0.7022     -0.2609
            y       0.6722     -1.9131      0.3085
            z      -0.3156      0.3066     -1.2293
-------------------------------------------------------------------------------
   47 O2    x      -1.7479     -0.0171     -0.5437
            y       0.0159     -1.2281     -0.0679
            z      -0.2907     -0.0632     -1.7501
-------------------------------------------------------------------------------
   48 O2    x      -1.8005      0.0006      0.6155
            y       0.0093     -1.1839      0.0183
            z       0.3482      0.0013     -1.7123
-------------------------------------------------------------------------------
   49 O3    x      -1.3249     -0.0438      0.0801
            y      -0.0110     -3.2122      0.0915
            z       0.0971      0.1006     -1.1901
-------------------------------------------------------------------------------
   50 O2    x      -1.1580      0.0695     -0.0612
            y       0.1078     -2.5559      0.0309
            z      -0.0739      0.0261     -1.0838
-------------------------------------------------------------------------------
   51 O2    x      -1.1801     -0.0599      0.0433
            y      -0.1263     -2.5527      0.0424
            z       0.0791      0.0121     -1.0603
-------------------------------------------------------------------------------
   52 O2    x      -1.2168     -0.0655     -0.0191
            y      -0.1274     -2.6050      0.0421
            z      -0.0553      0.0469     -1.0426
-------------------------------------------------------------------------------
   53 O3    x      -3.0071     -0.1550      0.0485
            y      -0.1163     -1.3962      0.1027
            z       0.0607      0.0664     -1.2308
-------------------------------------------------------------------------------
   54 O2    x      -2.4350     -0.0380     -0.0266
            y       0.0024     -1.2317     -0.0622
            z      -0.0030     -0.0347     -1.0881
-------------------------------------------------------------------------------
   55 O2    x      -2.3971      0.1042     -0.0254
            y       0.0359     -1.2555     -0.0640
            z      -0.0469     -0.0326     -1.0844
-------------------------------------------------------------------------------
   56 O2    x      -2.3932      0.1169     -0.0378
            y       0.0744     -1.2526      0.0721
            z      -0.0239      0.0342     -1.0899
-------------------------------------------------------------------------------
   57 O3    x      -1.3307     -0.1627      0.0547
            y      -0.1187     -1.4818      0.1024
            z       0.0609      0.0556     -2.5791
-------------------------------------------------------------------------------
   58 O2    x      -1.1752     -0.1272      0.0297
            y      -0.0852     -1.2878     -0.0299
            z       0.0301     -0.0186     -2.0787
-------------------------------------------------------------------------------
   59 O2    x      -1.1768      0.1128     -0.0721
            y       0.0459     -1.2949     -0.0182
            z      -0.0323     -0.0125     -2.0793
-------------------------------------------------------------------------------
   60 O3    x      -1.3341      0.1620      0.0374
            y       0.0833     -1.4842     -0.1835
            z      -0.0102     -0.1702     -2.5656
-------------------------------------------------------------------------------
   61 O2    x      -1.1927     -0.1115     -0.0814
            y      -0.1013     -1.2878     -0.0147
            z      -0.0933      0.0037     -2.0913
-------------------------------------------------------------------------------
   62 O3    x      -1.3573     -0.1598      0.1205
            y      -0.1432     -1.4502      0.0785
            z       0.1141     -0.0002     -2.6074
-------------------------------------------------------------------------------
   63 O2    x      -1.2222      0.1277     -0.0065
            y       0.1129     -1.2720     -0.0371
            z      -0.0137     -0.0482     -2.0696
-------------------------------------------------------------------------------
   64 O2    x      -1.1955      0.1222      0.0032
            y       0.1155     -1.2907     -0.0055
            z       0.0197     -0.0088     -2.0892
-------------------------------------------------------------------------------
   65 O1    x      -1.5745     -0.1222      0.1138
            y      -0.2259     -3.2636      0.0530
            z       0.1661      0.0547     -1.2064
-------------------------------------------------------------------------------
   66 O2    x      -1.2484     -0.0867     -0.0680
            y      -0.1806     -2.4710      0.0430
            z      -0.0995      0.0209     -1.0390
-------------------------------------------------------------------------------
   67 O2    x      -1.2334      0.0496      0.0735
            y       0.0947     -2.5236      0.0321
            z       0.0966      0.0114     -1.0179
-------------------------------------------------------------------------------
   68 O2    x      -1.2413      0.0345     -0.0722
            y       0.0924     -2.5589     -0.0238
            z      -0.0868     -0.0196     -1.0060
-------------------------------------------------------------------------------
   69 O3    x      -3.0832      0.1870      0.1265
            y       0.0778     -1.3557      0.0669
            z       0.1269      0.0126     -1.2382
-------------------------------------------------------------------------------
   70 O3    x      -3.0215      0.2948      0.0922
            y       0.2245     -1.3985     -0.0828
            z       0.1234     -0.0462     -1.2293
-------------------------------------------------------------------------------
   71 O2    x      -2.4393     -0.0718     -0.0725
            y      -0.0489     -1.2509     -0.0661
            z      -0.0545     -0.0338     -1.0391
-------------------------------------------------------------------------------
   72 O2    x      -2.4485     -0.0657     -0.0213
            y      -0.0333     -1.2335      0.0668
            z      -0.0257      0.0300     -1.0441
-------------------------------------------------------------------------------




  Elastic Constant Matrix: (Units=GPa)

-------------------------------------------------------------------------------
  Indices      1         2         3         4         5         6    
-------------------------------------------------------------------------------
       1     53.2428   28.6525   24.7267   -2.1732    0.2510   -2.2381
       2     28.6525   79.5076   19.1421   -1.5799   -0.3831   -1.0699
       3     24.7267   19.1421   48.5709   -2.4434    0.2030   -1.9952
       4     -2.1732   -1.5799   -2.4434   12.8509    0.7962    0.0210
       5      0.2510   -0.3831    0.2030    0.7962   24.1510   -3.8048
       6     -2.2381   -1.0699   -1.9952    0.0210   -3.8048   25.1909
-------------------------------------------------------------------------------


  Elastic Compliance Matrix: (Units=1/GPa)

-------------------------------------------------------------------------------
  Indices      1         2         3         4         5         6    
-------------------------------------------------------------------------------
       1    0.028100 -0.007364 -0.011264  0.001713 -0.000172  0.001264
       2   -0.007364  0.015834 -0.002487  0.000209  0.000321 -0.000130
       3   -0.011264 -0.002487  0.027499  0.003021 -0.000087  0.001056
       4    0.001713  0.000209  0.003021  0.078870 -0.002650 -0.000066
       5   -0.000172  0.000321 -0.000087 -0.002650  0.042512  0.006415
       6    0.001264 -0.000130  0.001056 -0.000066  0.006415  0.040856
-------------------------------------------------------------------------------

  Mechanical properties :

-------------------------------------------------------------------------------
  Convention :                    Reuss         Voigt         Hill
-------------------------------------------------------------------------------
  Bulk  Modulus (GPa)     =      34.24512      36.26266      35.25389
  Shear Modulus (GPa)     =      17.50475      19.69189      18.59832
-------------------------------------------------------------------------------
  Velocity S-wave (km/s)  =       2.98611       3.16717       3.07797
  Velocity P-wave (km/s)  =       5.41603       5.64328       5.53082
-------------------------------------------------------------------------------
  Compressibility (1/GPa) =    0.02920124
-------------------------------------------------------------------------------
  Stress axis :                     x             y             z
-------------------------------------------------------------------------------
  Youngs Moduli (GPa)     =      35.58706      63.15455      36.36507
-------------------------------------------------------------------------------
  Poissons Ratio (x)      =                     0.46510       0.40962
  Poissons Ratio (y)      =       0.26208                     0.09046
  Poissons Ratio (z)      =       0.40086       0.15709
-------------------------------------------------------------------------------


  Piezoelectric Strain Matrix: (Units=C/m**2)

-------------------------------------------------------------------------------
  Indices      1         2         3         4         5         6    
-------------------------------------------------------------------------------
       x     0.31138  -0.05171  -0.21178   0.41400   0.32389  -0.23827
       y    -0.39349   0.53361   0.02438  -0.18724   0.66663   0.27242
       z    -0.19328   0.13065  -1.53897  -0.19259  -0.19266   0.09561
-------------------------------------------------------------------------------


  Piezoelectric Stress Matrix: (Units=10**-11 C/N)

-------------------------------------------------------------------------------
  Indices      1         2         3         4         5         6    
-------------------------------------------------------------------------------
       x     1.18687  -0.23636  -0.82314   3.16923   1.10916  -0.75077
       y    -1.53522   1.14260   0.34394  -1.70416   3.08200   1.48774
       z     1.07656   0.72056  -4.09320  -1.96394  -0.68579   0.07965
-------------------------------------------------------------------------------


  Static dielectric constant tensor : 

-------------------------------------------------------------------------------
              x         y         z
-------------------------------------------------------------------------------
       x     3.98424   0.03607  -0.02870
       y     0.03607   4.23883  -0.04001
       z    -0.02870  -0.04001   3.18703
--------------------------------------------------------------------------------

  High frequency dielectric constant tensor : 

-------------------------------------------------------------------------------
              x         y         z
-------------------------------------------------------------------------------
       x     1.68288   0.00049   0.00056
       y     0.00049   1.68860  -0.00139
       z     0.00056  -0.00139   1.62383
-------------------------------------------------------------------------------

  Static refractive indices : 

-------------------------------------------------------------------------------
    1 =    1.78454      2 =    1.99496      3 =    2.06049
-------------------------------------------------------------------------------

  High frequency refractive indices : 

-------------------------------------------------------------------------------
    1 =    1.27428      2 =    1.29725      3 =    1.29949
-------------------------------------------------------------------------------


  Time to end of optimisation =      12.8682 seconds


  Peak dynamic memory used =       5.01 MB 


  Timing analysis for GULP :

--------------------------------------------------------------------------------
  Task / Subroutine                                          Time (Seconds)
--------------------------------------------------------------------------------
  Calculation of reciprocal space energy and derivatives          0.7775
  Calculation of real space energy and derivatives                7.7996
  Calculation of three-body energy and derivatives                0.7651
  Calculation and manipulation of Hessian matrix                  3.9491
  Calculation of matrix inversion                                 0.0427
  Global summation overhead                                       0.0002
--------------------------------------------------------------------------------
  Total CPU time                                                 12.8682
--------------------------------------------------------------------------------


  Dump file written as c00239.vasp.grs
  CIF file written as c00239.vasp.cif


  Job Finished at 12:09.57  7th October    2025                               

