********************************************************************************
*                       GENERAL UTILITY LATTICE PROGRAM                        *
*                                 Julian Gale                                  *
*                       Curtin Institute for Computation                       *
*                    School of Molecular and Life Sciences                     *
*                    Curtin University, Western Australia                      *
********************************************************************************
* Version = 6.1.2 * Last modified =   3rd November 2022                        *
********************************************************************************
*  optimise     - perform optimisation run                                     *
*  conp         - constant pressure calculation                                *
*  property     - calculate properties for final geometry                      *
********************************************************************************

  Job Started  at 12:09.08  7th October    2025                               

  Number of CPUs =     1


  Total number of configurations input =      1

********************************************************************************
*  Input for Configuration =   1 : c00236.vasp                                 *
********************************************************************************

  Formula = Ge3Si21O48                                                  

  Number of irreducible atoms/shells =     120


  Total number atoms/shells =     120

  Dimensionality = 3               :  Bulk   



  Cartesian lattice vectors (Angstroms) :

       17.182800    0.000000    0.000000
        0.000000    7.513760    0.000000
        0.000000    0.000000   10.447700

  Cell parameters (Angstroms/Degrees):

  a =      17.1828    alpha =  90.0000
  b =       7.5138    beta  =  90.0000
  c =      10.4477    gamma =  90.0000

  Initial cell volume =        1348.875752 Angs**3

  Temperature of configuration =   0.00     K 

  Pressure of configuration =         0.000 GPa 

  Fractional coordinates of asymmetric unit :

--------------------------------------------------------------------------------
   No.  Atomic       x           y          z         Charge      Occupancy
        Label      (Frac)      (Frac)     (Frac)        (e)         (Frac)  
--------------------------------------------------------------------------------
      1 Ge    c    0.160190    0.293910    0.273440     4.00000    1.000000    
      2 Ge    c    0.660660 *  0.294090 *  0.017440 *   4.00000    1.000000    
      3 Ge    c    0.160660 *  0.705910 *  0.982560 *   4.00000    1.000000    
      4 Si    c    0.052090 *  0.000000 *  0.372270 *   4.00000    1.000000    
      5 Si    c    0.447910 *  0.000000 *  0.372270 *   4.00000    1.000000    
      6 Si    c    0.947910 *  0.000000 *  0.627730 *   4.00000    1.000000    
      7 Si    c    0.552090 *  0.000000 *  0.627730 *   4.00000    1.000000    
      8 Si    c    0.556730 *  0.000000 *  0.122130 *   4.00000    1.000000    
      9 Si    c    0.943270 *  0.000000 *  0.122130 *   4.00000    1.000000    
     10 Si    c    0.443270 *  0.000000 *  0.877870 *   4.00000    1.000000    
     11 Si    c    0.056730 *  0.000000 *  0.877870 *   4.00000    1.000000    
     12 Si    c    0.339810 *  0.706090 *  0.273440 *   4.00000    1.000000    
     13 Si    c    0.839810 *  0.293910 *  0.726560 *   4.00000    1.000000    
     14 Si    c    0.660190 *  0.706090 *  0.726560 *   4.00000    1.000000    
     15 Si    c    0.839810 *  0.706090 *  0.726560 *   4.00000    1.000000    
     16 Si    c    0.660190 *  0.293910 *  0.726560 *   4.00000    1.000000    
     17 Si    c    0.160190 *  0.706090 *  0.273440 *   4.00000    1.000000    
     18 Si    c    0.339810 *  0.293910 *  0.273440 *   4.00000    1.000000    
     19 Si    c    0.839340 *  0.705910 *  0.017440 *   4.00000    1.000000    
     20 Si    c    0.339340 *  0.294090 *  0.982560 *   4.00000    1.000000    
     21 Si    c    0.339340 *  0.705910 *  0.982560 *   4.00000    1.000000    
     22 Si    c    0.160660 *  0.294090 *  0.982560 *   4.00000    1.000000    
     23 Si    c    0.660660 *  0.705910 *  0.017440 *   4.00000    1.000000    
     24 Si    c    0.839340 *  0.294090 *  0.017440 *   4.00000    1.000000    
     25 O3    c    0.106570 *  0.174340 *  0.366200 *   1.33043    1.000000    
     26 O2    c    0.393430 *  0.825660 *  0.366200 *   0.87073    1.000000    
     27 O2    c    0.893430 *  0.174340 *  0.633800 *   0.87073    1.000000    
     28 O2    c    0.606570 *  0.825660 *  0.633800 *   0.87073    1.000000    
     29 O2    c    0.893430 *  0.825660 *  0.633800 *   0.87073    1.000000    
     30 O2    c    0.606570 *  0.174340 *  0.633800 *   0.87073    1.000000    
     31 O2    c    0.106570 *  0.825660 *  0.366200 *   0.87073    1.000000    
     32 O2    c    0.393430 *  0.174340 *  0.366200 *   0.87073    1.000000    
     33 O2    c    0.000000 *  0.000000 *  0.500000 *   0.87073    1.000000    
     34 O2    c    0.500000 *  0.000000 *  0.500000 *   0.87073    1.000000    
     35 O2    c    0.994520 *  0.000000 *  0.250840 *   0.87073    1.000000    
     36 O2    c    0.505480 *  0.000000 *  0.250840 *   0.87073    1.000000    
     37 O2    c    0.005480 *  0.000000 *  0.749160 *   0.87073    1.000000    
     38 O2    c    0.494520 *  0.000000 *  0.749160 *   0.87073    1.000000    
     39 O3    c    0.610230 *  0.175520 *  0.115390 *   1.33043    1.000000    
     40 O2    c    0.889770 *  0.824480 *  0.115390 *   0.87073    1.000000    
     41 O2    c    0.389770 *  0.175520 *  0.884610 *   0.87073    1.000000    
     42 O3    c    0.110230 *  0.824480 *  0.884610 *   1.33043    1.000000    
     43 O2    c    0.389770 *  0.824480 *  0.884610 *   0.87073    1.000000    
     44 O2    c    0.110230 *  0.175520 *  0.884610 *   0.87073    1.000000    
     45 O2    c    0.610230 *  0.824480 *  0.115390 *   0.87073    1.000000    
     46 O2    c    0.889770 *  0.175520 *  0.115390 *   0.87073    1.000000    
     47 O2    c    0.500000 *  0.000000 *  0.000000 *   0.87073    1.000000    
     48 O2    c    0.000000 *  0.000000 *  0.000000 *   0.87073    1.000000    
     49 O3    c    0.151750 *  0.500000 *  0.313330 *   1.33043    1.000000    
     50 O2    c    0.348250 *  0.500000 *  0.313330 *   0.87073    1.000000    
     51 O2    c    0.848250 *  0.500000 *  0.686670 *   0.87073    1.000000    
     52 O2    c    0.651750 *  0.500000 *  0.686670 *   0.87073    1.000000    
     53 O3    c    0.250000 *  0.234950 *  0.285720 *   1.33043    1.000000    
     54 O2    c    0.250000 *  0.765050 *  0.285720 *   0.87073    1.000000    
     55 O2    c    0.750000 *  0.234950 *  0.714280 *   0.87073    1.000000    
     56 O2    c    0.750000 *  0.765050 *  0.714280 *   0.87073    1.000000    
     57 O3    c    0.131410 *  0.268650 *  0.127790 *   1.33043    1.000000    
     58 O2    c    0.368590 *  0.731350 *  0.127790 *   0.87073    1.000000    
     59 O2    c    0.868590 *  0.268650 *  0.872210 *   0.87073    1.000000    
     60 O2    c    0.631410 *  0.731350 *  0.872210 *   0.87073    1.000000    
     61 O2    c    0.868590 *  0.731350 *  0.872210 *   0.87073    1.000000    
     62 O3    c    0.631410 *  0.268650 *  0.872210 *   1.33043    1.000000    
     63 O3    c    0.131410 *  0.731350 *  0.127790 *   1.33043    1.000000    
     64 O2    c    0.368590 *  0.268650 *  0.127790 *   0.87073    1.000000    
     65 O3    c    0.653920 *  0.500000 *  0.058200 *   1.33043    1.000000    
     66 O2    c    0.846080 *  0.500000 *  0.058200 *   0.87073    1.000000    
     67 O2    c    0.346080 *  0.500000 *  0.941800 *   0.87073    1.000000    
     68 O3    c    0.153920 *  0.500000 *  0.941800 *   1.33043    1.000000    
     69 O3    c    0.750000 *  0.231060 *  0.027050 *   1.33043    1.000000    
     70 O2    c    0.750000 *  0.768940 *  0.027050 *   0.87073    1.000000    
     71 O2    c    0.250000 *  0.231060 *  0.972950 *   0.87073    1.000000    
     72 O3    c    0.250000 *  0.768940 *  0.972950 *   1.33043    1.000000    
     73 O3    s    0.106570 *  0.174340 *  0.366200 *  -3.33043    1.000000    
     74 O2    s    0.393430 *  0.825660 *  0.366200 *  -2.87073    1.000000    
     75 O2    s    0.893430 *  0.174340 *  0.633800 *  -2.87073    1.000000    
     76 O2    s    0.606570 *  0.825660 *  0.633800 *  -2.87073    1.000000    
     77 O2    s    0.893430 *  0.825660 *  0.633800 *  -2.87073    1.000000    
     78 O2    s    0.606570 *  0.174340 *  0.633800 *  -2.87073    1.000000    
     79 O2    s    0.106570 *  0.825660 *  0.366200 *  -2.87073    1.000000    
     80 O2    s    0.393430 *  0.174340 *  0.366200 *  -2.87073    1.000000    
     81 O2    s    0.000000 *  0.000000 *  0.500000 *  -2.87073    1.000000    
     82 O2    s    0.500000 *  0.000000 *  0.500000 *  -2.87073    1.000000    
     83 O2    s    0.994520 *  0.000000 *  0.250840 *  -2.87073    1.000000    
     84 O2    s    0.505480 *  0.000000 *  0.250840 *  -2.87073    1.000000    
     85 O2    s    0.005480 *  0.000000 *  0.749160 *  -2.87073    1.000000    
     86 O2    s    0.494520 *  0.000000 *  0.749160 *  -2.87073    1.000000    
     87 O3    s    0.610230 *  0.175520 *  0.115390 *  -3.33043    1.000000    
     88 O2    s    0.889770 *  0.824480 *  0.115390 *  -2.87073    1.000000    
     89 O2    s    0.389770 *  0.175520 *  0.884610 *  -2.87073    1.000000    
     90 O3    s    0.110230 *  0.824480 *  0.884610 *  -3.33043    1.000000    
     91 O2    s    0.389770 *  0.824480 *  0.884610 *  -2.87073    1.000000    
     92 O2    s    0.110230 *  0.175520 *  0.884610 *  -2.87073    1.000000    
     93 O2    s    0.610230 *  0.824480 *  0.115390 *  -2.87073    1.000000    
     94 O2    s    0.889770 *  0.175520 *  0.115390 *  -2.87073    1.000000    
     95 O2    s    0.500000 *  0.000000 *  0.000000 *  -2.87073    1.000000    
     96 O2    s    0.000000 *  0.000000 *  0.000000 *  -2.87073    1.000000    
     97 O3    s    0.151750 *  0.500000 *  0.313330 *  -3.33043    1.000000    
     98 O2    s    0.348250 *  0.500000 *  0.313330 *  -2.87073    1.000000    
     99 O2    s    0.848250 *  0.500000 *  0.686670 *  -2.87073    1.000000    
    100 O2    s    0.651750 *  0.500000 *  0.686670 *  -2.87073    1.000000    
    101 O3    s    0.250000 *  0.234950 *  0.285720 *  -3.33043    1.000000    
    102 O2    s    0.250000 *  0.765050 *  0.285720 *  -2.87073    1.000000    
    103 O2    s    0.750000 *  0.234950 *  0.714280 *  -2.87073    1.000000    
    104 O2    s    0.750000 *  0.765050 *  0.714280 *  -2.87073    1.000000    
    105 O3    s    0.131410 *  0.268650 *  0.127790 *  -3.33043    1.000000    
    106 O2    s    0.368590 *  0.731350 *  0.127790 *  -2.87073    1.000000    
    107 O2    s    0.868590 *  0.268650 *  0.872210 *  -2.87073    1.000000    
    108 O2    s    0.631410 *  0.731350 *  0.872210 *  -2.87073    1.000000    
    109 O2    s    0.868590 *  0.731350 *  0.872210 *  -2.87073    1.000000    
    110 O3    s    0.631410 *  0.268650 *  0.872210 *  -3.33043    1.000000    
    111 O3    s    0.131410 *  0.731350 *  0.127790 *  -3.33043    1.000000    
    112 O2    s    0.368590 *  0.268650 *  0.127790 *  -2.87073    1.000000    
    113 O3    s    0.653920 *  0.500000 *  0.058200 *  -3.33043    1.000000    
    114 O2    s    0.846080 *  0.500000 *  0.058200 *  -2.87073    1.000000    
    115 O2    s    0.346080 *  0.500000 *  0.941800 *  -2.87073    1.000000    
    116 O3    s    0.153920 *  0.500000 *  0.941800 *  -3.33043    1.000000    
    117 O3    s    0.750000 *  0.231060 *  0.027050 *  -3.33043    1.000000    
    118 O2    s    0.750000 *  0.768940 *  0.027050 *  -2.87073    1.000000    
    119 O2    s    0.250000 *  0.231060 *  0.972950 *  -2.87073    1.000000    
    120 O3    s    0.250000 *  0.768940 *  0.972950 *  -3.33043    1.000000    
--------------------------------------------------------------------------------



********************************************************************************
*  General input information                                                   *
********************************************************************************

  Species output for all configurations : 

--------------------------------------------------------------------------------
  Species    Type    Atomic    Atomic    Charge       Radii (Angs)     Library
                     Number     Mass       (e)     Cova   Ionic  VDW   Symbol
--------------------------------------------------------------------------------
    Ge       Core       32      72.61   4.000000   1.170  0.000  1.750 Ge       
    Si       Core       14      28.09   4.000000   1.200  0.000  2.100 Si       
    O1       Core        8      16.00   1.733957   0.730  0.000  0.000 O1       
    O2       Core        8      16.00   0.870733   0.730  0.000  1.360 O2       
    O3       Core        8      16.00   1.330431   0.730  0.000  1.360 O3       
    O1       Shell       8       0.00  -3.733957   0.730  0.000  0.000 O1       
    O2       Shell       8       0.00  -2.870733   0.730  0.000  0.000 O2       
    O3       Shell       8       0.00  -3.330431   0.730  0.000  0.000 O3       
--------------------------------------------------------------------------------


  Lattice summation method               =    Ewald          (3-D)
                                         =    Parry          (2-D)
                                         =    Saunders et al (1-D)
  Accuracy factor for lattice sums       =   12.000


  Analytic derivatives to be used

  Time limit = Infinity

  Maximum range for interatomic potentials =    100000.000000 Angstroms

  General interatomic potentials :

--------------------------------------------------------------------------------
Atom  Types   Potential      Parameter       Value         Units   Cutoffs(Ang)
  1     2                                                            Min /  Max 
--------------------------------------------------------------------------------
Si   c O1   s Buckingham    Buckingham A     1315.2478    eV        0.000 16.000
                            Buckingham rho  0.31775900    Ang       
                            Buckingham C     10.141118    eV*Ang^6  
--------------------------------------------------------------------------------
Si   c O2   s Buckingham    Buckingham A     1315.2478    eV        0.000 16.000
                            Buckingham rho  0.31775900    Ang       
                            Buckingham C     10.141118    eV*Ang^6  
--------------------------------------------------------------------------------
Si   c O3   s Buckingham    Buckingham A     1315.2478    eV        0.000 16.000
                            Buckingham rho  0.31775900    Ang       
                            Buckingham C     10.141118    eV*Ang^6  
--------------------------------------------------------------------------------
Ge   c O1   s Buckingham    Buckingham A     1497.3996    eV        0.000 16.000
                            Buckingham rho  0.32564600    Ang       
                            Buckingham C     16.808599    eV*Ang^6  
--------------------------------------------------------------------------------
Ge   c O2   s Buckingham    Buckingham A     1497.3996    eV        0.000 16.000
                            Buckingham rho  0.32564600    Ang       
                            Buckingham C     16.808599    eV*Ang^6  
--------------------------------------------------------------------------------
Ge   c O3   s Buckingham    Buckingham A     1497.3996    eV        0.000 16.000
                            Buckingham rho  0.32564600    Ang       
                            Buckingham C     16.808599    eV*Ang^6  
--------------------------------------------------------------------------------
O1   s O1   s Buckingham    Buckingham A     22764.000    eV        0.000 16.000
                            Buckingham rho  0.14900000    Ang       
                            Buckingham C     10.937044    eV*Ang^6  
--------------------------------------------------------------------------------
O1   s O2   s Buckingham    Buckingham A     22764.000    eV        0.000 16.000
                            Buckingham rho  0.14900000    Ang       
                            Buckingham C     10.937044    eV*Ang^6  
--------------------------------------------------------------------------------
O1   s O3   s Buckingham    Buckingham A     22764.000    eV        0.000 16.000
                            Buckingham rho  0.14900000    Ang       
                            Buckingham C     10.937044    eV*Ang^6  
--------------------------------------------------------------------------------
O2   s O2   s Buckingham    Buckingham A     22764.000    eV        0.000 16.000
                            Buckingham rho  0.14900000    Ang       
                            Buckingham C     10.937044    eV*Ang^6  
--------------------------------------------------------------------------------
O2   s O3   s Buckingham    Buckingham A     22764.000    eV        0.000 16.000
                            Buckingham rho  0.14900000    Ang       
                            Buckingham C     10.937044    eV*Ang^6  
--------------------------------------------------------------------------------
O3   s O3   s Buckingham    Buckingham A     22764.000    eV        0.000 16.000
                            Buckingham rho  0.14900000    Ang       
                            Buckingham C     10.937044    eV*Ang^6  
--------------------------------------------------------------------------------
O1   c O1   s Spring (c-s)  Spring k 2       180.31577    eV*Ang^-2 0.000  0.800
                            Spring k 4       0.0000000    eV*Ang^-4 
--------------------------------------------------------------------------------
O2   c O2   s Spring (c-s)  Spring k 2       75.969800    eV*Ang^-2 0.000  0.800
                            Spring k 4       0.0000000    eV*Ang^-4 
--------------------------------------------------------------------------------
O3   c O3   s Spring (c-s)  Spring k 2       128.14270    eV*Ang^-2 0.000  0.800
                            Spring k 4       0.0000000    eV*Ang^-4 
--------------------------------------------------------------------------------

  General Three-body potentials :

--------------------------------------------------------------------------------
  Atoms       Potential      Parameter       Value         Units   Cutoffs(Ang)
  1 / 2 / 3                                                          Min /  Max 
--------------------------------------------------------------------------------
Si    core    Harmonic      Three-body cnst  1.2614000    eV*rad^-2 0.000  1.900
O1    shel                  Three-body angl  109.47000    degrees   0.000  1.900
O1    shel                  Three-body k4    0.0000000    eV*rad^-4 0.000  3.500
                            Three-body k3    0.0000000    eV*rad^-3 
--------------------------------------------------------------------------------
Si    core    Harmonic      Three-body cnst  1.2614000    eV*rad^-2 0.000  1.900
O1    shel                  Three-body angl  109.47000    degrees   0.000  1.900
õ(1   shel                  Three-body k4    0.0000000    eV*rad^-4 0.000  3.500
                            Three-body k3    0.0000000    eV*rad^-3 
--------------------------------------------------------------------------------
Si    core    Harmonic      Three-body cnst  1.2614000    eV*rad^-2 0.000  1.900
õ(1   shel                  Three-body angl  109.47000    degrees   0.000  1.900
õ(1   shel                  Three-body k4    0.0000000    eV*rad^-4 0.000  3.500
                            Three-body k3    0.0000000    eV*rad^-3 
--------------------------------------------------------------------------------
Si    core    Harmonic      Three-body cnst  1.2614000    eV*rad^-2 0.000  1.900
O1    shel                  Three-body angl  109.47000    degrees   0.000  1.900
O2    shel                  Three-body k4    0.0000000    eV*rad^-4 0.000  3.500
                            Three-body k3    0.0000000    eV*rad^-3 
--------------------------------------------------------------------------------
Si    core    Harmonic      Three-body cnst  1.2614000    eV*rad^-2 0.000  1.900
O1    shel                  Three-body angl  109.47000    degrees   0.000  1.900
õ(2   shel                  Three-body k4    0.0000000    eV*rad^-4 0.000  3.500
                            Three-body k3    0.0000000    eV*rad^-3 
--------------------------------------------------------------------------------
Si    core    Harmonic      Three-body cnst  1.2614000    eV*rad^-2 0.000  1.900
O2    shel                  Three-body angl  109.47000    degrees   0.000  1.900
õ(1   shel                  Three-body k4    0.0000000    eV*rad^-4 0.000  3.500
                            Three-body k3    0.0000000    eV*rad^-3 
--------------------------------------------------------------------------------
Si    core    Harmonic      Three-body cnst  1.2614000    eV*rad^-2 0.000  1.900
õ(1   shel                  Three-body angl  109.47000    degrees   0.000  1.900
õ(2   shel                  Three-body k4    0.0000000    eV*rad^-4 0.000  3.500
                            Three-body k3    0.0000000    eV*rad^-3 
--------------------------------------------------------------------------------
Si    core    Harmonic      Three-body cnst  1.2614000    eV*rad^-2 0.000  1.900
O2    shel                  Three-body angl  109.47000    degrees   0.000  1.900
O2    shel                  Three-body k4    0.0000000    eV*rad^-4 0.000  3.500
                            Three-body k3    0.0000000    eV*rad^-3 
--------------------------------------------------------------------------------
Si    core    Harmonic      Three-body cnst  1.2614000    eV*rad^-2 0.000  1.900
O2    shel                  Three-body angl  109.47000    degrees   0.000  1.900
õ(2   shel                  Three-body k4    0.0000000    eV*rad^-4 0.000  3.500
                            Three-body k3    0.0000000    eV*rad^-3 
--------------------------------------------------------------------------------
Si    core    Harmonic      Three-body cnst  1.2614000    eV*rad^-2 0.000  1.900
õ(2   shel                  Three-body angl  109.47000    degrees   0.000  1.900
õ(2   shel                  Three-body k4    0.0000000    eV*rad^-4 0.000  3.500
                            Three-body k3    0.0000000    eV*rad^-3 
--------------------------------------------------------------------------------

********************************************************************************
*  Output for configuration   1 : c00236.vasp                                  *
********************************************************************************


  Components of energy : 

--------------------------------------------------------------------------------
  Interatomic potentials     =         760.31794850 eV    
  Three-body potentials      =           0.01446504 eV    
  Monopole - monopole (real) =       -2676.00317478 eV    
  Monopole - monopole (recip)=       -1115.35404472 eV    
  Monopole - monopole (total)=       -3791.35721950 eV    
--------------------------------------------------------------------------------
  Total lattice energy       =       -3031.02480596 eV    
--------------------------------------------------------------------------------
  Total lattice energy       =         -292447.5603 kJ/(mole unit cells)
--------------------------------------------------------------------------------


  Number of variables =      363

  Maximum number of calculations  =          1000
  Maximum Hessian update interval =            10
  Maximum step size               =   0.100000000
  Maximum parameter tolerance     =   0.000010000
  Maximum function  tolerance     =   0.000010000
  Maximum gradient  tolerance     =   0.001000000
  Maximum gradient  component     =   0.010000000

  Symmetry not applied to optimisation

  Cell parameters to be optimised using strains

  Newton-Raphson optimiser to be used

  BFGS hessian update to be used

  Lower half triangular hessian to be used

  Minimiser to switch to RFO
  When gradient norm is less than     0.050000

  Dumpfile to be written after every cycle

  Start of bulk optimisation :

  Cycle:      0 Energy:     -3031.024806  Gnorm:      4.457162  CPU:    0.122
  ** Hessian calculated **
  Cycle:      1 Energy:     -3042.751276  Gnorm:      3.659747  CPU:    0.315
  ** Hessian calculated **
  Cycle:      2 Energy:     -3063.446022  Gnorm:      0.802096  CPU:    0.521
  ** Hessian calculated **
  Cycle:      3 Energy:     -3065.196300  Gnorm:      0.471088  CPU:    0.731
  Cycle:      4 Energy:     -3065.848248  Gnorm:      0.314013  CPU:    0.838
  Cycle:      5 Energy:     -3066.385134  Gnorm:      0.237564  CPU:    0.964
  Cycle:      6 Energy:     -3066.820118  Gnorm:      0.187684  CPU:    1.092
  Cycle:      7 Energy:     -3067.090042  Gnorm:      0.157120  CPU:    1.200
  Cycle:      8 Energy:     -3067.253206  Gnorm:      0.113020  CPU:    1.307
  Cycle:      9 Energy:     -3067.330688  Gnorm:      0.072533  CPU:    1.413
  Cycle:     10 Energy:     -3067.373552  Gnorm:      0.054164  CPU:    1.539
  Cycle:     11 Energy:     -3067.402878  Gnorm:      0.050688  CPU:    1.664
  Cycle:     12 Energy:     -3067.427386  Gnorm:      0.050024  CPU:    1.770
  ** Hessian calculated **
  Cycle:     13 Energy:     -3067.444206  Gnorm:      0.049340  CPU:    1.994
  ** Hessian has wrong structure
  ** Imaginary eigenvectors =   3
  Cycle:     14 Energy:     -3067.444801  Gnorm:      0.056099  CPU:    2.312
  ** Hessian has wrong structure
  ** Imaginary eigenvectors =   3
  Cycle:     15 Energy:     -3067.451025  Gnorm:      0.056010  CPU:    2.830
  ** Hessian has wrong structure
  ** Imaginary eigenvectors =   3
  ** Hessian has wrong structure
  ** Imaginary eigenvectors =   3
  Cycle:     16 Energy:     -3067.459184  Gnorm:      0.055666  CPU:    3.472
  ** Hessian has wrong structure
  ** Imaginary eigenvectors =   2
  ** Hessian has wrong structure
  ** Imaginary eigenvectors =   1
  Cycle:     17 Energy:     -3067.464536  Gnorm:      0.055445  CPU:    4.125
  ** Hessian has wrong structure
  ** Imaginary eigenvectors =   1
  Cycle:     18 Energy:     -3067.687243  Gnorm:      0.043767  CPU:    4.583
  ** Hessian has wrong structure
  ** Imaginary eigenvectors =   1
  Cycle:     19 Energy:     -3067.844398  Gnorm:      0.040252  CPU:    5.016
  ** Hessian has required structure
  Cycle:     20 Energy:     -3068.019894  Gnorm:      0.024872  CPU:    5.308
  ** Hessian has required structure
  Cycle:     21 Energy:     -3068.082571  Gnorm:      0.022603  CPU:    5.507
  ** Hessian has required structure
  Cycle:     22 Energy:     -3068.116219  Gnorm:      0.018521  CPU:    5.708
  ** Hessian has required structure
  Cycle:     23 Energy:     -3068.140458  Gnorm:      0.020897  CPU:    5.902
  ** Hessian has required structure
  Cycle:     24 Energy:     -3068.168371  Gnorm:      0.019667  CPU:    6.136
  ** Hessian has required structure
  Cycle:     25 Energy:     -3068.187619  Gnorm:      0.029826  CPU:    6.354
  ** Hessian has required structure
  Cycle:     26 Energy:     -3068.211825  Gnorm:      0.028582  CPU:    6.547
  ** Hessian has required structure
  Cycle:     27 Energy:     -3068.230536  Gnorm:      0.032668  CPU:    6.717
  ** Hessian has required structure
  Cycle:     28 Energy:     -3068.249869  Gnorm:      0.026251  CPU:    6.909
  ** Hessian has required structure
  Cycle:     29 Energy:     -3068.267557  Gnorm:      0.021594  CPU:    7.123
  ** Hessian has required structure
  Cycle:     30 Energy:     -3068.295509  Gnorm:      0.015211  CPU:    7.441
  ** Hessian has required structure
  Cycle:     31 Energy:     -3068.308240  Gnorm:      0.009919  CPU:    7.633
  ** Hessian has required structure
  Cycle:     32 Energy:     -3068.312177  Gnorm:      0.005536  CPU:    7.826
  ** Hessian has required structure
  Cycle:     33 Energy:     -3068.313573  Gnorm:      0.003902  CPU:    8.017
  ** Hessian has required structure
  Cycle:     34 Energy:     -3068.314112  Gnorm:      0.001744  CPU:    8.206
  ** Hessian has required structure
  Cycle:     35 Energy:     -3068.314291  Gnorm:      0.001108  CPU:    8.395
  ** Hessian has required structure
  Cycle:     36 Energy:     -3068.314339  Gnorm:      0.000662  CPU:    8.584
  ** Hessian has required structure
  Cycle:     37 Energy:     -3068.314362  Gnorm:      0.000255  CPU:    8.796
  ** Hessian has required structure
  Cycle:     38 Energy:     -3068.314366  Gnorm:      0.000170  CPU:    8.984
  ** Hessian has required structure
  Cycle:     39 Energy:     -3068.314367  Gnorm:      0.000113  CPU:    9.151
  ** Hessian has required structure
  Cycle:     40 Energy:     -3068.314367  Gnorm:      0.000079  CPU:    9.421
  ** Hessian has required structure


  **** Optimisation achieved ****


  Final energy =   -3068.31436738 eV      
  Final Gnorm  =       0.00005571

  Components of energy : 

--------------------------------------------------------------------------------
  Interatomic potentials     =         815.91563964 eV    
  Three-body potentials      =           0.19475495 eV    
  Monopole - monopole (real) =       -2206.29236834 eV    
  Monopole - monopole (recip)=       -1678.13239363 eV    
  Monopole - monopole (total)=       -3884.42476197 eV    
--------------------------------------------------------------------------------
  Total lattice energy       =       -3068.31436738 eV    
--------------------------------------------------------------------------------
  Total lattice energy       =         -296045.4330 kJ/(mole unit cells)
--------------------------------------------------------------------------------

  Final fractional coordinates of atoms :

--------------------------------------------------------------------------------
   No.  Atomic        x           y          z          Radius
        Label       (Frac)      (Frac)     (Frac)       (Angs) 
--------------------------------------------------------------------------------
     1  Ge    c     0.160190    0.293910    0.273440    0.000000
     2  Ge    c     0.680266    0.260473    0.019564    0.000000
     3  Ge    c     0.180453    0.693563    0.959364    0.000000
     4  Si    c     0.055422    0.989712    0.359229    0.000000
     5  Si    c     0.458650    0.971143    0.365564    0.000000
     6  Si    c     0.955586    0.979813    0.615481    0.000000
     7  Si    c     0.556299    0.970791    0.627077    0.000000
     8  Si    c     0.570723    0.977087    0.121017    0.000000
     9  Si    c     0.960474    0.977732    0.096658    0.000000
    10  Si    c     0.457807    0.970620    0.883946    0.000000
    11  Si    c     0.070620    0.976607    0.858112    0.000000
    12  Si    c     0.353569    0.665862    0.276581    0.000000
    13  Si    c     0.851394    0.287888    0.700456    0.000000
    14  Si    c     0.661875    0.667303    0.715080    0.000000
    15  Si    c     0.842722    0.688668    0.704647    0.000000
    16  Si    c     0.671740    0.260889    0.711936    0.000000
    17  Si    c     0.173495    0.706550    0.265365    0.000000
    18  Si    c     0.344212    0.265697    0.281937    0.000000
    19  Si    c     0.847327    0.689590    0.006891    0.000000
    20  Si    c     0.344366    0.259210    0.977917    0.000000
    21  Si    c     0.363461    0.653316    0.972670    0.000000
    22  Si    c     0.161759    0.288608    0.968694    0.000000
    23  Si    c     0.664745    0.664363    0.015401    0.000000
    24  Si    c     0.863407    0.293704    0.005246    0.000000
    25  O3    c     0.094545    0.179448    0.365811    0.000000
    26  O2    c     0.410033    0.790905    0.360178    0.000000
    27  O2    c     0.909010    0.164489    0.616469    0.000000
    28  O2    c     0.603060    0.786147    0.632070    0.000000
    29  O2    c     0.893419    0.821643    0.621088    0.000000
    30  O2    c     0.617059    0.132294    0.627127    0.000000
    31  O2    c     0.125267    0.846226    0.352055    0.000000
    32  O2    c     0.399333    0.135790    0.362430    0.000000
    33  O2    c     0.003629    0.957113    0.484757    0.000000
    34  O2    c     0.507336    0.977400    0.496461    0.000000
    35  O2    c     0.998458    0.968565    0.236578    0.000000
    36  O2    c     0.518656    0.979734    0.247662    0.000000
    37  O2    c     0.015897    0.973588    0.733709    0.000000
    38  O2    c     0.495345    0.989374    0.744070    0.000000
    39  O3    c     0.636667    0.124094    0.127926    0.000000
    40  O2    c     0.890077    0.837206    0.092353    0.000000
    41  O2    c     0.385447    0.107017    0.893749    0.000000
    42  O3    c     0.137330    0.829859    0.848564    0.000000
    43  O2    c     0.428127    0.771376    0.901679    0.000000
    44  O2    c     0.109896    0.167982    0.872432    0.000000
    45  O2    c     0.612104    0.787654    0.107025    0.000000
    46  O2    c     0.928862    0.174792    0.073969    0.000000
    47  O2    c     0.519986    0.024429    0.994044    0.000000
    48  O2    c     0.022571    0.923456    0.986624    0.000000
    49  O3    c     0.138290    0.514195    0.280822    0.000000
    50  O2    c     0.375048    0.464147    0.305074    0.000000
    51  O2    c     0.871338    0.490523    0.672742    0.000000
    52  O2    c     0.642449    0.461742    0.696211    0.000000
    53  O3    c     0.254812    0.253612    0.326655    0.000000
    54  O2    c     0.263588    0.702781    0.316164    0.000000
    55  O2    c     0.761508    0.246940    0.661742    0.000000
    56  O2    c     0.750737    0.706674    0.669846    0.000000
    57  O3    c     0.148867    0.224538    0.114286    0.000000
    58  O2    c     0.364113    0.705461    0.124819    0.000000
    59  O2    c     0.863259    0.248696    0.852001    0.000000
    60  O2    c     0.651340    0.719593    0.866055    0.000000
    61  O2    c     0.854932    0.736284    0.855757    0.000000
    62  O3    c     0.668552    0.199592    0.859311    0.000000
    63  O3    c     0.172509    0.767554    0.117483    0.000000
    64  O2    c     0.348396    0.213498    0.129721    0.000000
    65  O3    c     0.640539    0.467460    0.039041    0.000000
    66  O2    c     0.885451    0.497981    0.030576    0.000000
    67  O2    c     0.385611    0.447193    0.953649    0.000000
    68  O3    c     0.137842    0.488564    0.950639    0.000000
    69  O3    c     0.778355    0.256638    0.060939    0.000000
    70  O2    c     0.756756    0.687231    0.049245    0.000000
    71  O2    c     0.254143    0.270104    0.933780    0.000000
    72  O3    c     0.278083    0.686744    0.915391    0.000000
    73  O3    s     0.096041    0.169927    0.357589    0.000000
    74  O2    s     0.408996    0.796540    0.351387    0.000000
    75  O2    s     0.907629    0.158384    0.625628    0.000000
    76  O2    s     0.604633    0.792531    0.640760    0.000000
    77  O2    s     0.894420    0.823791    0.629961    0.000000
    78  O2    s     0.616571    0.129117    0.636481    0.000000
    79  O2    s     0.123101    0.846236    0.343312    0.000000
    80  O2    s     0.399612    0.132323    0.353786    0.000000
    81  O2    s     0.003975    0.963609    0.485648    0.000000
    82  O2    s     0.507353    0.975857    0.496370    0.000000
    83  O2    s     0.000387    0.972021    0.233751    0.000000
    84  O2    s     0.517966    0.978457    0.246055    0.000000
    85  O2    s     0.015440    0.974636    0.734873    0.000000
    86  O2    s     0.497881    0.985069    0.747195    0.000000
    87  O3    s     0.633593    0.120640    0.118051    0.000000
    88  O2    s     0.892825    0.835751    0.083126    0.000000
    89  O2    s     0.388632    0.109282    0.902165    0.000000
    90  O3    s     0.134126    0.833389    0.858670    0.000000
    91  O2    s     0.424293    0.779606    0.907513    0.000000
    92  O2    s     0.111274    0.160644    0.881268    0.000000
    93  O2    s     0.613512    0.794268    0.098244    0.000000
    94  O2    s     0.925050    0.166951    0.068781    0.000000
    95  O2    s     0.518561    0.013620    0.995415    0.000000
    96  O2    s     0.020805    0.934785    0.985303    0.000000
    97  O3    s     0.143626    0.515316    0.278696    0.000000
    98  O2    s     0.369517    0.465031    0.299571    0.000000
    99  O2    s     0.866170    0.489892    0.679076    0.000000
   100  O2    s     0.647624    0.462681    0.699888    0.000000
   101  O3    s     0.256220    0.258062    0.317899    0.000000
   102  O2    s     0.263906    0.699142    0.306635    0.000000
   103  O2    s     0.761686    0.252866    0.671126    0.000000
   104  O2    s     0.751184    0.700500    0.678376    0.000000
   105  O3    s     0.150996    0.236217    0.112700    0.000000
   106  O2    s     0.362924    0.695751    0.125022    0.000000
   107  O2    s     0.862005    0.257659    0.851906    0.000000
   108  O2    s     0.653835    0.708467    0.865605    0.000000
   109  O2    s     0.852802    0.726215    0.855718    0.000000
   110  O3    s     0.669820    0.210605    0.857737    0.000000
   111  O3    s     0.173244    0.755632    0.119211    0.000000
   112  O2    s     0.347535    0.223824    0.129469    0.000000
   113  O3    s     0.646317    0.471290    0.034983    0.000000
   114  O2    s     0.879217    0.496907    0.025475    0.000000
   115  O2    s     0.379134    0.448926    0.958108    0.000000
   116  O3    s     0.143699    0.484615    0.953162    0.000000
   117  O3    s     0.779144    0.260799    0.051773    0.000000
   118  O2    s     0.756915    0.684976    0.040936    0.000000
   119  O2    s     0.254412    0.270943    0.942280    0.000000
   120  O3    s     0.278923    0.683841    0.924862    0.000000
--------------------------------------------------------------------------------

  Final Cartesian lattice vectors (Angstroms) :

       17.025196    0.037863   -0.018868
        0.016948    7.627223   -0.051972
       -0.011413   -0.074407   10.315236


  Final cell parameters and derivatives :

--------------------------------------------------------------------------------
       a           17.025249 Angstrom     dE/de1(xx)     0.004650 eV/strain
       b            7.627419 Angstrom     dE/de2(yy)     0.004564 eV/strain
       c           10.315511 Angstrom     dE/de3(zz)     0.008032 eV/strain
       alpha       90.803832 Degrees      dE/de4(yz)    -0.000249 eV/strain
       beta        90.127805 Degrees      dE/de5(xz)    -0.000008 eV/strain
       gamma       89.744839 Degrees      dE/de6(xy)    -0.000112 eV/strain
--------------------------------------------------------------------------------

  Primitive cell volume =          1339.410564 Angs**3

  Density of cell =      1.953536 g/cm**3

  Non-primitive cell volume =          1339.410564 Angs**3


  Final internal derivatives :

--------------------------------------------------------------------------------
   No.  Atomic          a             b             c           Radius
        Label          (eV)          (eV)          (eV)        (eV/Angs)
--------------------------------------------------------------------------------
      1 Ge    c       0.000000      0.000000      0.000000      0.000000
      2 Ge    c      -0.000333     -0.000488      0.000100      0.000000
      3 Ge    c       0.001125      0.000662     -0.001508      0.000000
      4 Si    c       0.000537      0.000008      0.000138      0.000000
      5 Si    c      -0.005627     -0.000520     -0.000876      0.000000
      6 Si    c      -0.000282     -0.000076      0.000090      0.000000
      7 Si    c       0.004720      0.000047      0.001341      0.000000
      8 Si    c       0.001927     -0.000116     -0.001046      0.000000
      9 Si    c       0.000585      0.000072     -0.000386      0.000000
     10 Si    c      -0.001964     -0.000716      0.000687      0.000000
     11 Si    c       0.000566      0.000048      0.000839      0.000000
     12 Si    c       0.000827      0.000478      0.000041      0.000000
     13 Si    c      -0.000388      0.000166     -0.000394      0.000000
     14 Si    c       0.000054      0.000059     -0.000359      0.000000
     15 Si    c      -0.000243      0.000158     -0.000247      0.000000
     16 Si    c       0.000072     -0.000060     -0.000236      0.000000
     17 Si    c       0.001062      0.001571      0.001227      0.000000
     18 Si    c       0.001435     -0.000040      0.001147      0.000000
     19 Si    c       0.000164      0.000173      0.000075      0.000000
     20 Si    c       0.000214      0.000134     -0.001324      0.000000
     21 Si    c       0.000459      0.000075     -0.000408      0.000000
     22 Si    c       0.001247     -0.001841     -0.001366      0.000000
     23 Si    c      -0.000192      0.000219      0.000227      0.000000
     24 Si    c      -0.000414     -0.000287      0.000594      0.000000
     25 O3    c       0.000093     -0.000247     -0.000654      0.000000
     26 O2    c       0.000073     -0.000194     -0.000151      0.000000
     27 O2    c      -0.000245      0.000094     -0.000018      0.000000
     28 O2    c       0.000202     -0.000461      0.000315      0.000000
     29 O2    c      -0.000381     -0.000215      0.000278      0.000000
     30 O2    c      -0.000140      0.000224     -0.000336      0.000000
     31 O2    c      -0.000722      0.000042     -0.000302      0.000000
     32 O2    c      -0.000828      0.000849     -0.000227      0.000000
     33 O2    c       0.000494      0.000070     -0.000855      0.000000
     34 O2    c       0.001802     -0.000019     -0.000023      0.000000
     35 O2    c       0.000507     -0.000033      0.000386      0.000000
     36 O2    c      -0.000362     -0.000077      0.000176      0.000000
     37 O2    c      -0.000180      0.000068     -0.000194      0.000000
     38 O2    c      -0.004237      0.000292      0.000303      0.000000
     39 O3    c       0.000504      0.000628      0.000273      0.000000
     40 O2    c      -0.000368     -0.000187     -0.000072      0.000000
     41 O2    c      -0.000736      0.000588      0.000525      0.000000
     42 O3    c      -0.000664      0.000125      0.000638      0.000000
     43 O2    c       0.000043     -0.000059      0.000388      0.000000
     44 O2    c      -0.000861     -0.000400      0.000202      0.000000
     45 O2    c       0.000796     -0.000920     -0.000168      0.000000
     46 O2    c      -0.000041      0.000208     -0.000491      0.000000
     47 O2    c       0.001602      0.000885     -0.000162      0.000000
     48 O2    c       0.000332      0.000417     -0.000748      0.000000
     49 O3    c      -0.003814     -0.001191      0.002190      0.000000
     50 O2    c       0.000952     -0.000702      0.000731      0.000000
     51 O2    c       0.000109     -0.000499     -0.000174      0.000000
     52 O2    c      -0.000452      0.000492     -0.000327      0.000000
     53 O3    c       0.001327     -0.000648      0.000911      0.000000
     54 O2    c      -0.000338     -0.000067      0.000524      0.000000
     55 O2    c      -0.000550      0.000101     -0.000023      0.000000
     56 O2    c      -0.000960     -0.000110      0.000154      0.000000
     57 O3    c      -0.003015     -0.001017      0.002488      0.000000
     58 O2    c       0.000541      0.000187     -0.000458      0.000000
     59 O2    c       0.000599     -0.000142      0.000020      0.000000
     60 O2    c      -0.000322      0.000071     -0.000244      0.000000
     61 O2    c       0.000255      0.000069      0.000233      0.000000
     62 O3    c      -0.000712     -0.000084     -0.000314      0.000000
     63 O3    c      -0.002078      0.000982     -0.001752      0.000000
     64 O2    c       0.000849     -0.000545     -0.000573      0.000000
     65 O3    c      -0.001433      0.000476      0.000711      0.000000
     66 O2    c       0.000233     -0.000207      0.000096      0.000000
     67 O2    c       0.000668      0.000049     -0.000230      0.000000
     68 O3    c      -0.003511      0.002999     -0.002063      0.000000
     69 O3    c       0.002570      0.000020     -0.000400      0.000000
     70 O2    c      -0.000421      0.000039      0.000021      0.000000
     71 O2    c       0.000596      0.000164     -0.000309      0.000000
     72 O3    c       0.000514      0.000083     -0.000064      0.000000
     73 O3    s      -0.000354     -0.000496      0.000523      0.000000
     74 O2    s      -0.001413      0.000037      0.000311      0.000000
     75 O2    s      -0.000273     -0.000029     -0.000162      0.000000
     76 O2    s       0.002337     -0.000187     -0.000148      0.000000
     77 O2    s       0.000036      0.000121     -0.000013      0.000000
     78 O2    s       0.002118      0.000125      0.000127      0.000000
     79 O2    s      -0.000268      0.001024      0.001130      0.000000
     80 O2    s      -0.001010      0.000004      0.000451      0.000000
     81 O2    s      -0.000051     -0.000064      0.000182      0.000000
     82 O2    s      -0.000098     -0.000143      0.000310      0.000000
     83 O2    s      -0.000105      0.000107      0.000130      0.000000
     84 O2    s       0.000079      0.000242      0.000003      0.000000
     85 O2    s       0.000534      0.000044      0.000074      0.000000
     86 O2    s      -0.000474     -0.000085     -0.000317      0.000000
     87 O3    s       0.001678      0.000105      0.000345      0.000000
     88 O2    s       0.000012      0.000269     -0.000256      0.000000
     89 O2    s      -0.001357     -0.000380     -0.000309      0.000000
     90 O3    s       0.000104      0.000409     -0.000407      0.000000
     91 O2    s      -0.000738     -0.000074     -0.000217      0.000000
     92 O2    s      -0.000210     -0.000924     -0.001001      0.000000
     93 O2    s       0.001707     -0.000033      0.000038      0.000000
     94 O2    s      -0.000162      0.000007      0.000075      0.000000
     95 O2    s      -0.000187      0.000098     -0.000528      0.000000
     96 O2    s       0.000200     -0.000393      0.000019      0.000000
     97 O3    s      -0.001652      0.000116      0.000651      0.000000
     98 O2    s       0.001810      0.000042      0.001374      0.000000
     99 O2    s       0.000419      0.000014     -0.000332      0.000000
    100 O2    s       0.000161      0.000070     -0.000168      0.000000
    101 O3    s      -0.001699     -0.000673      0.001354      0.000000
    102 O2    s       0.000776      0.001429      0.001932      0.000000
    103 O2    s       0.000149     -0.000090     -0.000515      0.000000
    104 O2    s      -0.000092      0.000261     -0.000586      0.000000
    105 O3    s       0.000061     -0.000991     -0.000075      0.000000
    106 O2    s       0.001609      0.000758     -0.000684      0.000000
    107 O2    s       0.000226      0.000105      0.000188      0.000000
    108 O2    s       0.000192      0.000147     -0.000182      0.000000
    109 O2    s       0.000436      0.000070      0.000082      0.000000
    110 O3    s      -0.000408     -0.000675      0.000085      0.000000
    111 O3    s      -0.000285      0.001173     -0.000780      0.000000
    112 O2    s       0.002241     -0.000778      0.000039      0.000000
    113 O3    s       0.000150     -0.000318      0.000090      0.000000
    114 O2    s       0.000404     -0.000149      0.000091      0.000000
    115 O2    s       0.001404     -0.000081     -0.000866      0.000000
    116 O3    s      -0.001765     -0.000374     -0.000516      0.000000
    117 O3    s       0.000109     -0.000057      0.000837      0.000000
    118 O2    s       0.000320      0.000201      0.000690      0.000000
    119 O2    s       0.001510     -0.001068     -0.001797      0.000000
    120 O3    s      -0.000125      0.000468     -0.001451      0.000000
--------------------------------------------------------------------------------
  Maximum abs         0.005627      0.002999      0.002488      0.000000
--------------------------------------------------------------------------------


  Born effective charge tensors : 

-------------------------------------------------------------------------------
  Atom             x           y             z
-------------------------------------------------------------------------------
    1 Ge    x       3.9746      0.3069     -0.0545
            y       0.3351      4.1745     -0.3129
            z      -0.1667     -0.0388      3.4371
-------------------------------------------------------------------------------
    2 Ge    x       3.9737      0.4049     -0.2315
            y       0.1071      4.1684     -0.3257
            z      -0.1899     -0.0954      3.3750
-------------------------------------------------------------------------------
    3 Ge    x       4.0244     -0.4422      0.2260
            y      -0.0977      4.1550     -0.3356
            z       0.2120     -0.0547      3.3460
-------------------------------------------------------------------------------
    4 Si    x       3.5617      0.3340     -0.1719
            y       0.0187      3.4622      0.0296
            z      -0.4989     -0.1370      3.8713
-------------------------------------------------------------------------------
    5 Si    x       3.4282      0.0608      0.1948
            y      -0.0679      3.2338      0.0052
            z       0.4754      0.0090      3.8071
-------------------------------------------------------------------------------
    6 Si    x       3.4475     -0.0833     -0.1676
            y       0.0995      3.2455     -0.0112
            z      -0.4664      0.0752      3.7530
-------------------------------------------------------------------------------
    7 Si    x       3.4480     -0.0891      0.1926
            y       0.0749      3.2465     -0.0390
            z       0.4444     -0.0390      3.8157
-------------------------------------------------------------------------------
    8 Si    x       3.6842      0.0595     -0.1617
            y       0.3130      3.4161      0.0472
            z      -0.5677     -0.0275      3.1579
-------------------------------------------------------------------------------
    9 Si    x       3.4299     -0.1379      0.2534
            y       0.2189      3.2495     -0.0544
            z       0.4397     -0.0085      3.1315
-------------------------------------------------------------------------------
   10 Si    x       3.4488      0.1792     -0.2927
            y      -0.2282      3.2444     -0.0244
            z      -0.4524     -0.0423      3.1291
-------------------------------------------------------------------------------
   11 Si    x       3.7071     -0.0515      0.1599
            y      -0.3165      3.3963      0.0518
            z       0.5654     -0.0405      3.1388
-------------------------------------------------------------------------------
   12 Si    x       3.1674      0.2674      0.0677
            y       0.2212      3.4147      0.1805
            z       0.1311      0.0755      2.8209
-------------------------------------------------------------------------------
   13 Si    x       3.1696     -0.2606     -0.0585
            y      -0.2605      3.4426      0.1773
            z      -0.1196      0.0805      2.7988
-------------------------------------------------------------------------------
   14 Si    x       3.2212     -0.2511      0.0419
            y      -0.2674      3.4397     -0.2012
            z       0.1113     -0.0550      2.7979
-------------------------------------------------------------------------------
   15 Si    x       3.1947      0.3141     -0.1130
            y       0.1833      3.4593     -0.1603
            z      -0.1181     -0.0789      2.8059
-------------------------------------------------------------------------------
   16 Si    x       3.2756      0.3380      0.0583
            y       0.2158      3.5781      0.0911
            z       0.1320     -0.0550      3.0764
-------------------------------------------------------------------------------
   17 Si    x       3.3729     -0.2960     -0.0908
            y      -0.0274      3.8322      0.0455
            z      -0.1673     -0.0947      3.1296
-------------------------------------------------------------------------------
   18 Si    x       3.5537     -0.2980     -0.0028
            y      -0.1538      3.5200     -0.2029
            z       0.0613     -0.0880      2.8988
-------------------------------------------------------------------------------
   19 Si    x       3.2106      0.3650      0.1485
            y       0.0823      3.4276      0.1702
            z       0.1198      0.0682      2.7347
-------------------------------------------------------------------------------
   20 Si    x       3.2040     -0.4007     -0.1240
            y      -0.0554      3.4459      0.1717
            z      -0.1246      0.0683      2.7399
-------------------------------------------------------------------------------
   21 Si    x       3.6100      0.2468      0.0598
            y       0.2432      3.5197     -0.2145
            z      -0.1095     -0.0796      2.8146
-------------------------------------------------------------------------------
   22 Si    x       3.4614      0.2692      0.1416
            y       0.1487      3.8215      0.0660
            z       0.1810     -0.1160      3.0427
-------------------------------------------------------------------------------
   23 Si    x       3.3637     -0.2008     -0.1866
            y      -0.1006      3.7127      0.1274
            z      -0.2018     -0.0147      2.8019
-------------------------------------------------------------------------------
   24 Si    x       3.5955     -0.2153     -0.0430
            y      -0.2324      3.5025     -0.1886
            z       0.1232     -0.0923      2.8108
-------------------------------------------------------------------------------
   25 O3    x      -1.9464     -0.9250      0.3647
            y      -0.8723     -2.4997      0.3565
            z       0.4307      0.3406     -1.5536
-------------------------------------------------------------------------------
   26 O2    x      -1.6551     -0.7234     -0.3108
            y      -0.6780     -1.9924     -0.3334
            z      -0.3587     -0.3316     -1.3493
-------------------------------------------------------------------------------
   27 O2    x      -1.6456      0.7133      0.2978
            y       0.6777     -2.0086     -0.3165
            z       0.3494     -0.3157     -1.3403
-------------------------------------------------------------------------------
   28 O2    x      -1.6719      0.7246     -0.3199
            y       0.6840     -1.9976      0.3421
            z      -0.3602      0.3306     -1.3545
-------------------------------------------------------------------------------
   29 O2    x      -1.7264     -0.7305      0.3211
            y      -0.7483     -1.9722      0.3545
            z       0.3756      0.3463     -1.3500
-------------------------------------------------------------------------------
   30 O2    x      -1.7545     -0.7381     -0.2871
            y      -0.7483     -1.9630     -0.2875
            z      -0.3497     -0.2934     -1.3269
-------------------------------------------------------------------------------
   31 O2    x      -1.8226      0.6738      0.3128
            y       0.7065     -1.8464     -0.3168
            z       0.3652     -0.2809     -1.3643
-------------------------------------------------------------------------------
   32 O2    x      -1.7092      0.7241     -0.3087
            y       0.7261     -1.9798      0.3379
            z      -0.3524      0.3287     -1.3551
-------------------------------------------------------------------------------
   33 O2    x      -1.6354     -0.0211      0.8155
            y      -0.0116     -1.0928      0.0205
            z       1.0424      0.0254     -2.7121
-------------------------------------------------------------------------------
   34 O2    x      -1.6350      0.0087     -0.8514
            y      -0.0014     -1.0858      0.0067
            z      -1.0603      0.0159     -2.7816
-------------------------------------------------------------------------------
   35 O2    x      -1.6190      0.0065     -0.7171
            y      -0.0151     -1.1190      0.0053
            z      -0.6584      0.0109     -2.3387
-------------------------------------------------------------------------------
   36 O2    x      -1.7448      0.0044      0.7296
            y      -0.0098     -1.1084     -0.0084
            z       0.7406     -0.0047     -2.1984
-------------------------------------------------------------------------------
   37 O2    x      -1.7837     -0.0135     -0.7434
            y       0.0051     -1.1071     -0.0083
            z      -0.7482     -0.0214     -2.1680
-------------------------------------------------------------------------------
   38 O2    x      -1.6635     -0.0220      0.7380
            y       0.0206     -1.1174      0.0232
            z       0.6883      0.0342     -2.2875
-------------------------------------------------------------------------------
   39 O3    x      -2.1418     -0.9616      0.3813
            y      -0.9360     -2.2983      0.4326
            z       0.3868      0.3705     -1.4671
-------------------------------------------------------------------------------
   40 O2    x      -1.7687     -0.7258     -0.3224
            y      -0.6920     -1.9207     -0.3316
            z      -0.3344     -0.3362     -1.2368
-------------------------------------------------------------------------------
   41 O2    x      -1.7768      0.7215      0.3361
            y       0.6874     -1.9295     -0.3580
            z       0.3386     -0.3409     -1.2356
-------------------------------------------------------------------------------
   42 O3    x      -2.1596      0.9672     -0.3648
            y       0.9165     -2.2650      0.4166
            z      -0.3689      0.3558     -1.4701
-------------------------------------------------------------------------------
   43 O2    x      -1.6593     -0.6926      0.3315
            y      -0.5668     -2.0687      0.3584
            z       0.3579      0.3537     -1.2199
-------------------------------------------------------------------------------
   44 O2    x      -1.6676     -0.6565     -0.3432
            y      -0.5765     -1.9439     -0.3780
            z      -0.3735     -0.3356     -1.2884
-------------------------------------------------------------------------------
   45 O2    x      -1.6586      0.6471      0.3528
            y       0.5908     -1.9274     -0.3885
            z       0.3814     -0.3410     -1.2947
-------------------------------------------------------------------------------
   46 O2    x      -1.6653      0.6873     -0.3297
            y       0.5794     -2.0570      0.3690
            z      -0.3595      0.3604     -1.2195
-------------------------------------------------------------------------------
   47 O2    x      -1.7778     -0.0264     -0.5706
            y      -0.0065     -1.2195      0.0056
            z      -0.3166      0.0225     -1.7151
-------------------------------------------------------------------------------
   48 O2    x      -1.7718      0.0197      0.5704
            y       0.0135     -1.2300      0.0224
            z       0.3096      0.0416     -1.7175
-------------------------------------------------------------------------------
   49 O3    x      -1.3937     -0.1737      0.0509
            y      -0.2169     -3.1879      0.0703
            z       0.0873      0.0353     -1.1557
-------------------------------------------------------------------------------
   50 O2    x      -1.1643     -0.0191     -0.0532
            y      -0.0495     -2.5456      0.0281
            z      -0.0755      0.0331     -1.0807
-------------------------------------------------------------------------------
   51 O2    x      -1.1623      0.0403      0.0589
            y       0.0703     -2.5453     -0.0128
            z       0.0799      0.0014     -1.0702
-------------------------------------------------------------------------------
   52 O2    x      -1.1892      0.0398     -0.0329
            y       0.0763     -2.5952     -0.0280
            z      -0.0635     -0.0388     -1.0453
-------------------------------------------------------------------------------
   53 O3    x      -3.0323      0.0879      0.0465
            y      -0.0011     -1.3713      0.0963
            z       0.0950      0.0467     -1.2482
-------------------------------------------------------------------------------
   54 O2    x      -2.4017      0.1519     -0.0197
            y       0.1026     -1.2512     -0.0553
            z      -0.0043     -0.0226     -1.0981
-------------------------------------------------------------------------------
   55 O2    x      -2.3829     -0.0839      0.0212
            y      -0.0478     -1.2519     -0.0664
            z       0.0110     -0.0382     -1.0801
-------------------------------------------------------------------------------
   56 O2    x      -2.4089     -0.0732      0.0496
            y      -0.0225     -1.2392      0.0706
            z       0.0200      0.0429     -1.0741
-------------------------------------------------------------------------------
   57 O3    x      -1.3778     -0.1797      0.0227
            y      -0.1459     -1.4551      0.0580
            z       0.0070      0.0504     -2.5666
-------------------------------------------------------------------------------
   58 O2    x      -1.1907     -0.1120      0.0926
            y      -0.0957     -1.2873     -0.0138
            z       0.1037     -0.0312     -2.0944
-------------------------------------------------------------------------------
   59 O2    x      -1.1878      0.1114     -0.1075
            y       0.1046     -1.2864      0.0039
            z      -0.1173     -0.0180     -2.0899
-------------------------------------------------------------------------------
   60 O2    x      -1.2195      0.1347      0.0203
            y       0.1148     -1.2756     -0.0223
            z       0.0122     -0.0121     -2.0608
-------------------------------------------------------------------------------
   61 O2    x      -1.1748     -0.1327     -0.0583
            y      -0.0802     -1.2804      0.0192
            z      -0.0431      0.0062     -2.0672
-------------------------------------------------------------------------------
   62 O3    x      -1.3160     -0.1537      0.0081
            y      -0.0969     -1.4844      0.0891
            z      -0.0308      0.0947     -2.5936
-------------------------------------------------------------------------------
   63 O3    x      -1.3408      0.1574     -0.0082
            y       0.0836     -1.4642      0.0398
            z       0.0184      0.0426     -2.5844
-------------------------------------------------------------------------------
   64 O2    x      -1.1732      0.1217     -0.0005
            y       0.0573     -1.2990      0.0100
            z      -0.0079     -0.0057     -2.0970
-------------------------------------------------------------------------------
   65 O3    x      -1.4035     -0.0379      0.1096
            y       0.0556     -3.1409      0.0880
            z       0.1277      0.0743     -1.1355
-------------------------------------------------------------------------------
   66 O2    x      -1.2470      0.0887     -0.0759
            y       0.1594     -2.4977     -0.0127
            z      -0.1070      0.0156     -1.0294
-------------------------------------------------------------------------------
   67 O2    x      -1.2614     -0.0933      0.0701
            y      -0.1850     -2.5021      0.0218
            z       0.1067      0.0237     -1.0269
-------------------------------------------------------------------------------
   68 O3    x      -1.4449      0.0149     -0.0895
            y      -0.0914     -3.1518      0.0805
            z      -0.1198      0.0489     -1.1037
-------------------------------------------------------------------------------
   69 O3    x      -3.0158     -0.1554      0.1680
            y      -0.1296     -1.3889      0.1116
            z       0.1541      0.0672     -1.2295
-------------------------------------------------------------------------------
   70 O2    x      -2.4601     -0.0571      0.0388
            y      -0.0209     -1.2262     -0.0522
            z       0.0389     -0.0163     -1.0632
-------------------------------------------------------------------------------
   71 O2    x      -2.4813      0.0722     -0.0729
            y       0.0198     -1.2465     -0.0481
            z      -0.0739     -0.0080     -1.0604
-------------------------------------------------------------------------------
   72 O3    x      -3.0381      0.1700     -0.1670
            y       0.1401     -1.3843      0.1081
            z      -0.1581      0.0533     -1.2354
-------------------------------------------------------------------------------




  Elastic Constant Matrix: (Units=GPa)

-------------------------------------------------------------------------------
  Indices      1         2         3         4         5         6    
-------------------------------------------------------------------------------
       1     52.6478   27.5848   33.1855    0.3490    3.4963    1.2337
       2     27.5848   78.7142   25.2033    0.5462    3.7462    1.8001
       3     33.1855   25.2033   62.5994   -0.0526    3.2076    1.9330
       4      0.3490    0.5462   -0.0526   12.2252    0.1435    0.3194
       5      3.4963    3.7462    3.2076    0.1435   24.3191   -0.9865
       6      1.2337    1.8001    1.9330    0.3194   -0.9865   23.4221
-------------------------------------------------------------------------------


  Elastic Compliance Matrix: (Units=1/GPa)

-------------------------------------------------------------------------------
  Indices      1         2         3         4         5         6    
-------------------------------------------------------------------------------
       1    0.031220 -0.006410 -0.013883 -0.000643 -0.001669 -0.000068
       2   -0.006410  0.015971 -0.002951 -0.000511 -0.001174 -0.000689
       3   -0.013883 -0.002951  0.024600  0.000673 -0.000844 -0.001117
       4   -0.000643 -0.000511  0.000673  0.081877 -0.000446 -0.001118
       5   -0.001669 -0.001174 -0.000844 -0.000446  0.041736  0.002012
       6   -0.000068 -0.000689 -0.001117 -0.001118  0.002012  0.042943
-------------------------------------------------------------------------------

  Mechanical properties :

-------------------------------------------------------------------------------
  Convention :                    Reuss         Voigt         Hill
-------------------------------------------------------------------------------
  Bulk  Modulus (GPa)     =      39.51973      40.65651      40.08812
  Shear Modulus (GPa)     =      17.04915      19.19247      18.12081
-------------------------------------------------------------------------------
  Velocity S-wave (km/s)  =       2.95421       3.13440       3.04564
  Velocity P-wave (km/s)  =       5.64502       5.82332       5.73486
-------------------------------------------------------------------------------
  Compressibility (1/GPa) =    0.02530381
-------------------------------------------------------------------------------
  Stress axis :                     x             y             z
-------------------------------------------------------------------------------
  Youngs Moduli (GPa)     =      32.03049      62.61497      40.64973
-------------------------------------------------------------------------------
  Poissons Ratio (x)      =                     0.40139       0.56433
  Poissons Ratio (y)      =       0.20533                     0.11994
  Poissons Ratio (z)      =       0.44467       0.18475
-------------------------------------------------------------------------------


  Piezoelectric Strain Matrix: (Units=C/m**2)

-------------------------------------------------------------------------------
  Indices      1         2         3         4         5         6    
-------------------------------------------------------------------------------
       x     0.23597  -0.44300  -0.49742  -0.25156   0.14425  -0.19434
       y    -0.45020  -0.00284  -0.32345   0.06722  -0.39466   0.04073
       z     0.00320   0.10925  -0.43230  -0.20478   0.03944  -0.20892
-------------------------------------------------------------------------------


  Piezoelectric Stress Matrix: (Units=10**-11 C/N)

-------------------------------------------------------------------------------
  Indices      1         2         3         4         5         6    
-------------------------------------------------------------------------------
       x     1.70468  -0.70268  -1.42796  -2.07039   0.62877  -0.69296
       y    -0.89340   0.41959  -0.13660   0.57073  -1.53921   0.12738
       z     0.54810   0.32022  -1.09393  -1.68995   0.15483  -0.82560
-------------------------------------------------------------------------------


  Static dielectric constant tensor : 

-------------------------------------------------------------------------------
              x         y         z
-------------------------------------------------------------------------------
       x     4.01355   0.02024  -0.04480
       y     0.02024   4.20363  -0.02740
       z    -0.04480  -0.02740   3.23867
--------------------------------------------------------------------------------

  High frequency dielectric constant tensor : 

-------------------------------------------------------------------------------
              x         y         z
-------------------------------------------------------------------------------
       x     1.67854   0.00020   0.00014
       y     0.00020   1.68541  -0.00170
       z     0.00014  -0.00170   1.62106
-------------------------------------------------------------------------------

  Static refractive indices : 

-------------------------------------------------------------------------------
    1 =    1.79872      2 =    2.00341      3 =    2.05105
-------------------------------------------------------------------------------

  High frequency refractive indices : 

-------------------------------------------------------------------------------
    1 =    1.27319      2 =    1.29558      3 =    1.29825
-------------------------------------------------------------------------------


  Time to end of optimisation =       9.8103 seconds


  Peak dynamic memory used =       5.01 MB 


  Timing analysis for GULP :

--------------------------------------------------------------------------------
  Task / Subroutine                                          Time (Seconds)
--------------------------------------------------------------------------------
  Calculation of reciprocal space energy and derivatives          0.6697
  Calculation of real space energy and derivatives                6.3978
  Calculation of three-body energy and derivatives                0.5979
  Calculation and manipulation of Hessian matrix                  3.0072
  Calculation of matrix inversion                                 0.0319
  Global summation overhead                                       0.0001
--------------------------------------------------------------------------------
  Total CPU time                                                  9.8104
--------------------------------------------------------------------------------


  Dump file written as c00236.vasp.grs
  CIF file written as c00236.vasp.cif


  Job Finished at 12:09.18  7th October    2025                               

