********************************************************************************
*                       GENERAL UTILITY LATTICE PROGRAM                        *
*                                 Julian Gale                                  *
*                       Curtin Institute for Computation                       *
*                    School of Molecular and Life Sciences                     *
*                    Curtin University, Western Australia                      *
********************************************************************************
* Version = 6.1.2 * Last modified =   3rd November 2022                        *
********************************************************************************
*  optimise     - perform optimisation run                                     *
*  conp         - constant pressure calculation                                *
*  property     - calculate properties for final geometry                      *
********************************************************************************

  Job Started  at 12:13.39  7th October    2025                               

  Number of CPUs =     1


  Total number of configurations input =      1

********************************************************************************
*  Input for Configuration =   1 : c00260.vasp                                 *
********************************************************************************

  Formula = Ge3Si21O48                                                  

  Number of irreducible atoms/shells =     120


  Total number atoms/shells =     120

  Dimensionality = 3               :  Bulk   



  Cartesian lattice vectors (Angstroms) :

       17.182800    0.000000    0.000000
        0.000000    7.513760    0.000000
        0.000000    0.000000   10.447700

  Cell parameters (Angstroms/Degrees):

  a =      17.1828    alpha =  90.0000
  b =       7.5138    beta  =  90.0000
  c =      10.4477    gamma =  90.0000

  Initial cell volume =        1348.875752 Angs**3

  Temperature of configuration =   0.00     K 

  Pressure of configuration =         0.000 GPa 

  Fractional coordinates of asymmetric unit :

--------------------------------------------------------------------------------
   No.  Atomic       x           y          z         Charge      Occupancy
        Label      (Frac)      (Frac)     (Frac)        (e)         (Frac)  
--------------------------------------------------------------------------------
      1 Ge    c    0.160190    0.293910    0.273440     4.00000    1.000000    
      2 Ge    c    0.160660 *  0.294090 *  0.982560 *   4.00000    1.000000    
      3 Ge    c    0.839340 *  0.294090 *  0.017440 *   4.00000    1.000000    
      4 Si    c    0.052090 *  0.000000 *  0.372270 *   4.00000    1.000000    
      5 Si    c    0.447910 *  0.000000 *  0.372270 *   4.00000    1.000000    
      6 Si    c    0.947910 *  0.000000 *  0.627730 *   4.00000    1.000000    
      7 Si    c    0.552090 *  0.000000 *  0.627730 *   4.00000    1.000000    
      8 Si    c    0.556730 *  0.000000 *  0.122130 *   4.00000    1.000000    
      9 Si    c    0.943270 *  0.000000 *  0.122130 *   4.00000    1.000000    
     10 Si    c    0.443270 *  0.000000 *  0.877870 *   4.00000    1.000000    
     11 Si    c    0.056730 *  0.000000 *  0.877870 *   4.00000    1.000000    
     12 Si    c    0.339810 *  0.706090 *  0.273440 *   4.00000    1.000000    
     13 Si    c    0.839810 *  0.293910 *  0.726560 *   4.00000    1.000000    
     14 Si    c    0.660190 *  0.706090 *  0.726560 *   4.00000    1.000000    
     15 Si    c    0.839810 *  0.706090 *  0.726560 *   4.00000    1.000000    
     16 Si    c    0.660190 *  0.293910 *  0.726560 *   4.00000    1.000000    
     17 Si    c    0.160190 *  0.706090 *  0.273440 *   4.00000    1.000000    
     18 Si    c    0.339810 *  0.293910 *  0.273440 *   4.00000    1.000000    
     19 Si    c    0.660660 *  0.294090 *  0.017440 *   4.00000    1.000000    
     20 Si    c    0.839340 *  0.705910 *  0.017440 *   4.00000    1.000000    
     21 Si    c    0.339340 *  0.294090 *  0.982560 *   4.00000    1.000000    
     22 Si    c    0.160660 *  0.705910 *  0.982560 *   4.00000    1.000000    
     23 Si    c    0.339340 *  0.705910 *  0.982560 *   4.00000    1.000000    
     24 Si    c    0.660660 *  0.705910 *  0.017440 *   4.00000    1.000000    
     25 O3    c    0.106570 *  0.174340 *  0.366200 *   1.33043    1.000000    
     26 O2    c    0.393430 *  0.825660 *  0.366200 *   0.87073    1.000000    
     27 O2    c    0.893430 *  0.174340 *  0.633800 *   0.87073    1.000000    
     28 O2    c    0.606570 *  0.825660 *  0.633800 *   0.87073    1.000000    
     29 O2    c    0.893430 *  0.825660 *  0.633800 *   0.87073    1.000000    
     30 O2    c    0.606570 *  0.174340 *  0.633800 *   0.87073    1.000000    
     31 O2    c    0.106570 *  0.825660 *  0.366200 *   0.87073    1.000000    
     32 O2    c    0.393430 *  0.174340 *  0.366200 *   0.87073    1.000000    
     33 O2    c    0.000000 *  0.000000 *  0.500000 *   0.87073    1.000000    
     34 O2    c    0.500000 *  0.000000 *  0.500000 *   0.87073    1.000000    
     35 O2    c    0.994520 *  0.000000 *  0.250840 *   0.87073    1.000000    
     36 O2    c    0.505480 *  0.000000 *  0.250840 *   0.87073    1.000000    
     37 O2    c    0.005480 *  0.000000 *  0.749160 *   0.87073    1.000000    
     38 O2    c    0.494520 *  0.000000 *  0.749160 *   0.87073    1.000000    
     39 O2    c    0.610230 *  0.175520 *  0.115390 *   0.87073    1.000000    
     40 O2    c    0.889770 *  0.824480 *  0.115390 *   0.87073    1.000000    
     41 O2    c    0.389770 *  0.175520 *  0.884610 *   0.87073    1.000000    
     42 O2    c    0.110230 *  0.824480 *  0.884610 *   0.87073    1.000000    
     43 O2    c    0.389770 *  0.824480 *  0.884610 *   0.87073    1.000000    
     44 O3    c    0.110230 *  0.175520 *  0.884610 *   1.33043    1.000000    
     45 O2    c    0.610230 *  0.824480 *  0.115390 *   0.87073    1.000000    
     46 O3    c    0.889770 *  0.175520 *  0.115390 *   1.33043    1.000000    
     47 O2    c    0.500000 *  0.000000 *  0.000000 *   0.87073    1.000000    
     48 O2    c    0.000000 *  0.000000 *  0.000000 *   0.87073    1.000000    
     49 O3    c    0.151750 *  0.500000 *  0.313330 *   1.33043    1.000000    
     50 O2    c    0.348250 *  0.500000 *  0.313330 *   0.87073    1.000000    
     51 O2    c    0.848250 *  0.500000 *  0.686670 *   0.87073    1.000000    
     52 O2    c    0.651750 *  0.500000 *  0.686670 *   0.87073    1.000000    
     53 O3    c    0.250000 *  0.234950 *  0.285720 *   1.33043    1.000000    
     54 O2    c    0.250000 *  0.765050 *  0.285720 *   0.87073    1.000000    
     55 O2    c    0.750000 *  0.234950 *  0.714280 *   0.87073    1.000000    
     56 O2    c    0.750000 *  0.765050 *  0.714280 *   0.87073    1.000000    
     57 O1    c    0.131410 *  0.268650 *  0.127790 *   1.73396    1.000000    
     58 O2    c    0.368590 *  0.731350 *  0.127790 *   0.87073    1.000000    
     59 O3    c    0.868590 *  0.268650 *  0.872210 *   1.33043    1.000000    
     60 O2    c    0.631410 *  0.731350 *  0.872210 *   0.87073    1.000000    
     61 O2    c    0.868590 *  0.731350 *  0.872210 *   0.87073    1.000000    
     62 O2    c    0.631410 *  0.268650 *  0.872210 *   0.87073    1.000000    
     63 O2    c    0.131410 *  0.731350 *  0.127790 *   0.87073    1.000000    
     64 O2    c    0.368590 *  0.268650 *  0.127790 *   0.87073    1.000000    
     65 O2    c    0.653920 *  0.500000 *  0.058200 *   0.87073    1.000000    
     66 O3    c    0.846080 *  0.500000 *  0.058200 *   1.33043    1.000000    
     67 O2    c    0.346080 *  0.500000 *  0.941800 *   0.87073    1.000000    
     68 O3    c    0.153920 *  0.500000 *  0.941800 *   1.33043    1.000000    
     69 O3    c    0.750000 *  0.231060 *  0.027050 *   1.33043    1.000000    
     70 O2    c    0.750000 *  0.768940 *  0.027050 *   0.87073    1.000000    
     71 O3    c    0.250000 *  0.231060 *  0.972950 *   1.33043    1.000000    
     72 O2    c    0.250000 *  0.768940 *  0.972950 *   0.87073    1.000000    
     73 O3    s    0.106570 *  0.174340 *  0.366200 *  -3.33043    1.000000    
     74 O2    s    0.393430 *  0.825660 *  0.366200 *  -2.87073    1.000000    
     75 O2    s    0.893430 *  0.174340 *  0.633800 *  -2.87073    1.000000    
     76 O2    s    0.606570 *  0.825660 *  0.633800 *  -2.87073    1.000000    
     77 O2    s    0.893430 *  0.825660 *  0.633800 *  -2.87073    1.000000    
     78 O2    s    0.606570 *  0.174340 *  0.633800 *  -2.87073    1.000000    
     79 O2    s    0.106570 *  0.825660 *  0.366200 *  -2.87073    1.000000    
     80 O2    s    0.393430 *  0.174340 *  0.366200 *  -2.87073    1.000000    
     81 O2    s    0.000000 *  0.000000 *  0.500000 *  -2.87073    1.000000    
     82 O2    s    0.500000 *  0.000000 *  0.500000 *  -2.87073    1.000000    
     83 O2    s    0.994520 *  0.000000 *  0.250840 *  -2.87073    1.000000    
     84 O2    s    0.505480 *  0.000000 *  0.250840 *  -2.87073    1.000000    
     85 O2    s    0.005480 *  0.000000 *  0.749160 *  -2.87073    1.000000    
     86 O2    s    0.494520 *  0.000000 *  0.749160 *  -2.87073    1.000000    
     87 O2    s    0.610230 *  0.175520 *  0.115390 *  -2.87073    1.000000    
     88 O2    s    0.889770 *  0.824480 *  0.115390 *  -2.87073    1.000000    
     89 O2    s    0.389770 *  0.175520 *  0.884610 *  -2.87073    1.000000    
     90 O2    s    0.110230 *  0.824480 *  0.884610 *  -2.87073    1.000000    
     91 O2    s    0.389770 *  0.824480 *  0.884610 *  -2.87073    1.000000    
     92 O3    s    0.110230 *  0.175520 *  0.884610 *  -3.33043    1.000000    
     93 O2    s    0.610230 *  0.824480 *  0.115390 *  -2.87073    1.000000    
     94 O3    s    0.889770 *  0.175520 *  0.115390 *  -3.33043    1.000000    
     95 O2    s    0.500000 *  0.000000 *  0.000000 *  -2.87073    1.000000    
     96 O2    s    0.000000 *  0.000000 *  0.000000 *  -2.87073    1.000000    
     97 O3    s    0.151750 *  0.500000 *  0.313330 *  -3.33043    1.000000    
     98 O2    s    0.348250 *  0.500000 *  0.313330 *  -2.87073    1.000000    
     99 O2    s    0.848250 *  0.500000 *  0.686670 *  -2.87073    1.000000    
    100 O2    s    0.651750 *  0.500000 *  0.686670 *  -2.87073    1.000000    
    101 O3    s    0.250000 *  0.234950 *  0.285720 *  -3.33043    1.000000    
    102 O2    s    0.250000 *  0.765050 *  0.285720 *  -2.87073    1.000000    
    103 O2    s    0.750000 *  0.234950 *  0.714280 *  -2.87073    1.000000    
    104 O2    s    0.750000 *  0.765050 *  0.714280 *  -2.87073    1.000000    
    105 O1    s    0.131410 *  0.268650 *  0.127790 *  -3.73396    1.000000    
    106 O2    s    0.368590 *  0.731350 *  0.127790 *  -2.87073    1.000000    
    107 O3    s    0.868590 *  0.268650 *  0.872210 *  -3.33043    1.000000    
    108 O2    s    0.631410 *  0.731350 *  0.872210 *  -2.87073    1.000000    
    109 O2    s    0.868590 *  0.731350 *  0.872210 *  -2.87073    1.000000    
    110 O2    s    0.631410 *  0.268650 *  0.872210 *  -2.87073    1.000000    
    111 O2    s    0.131410 *  0.731350 *  0.127790 *  -2.87073    1.000000    
    112 O2    s    0.368590 *  0.268650 *  0.127790 *  -2.87073    1.000000    
    113 O2    s    0.653920 *  0.500000 *  0.058200 *  -2.87073    1.000000    
    114 O3    s    0.846080 *  0.500000 *  0.058200 *  -3.33043    1.000000    
    115 O2    s    0.346080 *  0.500000 *  0.941800 *  -2.87073    1.000000    
    116 O3    s    0.153920 *  0.500000 *  0.941800 *  -3.33043    1.000000    
    117 O3    s    0.750000 *  0.231060 *  0.027050 *  -3.33043    1.000000    
    118 O2    s    0.750000 *  0.768940 *  0.027050 *  -2.87073    1.000000    
    119 O3    s    0.250000 *  0.231060 *  0.972950 *  -3.33043    1.000000    
    120 O2    s    0.250000 *  0.768940 *  0.972950 *  -2.87073    1.000000    
--------------------------------------------------------------------------------



********************************************************************************
*  General input information                                                   *
********************************************************************************

  Species output for all configurations : 

--------------------------------------------------------------------------------
  Species    Type    Atomic    Atomic    Charge       Radii (Angs)     Library
                     Number     Mass       (e)     Cova   Ionic  VDW   Symbol
--------------------------------------------------------------------------------
    Ge       Core       32      72.61   4.000000   1.170  0.000  1.750 Ge       
    Si       Core       14      28.09   4.000000   1.200  0.000  2.100 Si       
    O1       Core        8      16.00   1.733957   0.730  0.000  1.360 O1       
    O2       Core        8      16.00   0.870733   0.730  0.000  1.360 O2       
    O3       Core        8      16.00   1.330431   0.730  0.000  1.360 O3       
    O1       Shell       8       0.00  -3.733957   0.730  0.000  0.000 O1       
    O2       Shell       8       0.00  -2.870733   0.730  0.000  0.000 O2       
    O3       Shell       8       0.00  -3.330431   0.730  0.000  0.000 O3       
--------------------------------------------------------------------------------


  Lattice summation method               =    Ewald          (3-D)
                                         =    Parry          (2-D)
                                         =    Saunders et al (1-D)
  Accuracy factor for lattice sums       =   12.000


  Analytic derivatives to be used

  Time limit = Infinity

  Maximum range for interatomic potentials =    100000.000000 Angstroms

  General interatomic potentials :

--------------------------------------------------------------------------------
Atom  Types   Potential      Parameter       Value         Units   Cutoffs(Ang)
  1     2                                                            Min /  Max 
--------------------------------------------------------------------------------
Si   c O1   s Buckingham    Buckingham A     1315.2478    eV        0.000 16.000
                            Buckingham rho  0.31775900    Ang       
                            Buckingham C     10.141118    eV*Ang^6  
--------------------------------------------------------------------------------
Si   c O2   s Buckingham    Buckingham A     1315.2478    eV        0.000 16.000
                            Buckingham rho  0.31775900    Ang       
                            Buckingham C     10.141118    eV*Ang^6  
--------------------------------------------------------------------------------
Si   c O3   s Buckingham    Buckingham A     1315.2478    eV        0.000 16.000
                            Buckingham rho  0.31775900    Ang       
                            Buckingham C     10.141118    eV*Ang^6  
--------------------------------------------------------------------------------
Ge   c O1   s Buckingham    Buckingham A     1497.3996    eV        0.000 16.000
                            Buckingham rho  0.32564600    Ang       
                            Buckingham C     16.808599    eV*Ang^6  
--------------------------------------------------------------------------------
Ge   c O2   s Buckingham    Buckingham A     1497.3996    eV        0.000 16.000
                            Buckingham rho  0.32564600    Ang       
                            Buckingham C     16.808599    eV*Ang^6  
--------------------------------------------------------------------------------
Ge   c O3   s Buckingham    Buckingham A     1497.3996    eV        0.000 16.000
                            Buckingham rho  0.32564600    Ang       
                            Buckingham C     16.808599    eV*Ang^6  
--------------------------------------------------------------------------------
O1   s O1   s Buckingham    Buckingham A     22764.000    eV        0.000 16.000
                            Buckingham rho  0.14900000    Ang       
                            Buckingham C     10.937044    eV*Ang^6  
--------------------------------------------------------------------------------
O1   s O2   s Buckingham    Buckingham A     22764.000    eV        0.000 16.000
                            Buckingham rho  0.14900000    Ang       
                            Buckingham C     10.937044    eV*Ang^6  
--------------------------------------------------------------------------------
O1   s O3   s Buckingham    Buckingham A     22764.000    eV        0.000 16.000
                            Buckingham rho  0.14900000    Ang       
                            Buckingham C     10.937044    eV*Ang^6  
--------------------------------------------------------------------------------
O2   s O2   s Buckingham    Buckingham A     22764.000    eV        0.000 16.000
                            Buckingham rho  0.14900000    Ang       
                            Buckingham C     10.937044    eV*Ang^6  
--------------------------------------------------------------------------------
O2   s O3   s Buckingham    Buckingham A     22764.000    eV        0.000 16.000
                            Buckingham rho  0.14900000    Ang       
                            Buckingham C     10.937044    eV*Ang^6  
--------------------------------------------------------------------------------
O3   s O3   s Buckingham    Buckingham A     22764.000    eV        0.000 16.000
                            Buckingham rho  0.14900000    Ang       
                            Buckingham C     10.937044    eV*Ang^6  
--------------------------------------------------------------------------------
O1   c O1   s Spring (c-s)  Spring k 2       180.31577    eV*Ang^-2 0.000  0.800
                            Spring k 4       0.0000000    eV*Ang^-4 
--------------------------------------------------------------------------------
O2   c O2   s Spring (c-s)  Spring k 2       75.969800    eV*Ang^-2 0.000  0.800
                            Spring k 4       0.0000000    eV*Ang^-4 
--------------------------------------------------------------------------------
O3   c O3   s Spring (c-s)  Spring k 2       128.14270    eV*Ang^-2 0.000  0.800
                            Spring k 4       0.0000000    eV*Ang^-4 
--------------------------------------------------------------------------------

  General Three-body potentials :

--------------------------------------------------------------------------------
  Atoms       Potential      Parameter       Value         Units   Cutoffs(Ang)
  1 / 2 / 3                                                          Min /  Max 
--------------------------------------------------------------------------------
Si    core    Harmonic      Three-body cnst  1.2614000    eV*rad^-2 0.000  1.900
O1    shel                  Three-body angl  109.47000    degrees   0.000  1.900
O1    shel                  Three-body k4    0.0000000    eV*rad^-4 0.000  3.500
                            Three-body k3    0.0000000    eV*rad^-3 
--------------------------------------------------------------------------------
Si    core    Harmonic      Three-body cnst  1.2614000    eV*rad^-2 0.000  1.900
O1    shel                  Three-body angl  109.47000    degrees   0.000  1.900
õ(1   shel                  Three-body k4    0.0000000    eV*rad^-4 0.000  3.500
                            Three-body k3    0.0000000    eV*rad^-3 
--------------------------------------------------------------------------------
Si    core    Harmonic      Three-body cnst  1.2614000    eV*rad^-2 0.000  1.900
õ(1   shel                  Three-body angl  109.47000    degrees   0.000  1.900
õ(1   shel                  Three-body k4    0.0000000    eV*rad^-4 0.000  3.500
                            Three-body k3    0.0000000    eV*rad^-3 
--------------------------------------------------------------------------------
Si    core    Harmonic      Three-body cnst  1.2614000    eV*rad^-2 0.000  1.900
O1    shel                  Three-body angl  109.47000    degrees   0.000  1.900
O2    shel                  Three-body k4    0.0000000    eV*rad^-4 0.000  3.500
                            Three-body k3    0.0000000    eV*rad^-3 
--------------------------------------------------------------------------------
Si    core    Harmonic      Three-body cnst  1.2614000    eV*rad^-2 0.000  1.900
O1    shel                  Three-body angl  109.47000    degrees   0.000  1.900
õ(2   shel                  Three-body k4    0.0000000    eV*rad^-4 0.000  3.500
                            Three-body k3    0.0000000    eV*rad^-3 
--------------------------------------------------------------------------------
Si    core    Harmonic      Three-body cnst  1.2614000    eV*rad^-2 0.000  1.900
O2    shel                  Three-body angl  109.47000    degrees   0.000  1.900
õ(1   shel                  Three-body k4    0.0000000    eV*rad^-4 0.000  3.500
                            Three-body k3    0.0000000    eV*rad^-3 
--------------------------------------------------------------------------------
Si    core    Harmonic      Three-body cnst  1.2614000    eV*rad^-2 0.000  1.900
õ(1   shel                  Three-body angl  109.47000    degrees   0.000  1.900
õ(2   shel                  Three-body k4    0.0000000    eV*rad^-4 0.000  3.500
                            Three-body k3    0.0000000    eV*rad^-3 
--------------------------------------------------------------------------------
Si    core    Harmonic      Three-body cnst  1.2614000    eV*rad^-2 0.000  1.900
O2    shel                  Three-body angl  109.47000    degrees   0.000  1.900
O2    shel                  Three-body k4    0.0000000    eV*rad^-4 0.000  3.500
                            Three-body k3    0.0000000    eV*rad^-3 
--------------------------------------------------------------------------------
Si    core    Harmonic      Three-body cnst  1.2614000    eV*rad^-2 0.000  1.900
O2    shel                  Three-body angl  109.47000    degrees   0.000  1.900
õ(2   shel                  Three-body k4    0.0000000    eV*rad^-4 0.000  3.500
                            Three-body k3    0.0000000    eV*rad^-3 
--------------------------------------------------------------------------------
Si    core    Harmonic      Three-body cnst  1.2614000    eV*rad^-2 0.000  1.900
õ(2   shel                  Three-body angl  109.47000    degrees   0.000  1.900
õ(2   shel                  Three-body k4    0.0000000    eV*rad^-4 0.000  3.500
                            Three-body k3    0.0000000    eV*rad^-3 
--------------------------------------------------------------------------------

********************************************************************************
*  Output for configuration   1 : c00260.vasp                                  *
********************************************************************************


  Components of energy : 

--------------------------------------------------------------------------------
  Interatomic potentials     =         760.31794850 eV    
  Three-body potentials      =           0.01533882 eV    
  Monopole - monopole (real) =       -2676.00317478 eV    
  Monopole - monopole (recip)=       -1115.35404472 eV    
  Monopole - monopole (total)=       -3791.35721950 eV    
--------------------------------------------------------------------------------
  Total lattice energy       =       -3031.02393218 eV    
--------------------------------------------------------------------------------
  Total lattice energy       =         -292447.4760 kJ/(mole unit cells)
--------------------------------------------------------------------------------


  Number of variables =      363

  Maximum number of calculations  =          1000
  Maximum Hessian update interval =            10
  Maximum step size               =   0.100000000
  Maximum parameter tolerance     =   0.000010000
  Maximum function  tolerance     =   0.000010000
  Maximum gradient  tolerance     =   0.001000000
  Maximum gradient  component     =   0.010000000

  Symmetry not applied to optimisation

  Cell parameters to be optimised using strains

  Newton-Raphson optimiser to be used

  BFGS hessian update to be used

  Lower half triangular hessian to be used

  Minimiser to switch to RFO
  When gradient norm is less than     0.050000

  Dumpfile to be written after every cycle

  Start of bulk optimisation :

  Cycle:      0 Energy:     -3031.023932  Gnorm:      4.457331  CPU:    0.122
  ** Hessian calculated **
  Cycle:      1 Energy:     -3048.797969  Gnorm:      3.197227  CPU:    0.320
  ** Hessian calculated **
  Cycle:      2 Energy:     -3064.420177  Gnorm:      0.701512  CPU:    0.535
  ** Hessian calculated **
  Cycle:      3 Energy:     -3065.705780  Gnorm:      0.401872  CPU:    0.750
  Cycle:      4 Energy:     -3066.155156  Gnorm:      0.270910  CPU:    0.860
  Cycle:      5 Energy:     -3066.523957  Gnorm:      0.209030  CPU:    0.989
  Cycle:      6 Energy:     -3066.854475  Gnorm:      0.168483  CPU:    1.116
  Cycle:      7 Energy:     -3067.073998  Gnorm:      0.145832  CPU:    1.222
  Cycle:      8 Energy:     -3067.214382  Gnorm:      0.108750  CPU:    1.335
  Cycle:      9 Energy:     -3067.284472  Gnorm:      0.075415  CPU:    1.453
  Cycle:     10 Energy:     -3067.324032  Gnorm:      0.058252  CPU:    1.589
  Cycle:     11 Energy:     -3067.350641  Gnorm:      0.053872  CPU:    1.726
  Cycle:     12 Energy:     -3067.373058  Gnorm:      0.052427  CPU:    1.843
  ** Hessian calculated **
  Cycle:     13 Energy:     -3067.385703  Gnorm:      0.051829  CPU:    2.088
  Cycle:     14 Energy:     -3067.406559  Gnorm:      0.050812  CPU:    2.245
  Cycle:     15 Energy:     -3067.441701  Gnorm:      0.049024  CPU:    2.403
  ** Hessian has wrong structure
  ** Imaginary eigenvectors =   2
  Cycle:     16 Energy:     -3067.446883  Gnorm:      0.053477  CPU:    2.759
  ** Hessian has wrong structure
  ** Imaginary eigenvectors =   2
  ** Hessian has wrong structure
  ** Imaginary eigenvectors =   2
  Cycle:     17 Energy:     -3067.454533  Gnorm:      0.051827  CPU:    3.445
  ** Hessian has wrong structure
  ** Imaginary eigenvectors =   2
  ** Hessian has wrong structure
  ** Imaginary eigenvectors =   2
  Cycle:     18 Energy:     -3067.480306  Gnorm:      0.054297  CPU:    4.081
  ** Hessian has wrong structure
  ** Imaginary eigenvectors =   1
  ** Hessian has wrong structure
  ** Imaginary eigenvectors =   1
  Cycle:     19 Energy:     -3067.714852  Gnorm:      0.045671  CPU:    4.585
  ** Hessian has wrong structure
  ** Imaginary eigenvectors =   1
  Cycle:     20 Energy:     -3067.829518  Gnorm:      0.060461  CPU:    4.870
  ** Hessian has wrong structure
  ** Imaginary eigenvectors =   1
  Cycle:     21 Energy:     -3067.838216  Gnorm:      0.064352  CPU:    5.264
  ** Hessian has required structure
  Cycle:     22 Energy:     -3067.992181  Gnorm:      0.037847  CPU:    5.545
  ** Hessian has required structure
  Cycle:     23 Energy:     -3068.057863  Gnorm:      0.026415  CPU:    5.732
  ** Hessian has required structure
  Cycle:     24 Energy:     -3068.097238  Gnorm:      0.026333  CPU:    5.921
  ** Hessian has required structure
  Cycle:     25 Energy:     -3068.122400  Gnorm:      0.023718  CPU:    6.094
  ** Hessian has required structure
  Cycle:     26 Energy:     -3068.140422  Gnorm:      0.022046  CPU:    6.271
  ** Hessian has required structure
  Cycle:     27 Energy:     -3068.152266  Gnorm:      0.018821  CPU:    6.429
  ** Hessian has required structure
  Cycle:     28 Energy:     -3068.161952  Gnorm:      0.021461  CPU:    6.608
  ** Hessian has required structure
  Cycle:     29 Energy:     -3068.170364  Gnorm:      0.018685  CPU:    6.764
  ** Hessian has required structure
  Cycle:     30 Energy:     -3068.178854  Gnorm:      0.012822  CPU:    6.940
  ** Hessian has required structure
  Cycle:     31 Energy:     -3068.183895  Gnorm:      0.017175  CPU:    7.120
  ** Hessian has required structure
  Cycle:     32 Energy:     -3068.192784  Gnorm:      0.012501  CPU:    7.415
  ** Hessian has required structure
  Cycle:     33 Energy:     -3068.198112  Gnorm:      0.008193  CPU:    7.593
  ** Hessian has required structure
  Cycle:     34 Energy:     -3068.199858  Gnorm:      0.003717  CPU:    7.773
  ** Hessian has required structure
  Cycle:     35 Energy:     -3068.200546  Gnorm:      0.003648  CPU:    7.973
  ** Hessian has required structure
  Cycle:     36 Energy:     -3068.200833  Gnorm:      0.002256  CPU:    8.151
  ** Hessian has required structure
  Cycle:     37 Energy:     -3068.201006  Gnorm:      0.001722  CPU:    8.347
  ** Hessian has required structure
  Cycle:     38 Energy:     -3068.201121  Gnorm:      0.001420  CPU:    8.541
  ** Hessian has required structure
  Cycle:     39 Energy:     -3068.201199  Gnorm:      0.000708  CPU:    8.755
  ** Hessian has required structure
  Cycle:     40 Energy:     -3068.201235  Gnorm:      0.000710  CPU:    8.977
  ** Hessian has required structure
  Cycle:     41 Energy:     -3068.201253  Gnorm:      0.000515  CPU:    9.198
  ** Hessian has required structure
  Cycle:     42 Energy:     -3068.201262  Gnorm:      0.000310  CPU:    9.501
  ** Hessian has required structure
  Cycle:     43 Energy:     -3068.201260  Gnorm:      0.000374  CPU:    9.749
  ** Hessian has required structure
  Cycle:     44 Energy:     -3068.201264  Gnorm:      0.000225  CPU:   10.056
  ** Hessian has required structure
  Cycle:     45 Energy:     -3068.201264  Gnorm:      0.000268  CPU:   10.303
  ** Hessian has required structure
  Cycle:     46 Energy:     -3068.201264  Gnorm:      0.000242  CPU:   10.583
  ** Hessian has required structure
  Cycle:     47 Energy:     -3068.201264  Gnorm:      0.000242  CPU:   10.851
  ** Hessian has required structure
  Cycle:     48 Energy:     -3068.201264  Gnorm:      0.000242  CPU:   11.071
  ** Hessian has required structure
  Cycle:     49 Energy:     -3068.201264  Gnorm:      0.000242  CPU:   11.292
  ** Hessian has required structure
  Cycle:     50 Energy:     -3068.201264  Gnorm:      0.000242  CPU:   11.642
  ** Hessian calculated **


  **** Optimisation achieved ****


  Final energy =   -3068.20126421 eV      
  Final Gnorm  =       0.00024588

  Components of energy : 

--------------------------------------------------------------------------------
  Interatomic potentials     =         815.88018683 eV    
  Three-body potentials      =           0.21134826 eV    
  Monopole - monopole (real) =       -2204.87980880 eV    
  Monopole - monopole (recip)=       -1679.41299050 eV    
  Monopole - monopole (total)=       -3884.29279929 eV    
--------------------------------------------------------------------------------
  Total lattice energy       =       -3068.20126421 eV    
--------------------------------------------------------------------------------
  Total lattice energy       =         -296034.5202 kJ/(mole unit cells)
--------------------------------------------------------------------------------

  Final fractional coordinates of atoms :

--------------------------------------------------------------------------------
   No.  Atomic        x           y          z          Radius
        Label       (Frac)      (Frac)     (Frac)       (Angs) 
--------------------------------------------------------------------------------
     1  Ge    c     0.160190    0.293910    0.273440    0.000000
     2  Ge    c     0.158907    0.296793    0.957475    0.000000
     3  Ge    c     0.828213    0.297169    0.011449    0.000000
     4  Si    c     0.044301    0.006094    0.357885    0.000000
     5  Si    c     0.447726    0.022573    0.352264    0.000000
     6  Si    c     0.937268    0.997428    0.605673    0.000000
     7  Si    c     0.539824    0.017440    0.621140    0.000000
     8  Si    c     0.553036    0.015879    0.105597    0.000000
     9  Si    c     0.941688    0.012523    0.099968    0.000000
    10  Si    c     0.435677    0.017864    0.872615    0.000000
    11  Si    c     0.046509    0.012743    0.854749    0.000000
    12  Si    c     0.331217    0.732201    0.266327    0.000000
    13  Si    c     0.825819    0.291709    0.701717    0.000000
    14  Si    c     0.654610    0.723479    0.705200    0.000000
    15  Si    c     0.834891    0.697149    0.699972    0.000000
    16  Si    c     0.646528    0.322453    0.707062    0.000000
    17  Si    c     0.150244    0.707384    0.271778    0.000000
    18  Si    c     0.341140    0.331638    0.267879    0.000000
    19  Si    c     0.645630    0.333351    0.013779    0.000000
    20  Si    c     0.844842    0.699340    0.002109    0.000000
    21  Si    c     0.339568    0.337323    0.958738    0.000000
    22  Si    c     0.143215    0.704335    0.969632    0.000000
    23  Si    c     0.324739    0.732180    0.962403    0.000000
    24  Si    c     0.662650    0.728300    0.008925    0.000000
    25  O3    c     0.102067    0.168836    0.372391    0.000000
    26  O2    c     0.382528    0.870628    0.347247    0.000000
    27  O2    c     0.878073    0.162216    0.614196    0.000000
    28  O2    c     0.601252    0.856357    0.622743    0.000000
    29  O2    c     0.889649    0.815384    0.610283    0.000000
    30  O2    c     0.586229    0.200250    0.629291    0.000000
    31  O2    c     0.096455    0.829191    0.362600    0.000000
    32  O2    c     0.407484    0.211888    0.334304    0.000000
    33  O2    c     0.979494    0.004393    0.468279    0.000000
    34  O2    c     0.490482    0.013439    0.489764    0.000000
    35  O2    c     0.000256    0.018718    0.219948    0.000000
    36  O2    c     0.513038    0.992940    0.243614    0.000000
    37  O2    c     0.002830    0.003115    0.717393    0.000000
    38  O2    c     0.478833    0.999729    0.737120    0.000000
    39  O2    c     0.584332    0.214206    0.091209    0.000000
    40  O2    c     0.902076    0.821868    0.086302    0.000000
    41  O2    c     0.403794    0.215787    0.888944    0.000000
    42  O2    c     0.086183    0.824932    0.883786    0.000000
    43  O2    c     0.364847    0.878648    0.873972    0.000000
    44  O3    c     0.111121    0.161822    0.849114    0.000000
    45  O2    c     0.624204    0.877126    0.098299    0.000000
    46  O3    c     0.874770    0.156544    0.115837    0.000000
    47  O2    c     0.492897    0.967908    0.990855    0.000000
    48  O2    c     0.986969    0.067824    0.969037    0.000000
    49  O3    c     0.128518    0.507902    0.290518    0.000000
    50  O2    c     0.362410    0.535565    0.293377    0.000000
    51  O2    c     0.854249    0.491744    0.680513    0.000000
    52  O2    c     0.625443    0.525252    0.679484    0.000000
    53  O3    c     0.257066    0.286005    0.324631    0.000000
    54  O2    c     0.240973    0.744266    0.310152    0.000000
    55  O2    c     0.734434    0.278848    0.660046    0.000000
    56  O2    c     0.744847    0.737821    0.661883    0.000000
    57  O1    c     0.152723    0.225399    0.114792    0.000000
    58  O2    c     0.336681    0.780829    0.114126    0.000000
    59  O3    c     0.834463    0.234010    0.850446    0.000000
    60  O2    c     0.649211    0.774649    0.857318    0.000000
    61  O2    c     0.851809    0.750025    0.849880    0.000000
    62  O2    c     0.640533    0.284431    0.860695    0.000000
    63  O2    c     0.136194    0.760897    0.120826    0.000000
    64  O2    c     0.336441    0.296092    0.112822    0.000000
    65  O2    c     0.624887    0.538320    0.037465    0.000000
    66  O3    c     0.869748    0.502116    0.026713    0.000000
    67  O2    c     0.362137    0.540644    0.934511    0.000000
    68  O3    c     0.118987    0.505384    0.950667    0.000000
    69  O3    c     0.732687    0.298133    0.062687    0.000000
    70  O2    c     0.754532    0.724496    0.043816    0.000000
    71  O3    c     0.254184    0.300581    0.902822    0.000000
    72  O2    c     0.233095    0.729778    0.925457    0.000000
    73  O3    s     0.101023    0.162708    0.362833    0.000000
    74  O2    s     0.383804    0.871572    0.338682    0.000000
    75  O2    s     0.878674    0.158780    0.622900    0.000000
    76  O2    s     0.600638    0.858796    0.631820    0.000000
    77  O2    s     0.888635    0.821654    0.619776    0.000000
    78  O2    s     0.587996    0.194143    0.637191    0.000000
    79  O2    s     0.096791    0.834550    0.352234    0.000000
    80  O2    s     0.404477    0.204570    0.328868    0.000000
    81  O2    s     0.982110    0.003821    0.471459    0.000000
    82  O2    s     0.491287    0.015008    0.489075    0.000000
    83  O2    s     0.998200    0.016604    0.221055    0.000000
    84  O2    s     0.510317    0.998961    0.239746    0.000000
    85  O2    s     0.000425    0.003605    0.720595    0.000000
    86  O2    s     0.480729    0.003904    0.739910    0.000000
    87  O2    s     0.587673    0.206180    0.084276    0.000000
    88  O2    s     0.899988    0.828637    0.078393    0.000000
    89  O2    s     0.400179    0.207953    0.894869    0.000000
    90  O2    s     0.088259    0.831621    0.890295    0.000000
    91  O2    s     0.367972    0.877399    0.883651    0.000000
    92  O3    s     0.108461    0.157822    0.858741    0.000000
    93  O2    s     0.620844    0.875515    0.089045    0.000000
    94  O3    s     0.877653    0.153854    0.105358    0.000000
    95  O2    s     0.493224    0.978804    0.990464    0.000000
    96  O2    s     0.988489    0.056396    0.970678    0.000000
    97  O3    s     0.133387    0.511602    0.287157    0.000000
    98  O2    s     0.356884    0.535072    0.287838    0.000000
    99  O2    s     0.849195    0.492795    0.684810    0.000000
   100  O2    s     0.630807    0.524700    0.685163    0.000000
   101  O3    s     0.257833    0.291162    0.314914    0.000000
   102  O2    s     0.241208    0.739112    0.301454    0.000000
   103  O2    s     0.734713    0.284893    0.669372    0.000000
   104  O2    s     0.744793    0.731865    0.670602    0.000000
   105  O1    s     0.153765    0.236082    0.114848    0.000000
   106  O2    s     0.334813    0.770489    0.114160    0.000000
   107  O3    s     0.833086    0.244896    0.848652    0.000000
   108  O2    s     0.651228    0.764294    0.857243    0.000000
   109  O2    s     0.849298    0.739263    0.849937    0.000000
   110  O2    s     0.641704    0.293644    0.860312    0.000000
   111  O2    s     0.138394    0.749578    0.120533    0.000000
   112  O2    s     0.337252    0.304232    0.112961    0.000000
   113  O2    s     0.630957    0.536886    0.032012    0.000000
   114  O3    s     0.863807    0.506100    0.022935    0.000000
   115  O2    s     0.355928    0.539577    0.939941    0.000000
   116  O3    s     0.124658    0.509326    0.953153    0.000000
   117  O3    s     0.731580    0.301726    0.053350    0.000000
   118  O2    s     0.754107    0.722167    0.035535    0.000000
   119  O3    s     0.255294    0.304067    0.912992    0.000000
   120  O2    s     0.233590    0.727298    0.934153    0.000000
--------------------------------------------------------------------------------

  Final Cartesian lattice vectors (Angstroms) :

       17.076186    0.033687   -0.077766
        0.013725    7.633595   -0.017152
       -0.046018   -0.022121   10.260020


  Final cell parameters and derivatives :

--------------------------------------------------------------------------------
       a           17.076396 Angstrom     dE/de1(xx)     0.030654 eV/strain
       b            7.633626 Angstrom     dE/de2(yy)     0.011679 eV/strain
       c           10.260147 Angstrom     dE/de3(zz)     0.022970 eV/strain
       alpha       90.252729 Degrees      dE/de4(yz)     0.003715 eV/strain
       beta        90.518150 Degrees      dE/de5(xz)     0.005829 eV/strain
       gamma       89.783369 Degrees      dE/de6(xy)     0.020199 eV/strain
--------------------------------------------------------------------------------

  Primitive cell volume =          1337.382654 Angs**3

  Density of cell =      1.956498 g/cm**3

  Non-primitive cell volume =          1337.382654 Angs**3


  Final internal derivatives :

--------------------------------------------------------------------------------
   No.  Atomic          a             b             c           Radius
        Label          (eV)          (eV)          (eV)        (eV/Angs)
--------------------------------------------------------------------------------
      1 Ge    c       0.000000      0.000000      0.000000      0.000000
      2 Ge    c      -0.003955      0.005600      0.001382      0.000000
      3 Ge    c       0.002276     -0.002292     -0.001275      0.000000
      4 Si    c       0.001635     -0.007441      0.000029      0.000000
      5 Si    c      -0.010536      0.007076     -0.006104      0.000000
      6 Si    c      -0.003037      0.006748     -0.004288      0.000000
      7 Si    c       0.011620     -0.006843      0.003013      0.000000
      8 Si    c       0.017234     -0.002543      0.006133      0.000000
      9 Si    c      -0.002815      0.007401     -0.001942      0.000000
     10 Si    c      -0.005138      0.008179     -0.003335      0.000000
     11 Si    c      -0.002099     -0.005178      0.001736      0.000000
     12 Si    c      -0.000698     -0.008276     -0.001084      0.000000
     13 Si    c       0.011939     -0.003565      0.003850      0.000000
     14 Si    c      -0.010423      0.004018     -0.000674      0.000000
     15 Si    c       0.002137     -0.004091      0.000796      0.000000
     16 Si    c       0.006248      0.005859      0.004727      0.000000
     17 Si    c      -0.011874      0.001124      0.001981      0.000000
     18 Si    c       0.011828     -0.000703      0.000066      0.000000
     19 Si    c       0.000794      0.003960     -0.001546      0.000000
     20 Si    c      -0.006471     -0.008610     -0.005249      0.000000
     21 Si    c       0.015422      0.000109      0.001210      0.000000
     22 Si    c      -0.008125      0.001776     -0.003178      0.000000
     23 Si    c       0.004500     -0.005786     -0.001033      0.000000
     24 Si    c      -0.008529      0.003380      0.000431      0.000000
     25 O3    c       0.004722      0.001911      0.002535      0.000000
     26 O2    c       0.002771      0.002144      0.006139      0.000000
     27 O2    c       0.001349     -0.000890      0.000232      0.000000
     28 O2    c       0.000115     -0.000662      0.000073      0.000000
     29 O2    c      -0.003664     -0.003962     -0.002150      0.000000
     30 O2    c      -0.006108      0.001099     -0.006013      0.000000
     31 O2    c      -0.010056      0.005603     -0.001646      0.000000
     32 O2    c       0.003337     -0.003293      0.000777      0.000000
     33 O2    c      -0.002373      0.000070      0.001225      0.000000
     34 O2    c      -0.007281     -0.000141      0.000244      0.000000
     35 O2    c       0.006570      0.000011      0.008844      0.000000
     36 O2    c       0.014358     -0.000991      0.002142      0.000000
     37 O2    c       0.007214      0.000586      0.006103      0.000000
     38 O2    c      -0.003851     -0.001354      0.000799      0.000000
     39 O2    c      -0.004439      0.002431      0.002547      0.000000
     40 O2    c       0.007580      0.000134      0.007617      0.000000
     41 O2    c       0.000521     -0.002356      0.000495      0.000000
     42 O2    c      -0.007164      0.007496     -0.000975      0.000000
     43 O2    c      -0.007678     -0.001915     -0.002113      0.000000
     44 O3    c      -0.000465     -0.005224     -0.001652      0.000000
     45 O2    c      -0.002857     -0.000425      0.000482      0.000000
     46 O3    c       0.004483     -0.000937     -0.000767      0.000000
     47 O2    c      -0.017220     -0.004562     -0.007595      0.000000
     48 O2    c       0.002915     -0.002180     -0.004156      0.000000
     49 O3    c       0.002383     -0.005691      0.000518      0.000000
     50 O2    c      -0.000918      0.005341     -0.000227      0.000000
     51 O2    c       0.001370      0.004064      0.000072      0.000000
     52 O2    c      -0.002986     -0.005951     -0.000620      0.000000
     53 O3    c      -0.001783     -0.001366      0.005160      0.000000
     54 O2    c       0.003483      0.001605      0.003281      0.000000
     55 O2    c      -0.008752     -0.000095     -0.002016      0.000000
     56 O2    c       0.002069      0.000894     -0.002620      0.000000
     57 O1    c       0.002064     -0.001116     -0.004551      0.000000
     58 O2    c       0.002274      0.001087      0.001151      0.000000
     59 O3    c      -0.004046      0.001236     -0.004030      0.000000
     60 O2    c       0.000561     -0.000278      0.001642      0.000000
     61 O2    c      -0.000243     -0.000022      0.003939      0.000000
     62 O2    c       0.001005      0.000274     -0.001594      0.000000
     63 O2    c      -0.002974      0.000920      0.002187      0.000000
     64 O2    c       0.000377     -0.000424     -0.002677      0.000000
     65 O2    c      -0.002073     -0.004322      0.000539      0.000000
     66 O3    c      -0.000761      0.007917     -0.002716      0.000000
     67 O2    c      -0.002358      0.002150      0.000284      0.000000
     68 O3    c       0.004087     -0.008871     -0.000295      0.000000
     69 O3    c       0.005430     -0.000083      0.001371      0.000000
     70 O2    c       0.004633     -0.000092      0.001562      0.000000
     71 O3    c      -0.006995     -0.001810     -0.005909      0.000000
     72 O2    c      -0.004308      0.000469     -0.003001      0.000000
     73 O3    s      -0.002877     -0.003766     -0.002266      0.000000
     74 O2    s      -0.004233     -0.000740     -0.001779      0.000000
     75 O2    s      -0.000299      0.000583     -0.000073      0.000000
     76 O2    s       0.005655     -0.000877     -0.000679      0.000000
     77 O2    s       0.000811      0.000433     -0.000040      0.000000
     78 O2    s       0.006587      0.000957      0.002398      0.000000
     79 O2    s      -0.002675      0.000988     -0.000115      0.000000
     80 O2    s      -0.002677      0.001496      0.000615      0.000000
     81 O2    s       0.004621     -0.000517     -0.002090      0.000000
     82 O2    s      -0.002426     -0.000473      0.000036      0.000000
     83 O2    s       0.007294      0.001166     -0.002334      0.000000
     84 O2    s      -0.003284     -0.000298      0.001486      0.000000
     85 O2    s       0.005973      0.000469      0.000878      0.000000
     86 O2    s      -0.002231      0.000774     -0.000730      0.000000
     87 O2    s       0.008081      0.001294     -0.000559      0.000000
     88 O2    s      -0.001865     -0.000065     -0.002106      0.000000
     89 O2    s       0.000220      0.001863     -0.000790      0.000000
     90 O2    s      -0.004786      0.002180     -0.001868      0.000000
     91 O2    s       0.000740      0.000180      0.000302      0.000000
     92 O3    s      -0.005204     -0.002399      0.002798      0.000000
     93 O2    s       0.010416     -0.000466      0.000550      0.000000
     94 O3    s      -0.000599      0.000631      0.000195      0.000000
     95 O2    s      -0.001589     -0.001028      0.001365      0.000000
     96 O2    s       0.011817      0.001030      0.000959      0.000000
     97 O3    s      -0.005700      0.001471     -0.000430      0.000000
     98 O2    s       0.001787     -0.000622      0.001429      0.000000
     99 O2    s      -0.000786     -0.000905      0.000927      0.000000
    100 O2    s       0.001234      0.000740      0.001290      0.000000
    101 O3    s      -0.003367      0.000456     -0.001315      0.000000
    102 O2    s      -0.000300     -0.000239      0.000023      0.000000
    103 O2    s       0.001933      0.000734      0.002346      0.000000
    104 O2    s       0.000652     -0.000659      0.001632      0.000000
    105 O1    s      -0.005018      0.000056      0.001969      0.000000
    106 O2    s       0.003968      0.001276      0.000468      0.000000
    107 O3    s      -0.001279     -0.000144      0.002292      0.000000
    108 O2    s       0.001267      0.001159      0.000299      0.000000
    109 O2    s      -0.000455     -0.000442     -0.000537      0.000000
    110 O2    s       0.002807      0.000235      0.000457      0.000000
    111 O2    s      -0.000586      0.001075      0.000244      0.000000
    112 O2    s      -0.000269     -0.000755      0.000221      0.000000
    113 O2    s       0.001202      0.000769     -0.002080      0.000000
    114 O3    s      -0.002825     -0.003099     -0.000256      0.000000
    115 O2    s       0.002916     -0.000083     -0.000945      0.000000
    116 O3    s      -0.007686      0.002628     -0.000891      0.000000
    117 O3    s      -0.002105      0.001343     -0.002562      0.000000
    118 O2    s       0.000801     -0.001061     -0.003091      0.000000
    119 O3    s      -0.000116      0.000413      0.001560      0.000000
    120 O2    s       0.001551     -0.000224     -0.000946      0.000000
--------------------------------------------------------------------------------
  Maximum abs         0.017234      0.008871      0.008844      0.000000
--------------------------------------------------------------------------------


  Born effective charge tensors : 

-------------------------------------------------------------------------------
  Atom             x           y             z
-------------------------------------------------------------------------------
    1 Ge    x       3.9915      0.4093     -0.1254
            y       0.2593      4.2185     -0.2126
            z      -0.2046     -0.0089      3.4869
-------------------------------------------------------------------------------
    2 Ge    x       4.0106      0.4334      0.1724
            y       0.1382      4.2161      0.2672
            z       0.1968      0.0301      3.4048
-------------------------------------------------------------------------------
    3 Ge    x       3.9736     -0.4233      0.1755
            y      -0.1165      4.1738     -0.2997
            z       0.1766     -0.0713      3.3453
-------------------------------------------------------------------------------
    4 Si    x       3.6473      0.1265     -0.0484
            y       0.2265      3.4072      0.0618
            z      -0.6858      0.0056      3.7563
-------------------------------------------------------------------------------
    5 Si    x       3.4204     -0.1018      0.2469
            y       0.1359      3.2386     -0.0492
            z       0.3722      0.0075      3.8395
-------------------------------------------------------------------------------
    6 Si    x       3.4543      0.0626     -0.2607
            y      -0.0631      3.2451      0.0001
            z      -0.3898     -0.0511      3.7531
-------------------------------------------------------------------------------
    7 Si    x       3.4539      0.0693      0.1757
            y      -0.0911      3.2601      0.0131
            z       0.4569     -0.0205      3.8119
-------------------------------------------------------------------------------
    8 Si    x       3.4202      0.1940     -0.2464
            y      -0.1976      3.2384     -0.0084
            z      -0.4671     -0.0481      3.1276
-------------------------------------------------------------------------------
    9 Si    x       3.7082     -0.0413      0.0935
            y      -0.3356      3.4013      0.0913
            z       0.5874     -0.0026      3.1002
-------------------------------------------------------------------------------
   10 Si    x       3.4438     -0.1750     -0.2272
            y       0.1948      3.2465      0.0258
            z      -0.4918      0.0114      3.1107
-------------------------------------------------------------------------------
   11 Si    x       3.7190      0.0849      0.2575
            y       0.3258      3.4208     -0.0923
            z       0.4597      0.0390      3.1873
-------------------------------------------------------------------------------
   12 Si    x       3.2100      0.3281      0.0895
            y       0.1625      3.4445      0.1527
            z       0.1182      0.0637      2.8248
-------------------------------------------------------------------------------
   13 Si    x       3.2743     -0.3513     -0.0747
            y      -0.2194      3.5762      0.1028
            z      -0.1270     -0.0283      3.0980
-------------------------------------------------------------------------------
   14 Si    x       3.2045     -0.3153      0.0909
            y      -0.1958      3.4645     -0.1638
            z       0.1225     -0.0617      2.8067
-------------------------------------------------------------------------------
   15 Si    x       3.2002      0.2532     -0.0827
            y       0.2478      3.4339     -0.2071
            z      -0.1076     -0.0541      2.7991
-------------------------------------------------------------------------------
   16 Si    x       3.1848      0.2522      0.0222
            y       0.2641      3.4497      0.1681
            z       0.1256      0.0851      2.8024
-------------------------------------------------------------------------------
   17 Si    x       3.3211     -0.1934     -0.1074
            y      -0.1180      3.7498      0.1402
            z      -0.1464     -0.0159      2.8807
-------------------------------------------------------------------------------
   18 Si    x       3.5000     -0.1798     -0.1163
            y      -0.2310      3.5426     -0.1957
            z       0.0809     -0.1284      2.8941
-------------------------------------------------------------------------------
   19 Si    x       3.5878      0.2348      0.0021
            y       0.2298      3.5092     -0.2125
            z      -0.1168     -0.0843      2.8105
-------------------------------------------------------------------------------
   20 Si    x       3.3891      0.2046      0.1612
            y       0.1264      3.7138      0.1154
            z       0.2165     -0.0127      2.7958
-------------------------------------------------------------------------------
   21 Si    x       3.5905     -0.2319      0.0622
            y      -0.2223      3.5134      0.1987
            z      -0.1271      0.1000      2.8057
-------------------------------------------------------------------------------
   22 Si    x       3.4274     -0.2020      0.1520
            y      -0.1207      3.7239     -0.1383
            z       0.2288      0.0166      2.7970
-------------------------------------------------------------------------------
   23 Si    x       3.2379      0.3790     -0.1555
            y       0.0776      3.4266     -0.1734
            z      -0.1130     -0.0724      2.7453
-------------------------------------------------------------------------------
   24 Si    x       3.2050     -0.3728     -0.1696
            y      -0.0663      3.4318      0.1792
            z      -0.1109      0.0833      2.7493
-------------------------------------------------------------------------------
   25 O3    x      -2.1095     -0.9676      0.3156
            y      -1.0049     -2.3695      0.3362
            z       0.4119      0.2927     -1.5285
-------------------------------------------------------------------------------
   26 O2    x      -1.7642     -0.7446     -0.3167
            y      -0.7570     -1.9541     -0.3222
            z      -0.3564     -0.3387     -1.3420
-------------------------------------------------------------------------------
   27 O2    x      -1.7313      0.7394      0.3304
            y       0.7372     -1.9897     -0.3443
            z       0.3648     -0.3345     -1.3479
-------------------------------------------------------------------------------
   28 O2    x      -1.7390      0.7387     -0.3051
            y       0.7588     -1.9778      0.3254
            z      -0.3558      0.3245     -1.3393
-------------------------------------------------------------------------------
   29 O2    x      -1.6505     -0.7177      0.3433
            y      -0.6638     -1.9783      0.3518
            z       0.3564      0.3407     -1.3713
-------------------------------------------------------------------------------
   30 O2    x      -1.6752     -0.7260     -0.2988
            y      -0.7000     -2.0135     -0.3245
            z      -0.3573     -0.3216     -1.3269
-------------------------------------------------------------------------------
   31 O2    x      -1.7112      0.6784      0.3006
            y       0.6634     -1.8710     -0.3136
            z       0.3779     -0.2818     -1.3920
-------------------------------------------------------------------------------
   32 O2    x      -1.6562      0.7161     -0.2975
            y       0.6710     -2.0484      0.3393
            z      -0.3326      0.3262     -1.3189
-------------------------------------------------------------------------------
   33 O2    x      -1.7208     -0.0085      0.8164
            y      -0.0039     -1.0793      0.0048
            z       1.0809      0.0170     -2.6195
-------------------------------------------------------------------------------
   34 O2    x      -1.5836      0.0157     -0.8336
            y      -0.0037     -1.0874      0.0109
            z      -1.0059      0.0256     -2.8362
-------------------------------------------------------------------------------
   35 O2    x      -1.6772     -0.0057     -0.6923
            y       0.0210     -1.1300     -0.0016
            z      -0.6547      0.0038     -2.2500
-------------------------------------------------------------------------------
   36 O2    x      -1.7067     -0.0051      0.7143
            y       0.0281     -1.1160     -0.0023
            z       0.7210      0.0115     -2.2161
-------------------------------------------------------------------------------
   37 O2    x      -1.7460     -0.0136     -0.7256
            y      -0.0272     -1.1058     -0.0030
            z      -0.6885     -0.0149     -2.2034
-------------------------------------------------------------------------------
   38 O2    x      -1.7103      0.0198      0.7447
            y      -0.0154     -1.1155     -0.0114
            z       0.7300     -0.0119     -2.2421
-------------------------------------------------------------------------------
   39 O2    x      -1.6216     -0.6870      0.3288
            y      -0.5625     -2.0606      0.3654
            z       0.3490      0.3521     -1.2364
-------------------------------------------------------------------------------
   40 O2    x      -1.7026     -0.6617     -0.3340
            y      -0.6182     -1.9442     -0.3664
            z      -0.3859     -0.3253     -1.2545
-------------------------------------------------------------------------------
   41 O2    x      -1.6501      0.7000      0.3031
            y       0.5822     -2.0688     -0.3456
            z       0.3446     -0.3325     -1.1981
-------------------------------------------------------------------------------
   42 O2    x      -1.7270      0.6705     -0.4009
            y       0.6062     -1.9264      0.4259
            z      -0.4032      0.3691     -1.3004
-------------------------------------------------------------------------------
   43 O2    x      -1.7692     -0.7180      0.3159
            y      -0.6789     -1.9136      0.3481
            z       0.3320      0.3434     -1.2537
-------------------------------------------------------------------------------
   44 O3    x      -2.1801     -0.9850     -0.4055
            y      -0.9449     -2.2970     -0.4022
            z      -0.3762     -0.3505     -1.4327
-------------------------------------------------------------------------------
   45 O2    x      -1.7416      0.7067      0.3367
            y       0.6698     -1.9186     -0.3728
            z       0.3335     -0.3532     -1.2643
-------------------------------------------------------------------------------
   46 O3    x      -2.1676      0.9634     -0.3069
            y       0.9514     -2.2845      0.3503
            z      -0.3557      0.3219     -1.4295
-------------------------------------------------------------------------------
   47 O2    x      -1.8132     -0.0003     -0.5968
            y       0.0007     -1.1923      0.0046
            z      -0.3484      0.0093     -1.6742
-------------------------------------------------------------------------------
   48 O2    x      -1.7336      0.0252      0.5543
            y       0.0258     -1.2472      0.0131
            z       0.2862      0.0175     -1.7668
-------------------------------------------------------------------------------
   49 O3    x      -1.3422     -0.0286      0.0659
            y       0.0133     -3.2384      0.0584
            z       0.0927      0.1100     -1.1670
-------------------------------------------------------------------------------
   50 O2    x      -1.1745      0.0785     -0.0457
            y       0.1115     -2.5511      0.0023
            z      -0.0785      0.0093     -1.0799
-------------------------------------------------------------------------------
   51 O2    x      -1.1836     -0.0394      0.0463
            y      -0.0742     -2.5924     -0.0130
            z       0.0680     -0.0301     -1.0526
-------------------------------------------------------------------------------
   52 O2    x      -1.1701     -0.0477     -0.0473
            y      -0.0695     -2.5559      0.0098
            z      -0.0767      0.0113     -1.0620
-------------------------------------------------------------------------------
   53 O3    x      -2.9449     -0.1898      0.1464
            y      -0.1356     -1.4028      0.1149
            z       0.1729      0.0860     -1.2706
-------------------------------------------------------------------------------
   54 O2    x      -2.4498     -0.0598      0.0287
            y      -0.0071     -1.2266     -0.0607
            z       0.0418     -0.0260     -1.0984
-------------------------------------------------------------------------------
   55 O2    x      -2.3863      0.0912      0.0623
            y       0.0472     -1.2559     -0.0702
            z       0.0416     -0.0456     -1.0827
-------------------------------------------------------------------------------
   56 O2    x      -2.4038      0.0856      0.0291
            y       0.0327     -1.2371      0.0686
            z       0.0389      0.0354     -1.0766
-------------------------------------------------------------------------------
   57 O1    x      -1.4114     -0.1659     -0.0396
            y      -0.1035     -1.6000      0.0357
            z      -0.0210      0.0135     -2.6984
-------------------------------------------------------------------------------
   58 O2    x      -1.1814     -0.1351      0.0004
            y      -0.0753     -1.2766     -0.0071
            z      -0.0163      0.0103     -2.0836
-------------------------------------------------------------------------------
   59 O3    x      -1.3188      0.1594     -0.0827
            y       0.1019     -1.4783      0.0625
            z      -0.0486      0.0601     -2.5976
-------------------------------------------------------------------------------
   60 O2    x      -1.1728      0.1337      0.0060
            y       0.0798     -1.2830     -0.0001
            z      -0.0267     -0.0162     -2.0714
-------------------------------------------------------------------------------
   61 O2    x      -1.2159     -0.1343     -0.0607
            y      -0.1167     -1.2733     -0.0331
            z      -0.0755     -0.0245     -2.0622
-------------------------------------------------------------------------------
   62 O2    x      -1.1831     -0.1133      0.0626
            y      -0.1023     -1.2887     -0.0043
            z       0.0627     -0.0286     -2.0955
-------------------------------------------------------------------------------
   63 O2    x      -1.2438      0.1282     -0.0488
            y       0.1068     -1.2623      0.0018
            z      -0.0583     -0.0122     -2.0792
-------------------------------------------------------------------------------
   64 O2    x      -1.1956      0.0922      0.0153
            y       0.0858     -1.2991      0.0033
            z       0.0165      0.0156     -2.1087
-------------------------------------------------------------------------------
   65 O2    x      -1.2356     -0.0886      0.0834
            y      -0.1727     -2.4950      0.0133
            z       0.1056      0.0270     -1.0372
-------------------------------------------------------------------------------
   66 O3    x      -1.4212      0.0303     -0.0974
            y      -0.0714     -3.1322      0.1053
            z      -0.1284      0.0837     -1.1296
-------------------------------------------------------------------------------
   67 O2    x      -1.2412      0.0844      0.0735
            y       0.1517     -2.4946     -0.0007
            z       0.1057     -0.0256     -1.0363
-------------------------------------------------------------------------------
   68 O3    x      -1.4343     -0.0307     -0.0785
            y       0.0591     -3.1815     -0.1101
            z      -0.1146     -0.1109     -1.1116
-------------------------------------------------------------------------------
   69 O3    x      -3.0184      0.1575     -0.0607
            y       0.1356     -1.3853      0.0989
            z      -0.0873      0.0525     -1.2203
-------------------------------------------------------------------------------
   70 O2    x      -2.4672      0.0613      0.0368
            y       0.0252     -1.2277     -0.0543
            z       0.0157     -0.0215     -1.0641
-------------------------------------------------------------------------------
   71 O3    x      -3.0038     -0.1820     -0.1083
            y      -0.1530     -1.3929     -0.1050
            z      -0.1537     -0.0642     -1.2357
-------------------------------------------------------------------------------
   72 O2    x      -2.4873     -0.0642      0.0353
            y      -0.0161     -1.2260      0.0544
            z       0.0021      0.0182     -1.0670
-------------------------------------------------------------------------------




  Elastic Constant Matrix: (Units=GPa)

-------------------------------------------------------------------------------
  Indices      1         2         3         4         5         6    
-------------------------------------------------------------------------------
       1     51.9842   29.2465   26.0809   -0.0716   -4.0525   -4.0479
       2     29.2465   83.7400   21.1816   -0.1316   -2.2681   -3.1297
       3     26.0809   21.1816   48.3440    0.6603   -2.5993   -1.0081
       4     -0.0716   -0.1316    0.6603   12.1378    0.1951   -2.0427
       5     -4.0525   -2.2681   -2.5993    0.1951   25.8804   -0.9092
       6     -4.0479   -3.1297   -1.0081   -2.0427   -0.9092   22.3903
-------------------------------------------------------------------------------


  Elastic Compliance Matrix: (Units=1/GPa)

-------------------------------------------------------------------------------
  Indices      1         2         3         4         5         6    
-------------------------------------------------------------------------------
       1    0.030295 -0.007047 -0.013031  0.001463  0.002953  0.004159
       2   -0.007047  0.015145 -0.002826  0.000403 -0.000037  0.000751
       3   -0.013031 -0.002826  0.028978 -0.001963  0.000581 -0.001602
       4    0.001463  0.000403 -0.001963  0.083836 -0.000288  0.007869
       5    0.002953 -0.000037  0.000581 -0.000288  0.039233  0.002122
       6    0.004159  0.000751 -0.001602  0.007869  0.002122  0.046251
-------------------------------------------------------------------------------

  Mechanical properties :

-------------------------------------------------------------------------------
  Convention :                    Reuss         Voigt         Hill
-------------------------------------------------------------------------------
  Bulk  Modulus (GPa)     =      34.95157      37.45403      36.20280
  Shear Modulus (GPa)     =      16.71780      19.25231      17.98505
-------------------------------------------------------------------------------
  Velocity S-wave (km/s)  =       2.92314       3.13691       3.03191
  Velocity P-wave (km/s)  =       5.40901       5.68011       5.54622
-------------------------------------------------------------------------------
  Compressibility (1/GPa) =    0.02861102
-------------------------------------------------------------------------------
  Stress axis :                     x             y             z
-------------------------------------------------------------------------------
  Youngs Moduli (GPa)     =      33.00898      66.02668      34.50925
-------------------------------------------------------------------------------
  Poissons Ratio (x)      =                     0.46528       0.44968
  Poissons Ratio (y)      =       0.23261                     0.09752
  Poissons Ratio (z)      =       0.43013       0.18659
-------------------------------------------------------------------------------


  Piezoelectric Strain Matrix: (Units=C/m**2)

-------------------------------------------------------------------------------
  Indices      1         2         3         4         5         6    
-------------------------------------------------------------------------------
       x    -0.08692  -0.06714  -0.42780   0.68053   0.00755   0.35305
       y     0.42595   1.53510   0.29039  -0.06062   0.54023  -0.04414
       z    -0.40339  -0.36372  -0.37095  -0.25565  -0.20116   0.10845
-------------------------------------------------------------------------------


  Piezoelectric Stress Matrix: (Units=10**-11 C/N)

-------------------------------------------------------------------------------
  Indices      1         2         3         4         5         6    
-------------------------------------------------------------------------------
       x     0.59010   0.13441  -1.29712   6.05149   0.03468   2.19738
       y    -0.03746   1.93500  -0.09704  -0.49123   2.24891   0.10872
       z    -0.53409  -0.16321  -0.42537  -2.05300  -0.89818   0.12209
-------------------------------------------------------------------------------


  Static dielectric constant tensor : 

-------------------------------------------------------------------------------
              x         y         z
-------------------------------------------------------------------------------
       x     4.06223  -0.00112  -0.02597
       y    -0.00112   4.14801  -0.01826
       z    -0.02597  -0.01826   3.16559
--------------------------------------------------------------------------------

  High frequency dielectric constant tensor : 

-------------------------------------------------------------------------------
              x         y         z
-------------------------------------------------------------------------------
       x     1.68087   0.00004  -0.00113
       y     0.00004   1.68701  -0.00035
       z    -0.00113  -0.00035   1.62155
-------------------------------------------------------------------------------

  Static refractive indices : 

-------------------------------------------------------------------------------
    1 =    1.77890      2 =    2.01568      3 =    2.03675
-------------------------------------------------------------------------------

  High frequency refractive indices : 

-------------------------------------------------------------------------------
    1 =    1.27339      2 =    1.29649      3 =    1.29885
-------------------------------------------------------------------------------


  Time to end of optimisation =      12.1538 seconds


  Peak dynamic memory used =       5.01 MB 


  Timing analysis for GULP :

--------------------------------------------------------------------------------
  Task / Subroutine                                          Time (Seconds)
--------------------------------------------------------------------------------
  Calculation of reciprocal space energy and derivatives          0.8300
  Calculation of real space energy and derivatives                7.8432
  Calculation of three-body energy and derivatives                0.7608
  Calculation and manipulation of Hessian matrix                  3.4926
  Calculation of matrix inversion                                 0.0430
  Global summation overhead                                       0.0002
--------------------------------------------------------------------------------
  Total CPU time                                                 12.1539
--------------------------------------------------------------------------------


  Dump file written as c00260.vasp.grs
  CIF file written as c00260.vasp.cif


  Job Finished at 12:13.51  7th October    2025                               

