********************************************************************************
*                       GENERAL UTILITY LATTICE PROGRAM                        *
*                                 Julian Gale                                  *
*                       Curtin Institute for Computation                       *
*                    School of Molecular and Life Sciences                     *
*                    Curtin University, Western Australia                      *
********************************************************************************
* Version = 6.1.2 * Last modified =   3rd November 2022                        *
********************************************************************************
*  optimise     - perform optimisation run                                     *
*  conp         - constant pressure calculation                                *
*  property     - calculate properties for final geometry                      *
********************************************************************************

  Job Started  at 12:07.35  7th October    2025                               

  Number of CPUs =     1


  Total number of configurations input =      1

********************************************************************************
*  Input for Configuration =   1 : c00228.vasp                                 *
********************************************************************************

  Formula = Ge3Si21O48                                                  

  Number of irreducible atoms/shells =     120


  Total number atoms/shells =     120

  Dimensionality = 3               :  Bulk   



  Cartesian lattice vectors (Angstroms) :

       17.182800    0.000000    0.000000
        0.000000    7.513760    0.000000
        0.000000    0.000000   10.447700

  Cell parameters (Angstroms/Degrees):

  a =      17.1828    alpha =  90.0000
  b =       7.5138    beta  =  90.0000
  c =      10.4477    gamma =  90.0000

  Initial cell volume =        1348.875752 Angs**3

  Temperature of configuration =   0.00     K 

  Pressure of configuration =         0.000 GPa 

  Fractional coordinates of asymmetric unit :

--------------------------------------------------------------------------------
   No.  Atomic       x           y          z         Charge      Occupancy
        Label      (Frac)      (Frac)     (Frac)        (e)         (Frac)  
--------------------------------------------------------------------------------
      1 Ge    c    0.160190    0.293910    0.273440     4.00000    1.000000    
      2 Ge    c    0.160190 *  0.706090 *  0.273440 *   4.00000    1.000000    
      3 Ge    c    0.339340 *  0.294090 *  0.982560 *   4.00000    1.000000    
      4 Si    c    0.052090 *  0.000000 *  0.372270 *   4.00000    1.000000    
      5 Si    c    0.447910 *  0.000000 *  0.372270 *   4.00000    1.000000    
      6 Si    c    0.947910 *  0.000000 *  0.627730 *   4.00000    1.000000    
      7 Si    c    0.552090 *  0.000000 *  0.627730 *   4.00000    1.000000    
      8 Si    c    0.556730 *  0.000000 *  0.122130 *   4.00000    1.000000    
      9 Si    c    0.943270 *  0.000000 *  0.122130 *   4.00000    1.000000    
     10 Si    c    0.443270 *  0.000000 *  0.877870 *   4.00000    1.000000    
     11 Si    c    0.056730 *  0.000000 *  0.877870 *   4.00000    1.000000    
     12 Si    c    0.339810 *  0.706090 *  0.273440 *   4.00000    1.000000    
     13 Si    c    0.839810 *  0.293910 *  0.726560 *   4.00000    1.000000    
     14 Si    c    0.660190 *  0.706090 *  0.726560 *   4.00000    1.000000    
     15 Si    c    0.839810 *  0.706090 *  0.726560 *   4.00000    1.000000    
     16 Si    c    0.660190 *  0.293910 *  0.726560 *   4.00000    1.000000    
     17 Si    c    0.339810 *  0.293910 *  0.273440 *   4.00000    1.000000    
     18 Si    c    0.660660 *  0.294090 *  0.017440 *   4.00000    1.000000    
     19 Si    c    0.839340 *  0.705910 *  0.017440 *   4.00000    1.000000    
     20 Si    c    0.160660 *  0.705910 *  0.982560 *   4.00000    1.000000    
     21 Si    c    0.339340 *  0.705910 *  0.982560 *   4.00000    1.000000    
     22 Si    c    0.160660 *  0.294090 *  0.982560 *   4.00000    1.000000    
     23 Si    c    0.660660 *  0.705910 *  0.017440 *   4.00000    1.000000    
     24 Si    c    0.839340 *  0.294090 *  0.017440 *   4.00000    1.000000    
     25 O3    c    0.106570 *  0.174340 *  0.366200 *   1.33043    1.000000    
     26 O2    c    0.393430 *  0.825660 *  0.366200 *   0.87073    1.000000    
     27 O2    c    0.893430 *  0.174340 *  0.633800 *   0.87073    1.000000    
     28 O2    c    0.606570 *  0.825660 *  0.633800 *   0.87073    1.000000    
     29 O2    c    0.893430 *  0.825660 *  0.633800 *   0.87073    1.000000    
     30 O2    c    0.606570 *  0.174340 *  0.633800 *   0.87073    1.000000    
     31 O3    c    0.106570 *  0.825660 *  0.366200 *   1.33043    1.000000    
     32 O2    c    0.393430 *  0.174340 *  0.366200 *   0.87073    1.000000    
     33 O2    c    0.000000 *  0.000000 *  0.500000 *   0.87073    1.000000    
     34 O2    c    0.500000 *  0.000000 *  0.500000 *   0.87073    1.000000    
     35 O2    c    0.994520 *  0.000000 *  0.250840 *   0.87073    1.000000    
     36 O2    c    0.505480 *  0.000000 *  0.250840 *   0.87073    1.000000    
     37 O2    c    0.005480 *  0.000000 *  0.749160 *   0.87073    1.000000    
     38 O2    c    0.494520 *  0.000000 *  0.749160 *   0.87073    1.000000    
     39 O2    c    0.610230 *  0.175520 *  0.115390 *   0.87073    1.000000    
     40 O2    c    0.889770 *  0.824480 *  0.115390 *   0.87073    1.000000    
     41 O3    c    0.389770 *  0.175520 *  0.884610 *   1.33043    1.000000    
     42 O2    c    0.110230 *  0.824480 *  0.884610 *   0.87073    1.000000    
     43 O2    c    0.389770 *  0.824480 *  0.884610 *   0.87073    1.000000    
     44 O2    c    0.110230 *  0.175520 *  0.884610 *   0.87073    1.000000    
     45 O2    c    0.610230 *  0.824480 *  0.115390 *   0.87073    1.000000    
     46 O2    c    0.889770 *  0.175520 *  0.115390 *   0.87073    1.000000    
     47 O2    c    0.500000 *  0.000000 *  0.000000 *   0.87073    1.000000    
     48 O2    c    0.000000 *  0.000000 *  0.000000 *   0.87073    1.000000    
     49 O1    c    0.151750 *  0.500000 *  0.313330 *   1.73396    1.000000    
     50 O2    c    0.348250 *  0.500000 *  0.313330 *   0.87073    1.000000    
     51 O2    c    0.848250 *  0.500000 *  0.686670 *   0.87073    1.000000    
     52 O2    c    0.651750 *  0.500000 *  0.686670 *   0.87073    1.000000    
     53 O3    c    0.250000 *  0.234950 *  0.285720 *   1.33043    1.000000    
     54 O3    c    0.250000 *  0.765050 *  0.285720 *   1.33043    1.000000    
     55 O2    c    0.750000 *  0.234950 *  0.714280 *   0.87073    1.000000    
     56 O2    c    0.750000 *  0.765050 *  0.714280 *   0.87073    1.000000    
     57 O3    c    0.131410 *  0.268650 *  0.127790 *   1.33043    1.000000    
     58 O2    c    0.368590 *  0.731350 *  0.127790 *   0.87073    1.000000    
     59 O2    c    0.868590 *  0.268650 *  0.872210 *   0.87073    1.000000    
     60 O2    c    0.631410 *  0.731350 *  0.872210 *   0.87073    1.000000    
     61 O2    c    0.868590 *  0.731350 *  0.872210 *   0.87073    1.000000    
     62 O2    c    0.631410 *  0.268650 *  0.872210 *   0.87073    1.000000    
     63 O3    c    0.131410 *  0.731350 *  0.127790 *   1.33043    1.000000    
     64 O3    c    0.368590 *  0.268650 *  0.127790 *   1.33043    1.000000    
     65 O2    c    0.653920 *  0.500000 *  0.058200 *   0.87073    1.000000    
     66 O2    c    0.846080 *  0.500000 *  0.058200 *   0.87073    1.000000    
     67 O3    c    0.346080 *  0.500000 *  0.941800 *   1.33043    1.000000    
     68 O2    c    0.153920 *  0.500000 *  0.941800 *   0.87073    1.000000    
     69 O2    c    0.750000 *  0.231060 *  0.027050 *   0.87073    1.000000    
     70 O2    c    0.750000 *  0.768940 *  0.027050 *   0.87073    1.000000    
     71 O3    c    0.250000 *  0.231060 *  0.972950 *   1.33043    1.000000    
     72 O2    c    0.250000 *  0.768940 *  0.972950 *   0.87073    1.000000    
     73 O3    s    0.106570 *  0.174340 *  0.366200 *  -3.33043    1.000000    
     74 O2    s    0.393430 *  0.825660 *  0.366200 *  -2.87073    1.000000    
     75 O2    s    0.893430 *  0.174340 *  0.633800 *  -2.87073    1.000000    
     76 O2    s    0.606570 *  0.825660 *  0.633800 *  -2.87073    1.000000    
     77 O2    s    0.893430 *  0.825660 *  0.633800 *  -2.87073    1.000000    
     78 O2    s    0.606570 *  0.174340 *  0.633800 *  -2.87073    1.000000    
     79 O3    s    0.106570 *  0.825660 *  0.366200 *  -3.33043    1.000000    
     80 O2    s    0.393430 *  0.174340 *  0.366200 *  -2.87073    1.000000    
     81 O2    s    0.000000 *  0.000000 *  0.500000 *  -2.87073    1.000000    
     82 O2    s    0.500000 *  0.000000 *  0.500000 *  -2.87073    1.000000    
     83 O2    s    0.994520 *  0.000000 *  0.250840 *  -2.87073    1.000000    
     84 O2    s    0.505480 *  0.000000 *  0.250840 *  -2.87073    1.000000    
     85 O2    s    0.005480 *  0.000000 *  0.749160 *  -2.87073    1.000000    
     86 O2    s    0.494520 *  0.000000 *  0.749160 *  -2.87073    1.000000    
     87 O2    s    0.610230 *  0.175520 *  0.115390 *  -2.87073    1.000000    
     88 O2    s    0.889770 *  0.824480 *  0.115390 *  -2.87073    1.000000    
     89 O3    s    0.389770 *  0.175520 *  0.884610 *  -3.33043    1.000000    
     90 O2    s    0.110230 *  0.824480 *  0.884610 *  -2.87073    1.000000    
     91 O2    s    0.389770 *  0.824480 *  0.884610 *  -2.87073    1.000000    
     92 O2    s    0.110230 *  0.175520 *  0.884610 *  -2.87073    1.000000    
     93 O2    s    0.610230 *  0.824480 *  0.115390 *  -2.87073    1.000000    
     94 O2    s    0.889770 *  0.175520 *  0.115390 *  -2.87073    1.000000    
     95 O2    s    0.500000 *  0.000000 *  0.000000 *  -2.87073    1.000000    
     96 O2    s    0.000000 *  0.000000 *  0.000000 *  -2.87073    1.000000    
     97 O1    s    0.151750 *  0.500000 *  0.313330 *  -3.73396    1.000000    
     98 O2    s    0.348250 *  0.500000 *  0.313330 *  -2.87073    1.000000    
     99 O2    s    0.848250 *  0.500000 *  0.686670 *  -2.87073    1.000000    
    100 O2    s    0.651750 *  0.500000 *  0.686670 *  -2.87073    1.000000    
    101 O3    s    0.250000 *  0.234950 *  0.285720 *  -3.33043    1.000000    
    102 O3    s    0.250000 *  0.765050 *  0.285720 *  -3.33043    1.000000    
    103 O2    s    0.750000 *  0.234950 *  0.714280 *  -2.87073    1.000000    
    104 O2    s    0.750000 *  0.765050 *  0.714280 *  -2.87073    1.000000    
    105 O3    s    0.131410 *  0.268650 *  0.127790 *  -3.33043    1.000000    
    106 O2    s    0.368590 *  0.731350 *  0.127790 *  -2.87073    1.000000    
    107 O2    s    0.868590 *  0.268650 *  0.872210 *  -2.87073    1.000000    
    108 O2    s    0.631410 *  0.731350 *  0.872210 *  -2.87073    1.000000    
    109 O2    s    0.868590 *  0.731350 *  0.872210 *  -2.87073    1.000000    
    110 O2    s    0.631410 *  0.268650 *  0.872210 *  -2.87073    1.000000    
    111 O3    s    0.131410 *  0.731350 *  0.127790 *  -3.33043    1.000000    
    112 O3    s    0.368590 *  0.268650 *  0.127790 *  -3.33043    1.000000    
    113 O2    s    0.653920 *  0.500000 *  0.058200 *  -2.87073    1.000000    
    114 O2    s    0.846080 *  0.500000 *  0.058200 *  -2.87073    1.000000    
    115 O3    s    0.346080 *  0.500000 *  0.941800 *  -3.33043    1.000000    
    116 O2    s    0.153920 *  0.500000 *  0.941800 *  -2.87073    1.000000    
    117 O2    s    0.750000 *  0.231060 *  0.027050 *  -2.87073    1.000000    
    118 O2    s    0.750000 *  0.768940 *  0.027050 *  -2.87073    1.000000    
    119 O3    s    0.250000 *  0.231060 *  0.972950 *  -3.33043    1.000000    
    120 O2    s    0.250000 *  0.768940 *  0.972950 *  -2.87073    1.000000    
--------------------------------------------------------------------------------



********************************************************************************
*  General input information                                                   *
********************************************************************************

  Species output for all configurations : 

--------------------------------------------------------------------------------
  Species    Type    Atomic    Atomic    Charge       Radii (Angs)     Library
                     Number     Mass       (e)     Cova   Ionic  VDW   Symbol
--------------------------------------------------------------------------------
    Ge       Core       32      72.61   4.000000   1.170  0.000  1.750 Ge       
    Si       Core       14      28.09   4.000000   1.200  0.000  2.100 Si       
    O1       Core        8      16.00   1.733957   0.730  0.000  1.360 O1       
    O2       Core        8      16.00   0.870733   0.730  0.000  1.360 O2       
    O3       Core        8      16.00   1.330431   0.730  0.000  1.360 O3       
    O1       Shell       8       0.00  -3.733957   0.730  0.000  0.000 O1       
    O2       Shell       8       0.00  -2.870733   0.730  0.000  0.000 O2       
    O3       Shell       8       0.00  -3.330431   0.730  0.000  0.000 O3       
--------------------------------------------------------------------------------


  Lattice summation method               =    Ewald          (3-D)
                                         =    Parry          (2-D)
                                         =    Saunders et al (1-D)
  Accuracy factor for lattice sums       =   12.000


  Analytic derivatives to be used

  Time limit = Infinity

  Maximum range for interatomic potentials =    100000.000000 Angstroms

  General interatomic potentials :

--------------------------------------------------------------------------------
Atom  Types   Potential      Parameter       Value         Units   Cutoffs(Ang)
  1     2                                                            Min /  Max 
--------------------------------------------------------------------------------
Si   c O1   s Buckingham    Buckingham A     1315.2478    eV        0.000 16.000
                            Buckingham rho  0.31775900    Ang       
                            Buckingham C     10.141118    eV*Ang^6  
--------------------------------------------------------------------------------
Si   c O2   s Buckingham    Buckingham A     1315.2478    eV        0.000 16.000
                            Buckingham rho  0.31775900    Ang       
                            Buckingham C     10.141118    eV*Ang^6  
--------------------------------------------------------------------------------
Si   c O3   s Buckingham    Buckingham A     1315.2478    eV        0.000 16.000
                            Buckingham rho  0.31775900    Ang       
                            Buckingham C     10.141118    eV*Ang^6  
--------------------------------------------------------------------------------
Ge   c O1   s Buckingham    Buckingham A     1497.3996    eV        0.000 16.000
                            Buckingham rho  0.32564600    Ang       
                            Buckingham C     16.808599    eV*Ang^6  
--------------------------------------------------------------------------------
Ge   c O2   s Buckingham    Buckingham A     1497.3996    eV        0.000 16.000
                            Buckingham rho  0.32564600    Ang       
                            Buckingham C     16.808599    eV*Ang^6  
--------------------------------------------------------------------------------
Ge   c O3   s Buckingham    Buckingham A     1497.3996    eV        0.000 16.000
                            Buckingham rho  0.32564600    Ang       
                            Buckingham C     16.808599    eV*Ang^6  
--------------------------------------------------------------------------------
O1   s O1   s Buckingham    Buckingham A     22764.000    eV        0.000 16.000
                            Buckingham rho  0.14900000    Ang       
                            Buckingham C     10.937044    eV*Ang^6  
--------------------------------------------------------------------------------
O1   s O2   s Buckingham    Buckingham A     22764.000    eV        0.000 16.000
                            Buckingham rho  0.14900000    Ang       
                            Buckingham C     10.937044    eV*Ang^6  
--------------------------------------------------------------------------------
O1   s O3   s Buckingham    Buckingham A     22764.000    eV        0.000 16.000
                            Buckingham rho  0.14900000    Ang       
                            Buckingham C     10.937044    eV*Ang^6  
--------------------------------------------------------------------------------
O2   s O2   s Buckingham    Buckingham A     22764.000    eV        0.000 16.000
                            Buckingham rho  0.14900000    Ang       
                            Buckingham C     10.937044    eV*Ang^6  
--------------------------------------------------------------------------------
O2   s O3   s Buckingham    Buckingham A     22764.000    eV        0.000 16.000
                            Buckingham rho  0.14900000    Ang       
                            Buckingham C     10.937044    eV*Ang^6  
--------------------------------------------------------------------------------
O3   s O3   s Buckingham    Buckingham A     22764.000    eV        0.000 16.000
                            Buckingham rho  0.14900000    Ang       
                            Buckingham C     10.937044    eV*Ang^6  
--------------------------------------------------------------------------------
O1   c O1   s Spring (c-s)  Spring k 2       180.31577    eV*Ang^-2 0.000  0.800
                            Spring k 4       0.0000000    eV*Ang^-4 
--------------------------------------------------------------------------------
O2   c O2   s Spring (c-s)  Spring k 2       75.969800    eV*Ang^-2 0.000  0.800
                            Spring k 4       0.0000000    eV*Ang^-4 
--------------------------------------------------------------------------------
O3   c O3   s Spring (c-s)  Spring k 2       128.14270    eV*Ang^-2 0.000  0.800
                            Spring k 4       0.0000000    eV*Ang^-4 
--------------------------------------------------------------------------------

  General Three-body potentials :

--------------------------------------------------------------------------------
  Atoms       Potential      Parameter       Value         Units   Cutoffs(Ang)
  1 / 2 / 3                                                          Min /  Max 
--------------------------------------------------------------------------------
Si    core    Harmonic      Three-body cnst  1.2614000    eV*rad^-2 0.000  1.900
O1    shel                  Three-body angl  109.47000    degrees   0.000  1.900
O1    shel                  Three-body k4    0.0000000    eV*rad^-4 0.000  3.500
                            Three-body k3    0.0000000    eV*rad^-3 
--------------------------------------------------------------------------------
Si    core    Harmonic      Three-body cnst  1.2614000    eV*rad^-2 0.000  1.900
O1    shel                  Three-body angl  109.47000    degrees   0.000  1.900
õ(1   shel                  Three-body k4    0.0000000    eV*rad^-4 0.000  3.500
                            Three-body k3    0.0000000    eV*rad^-3 
--------------------------------------------------------------------------------
Si    core    Harmonic      Three-body cnst  1.2614000    eV*rad^-2 0.000  1.900
õ(1   shel                  Three-body angl  109.47000    degrees   0.000  1.900
õ(1   shel                  Three-body k4    0.0000000    eV*rad^-4 0.000  3.500
                            Three-body k3    0.0000000    eV*rad^-3 
--------------------------------------------------------------------------------
Si    core    Harmonic      Three-body cnst  1.2614000    eV*rad^-2 0.000  1.900
O1    shel                  Three-body angl  109.47000    degrees   0.000  1.900
O2    shel                  Three-body k4    0.0000000    eV*rad^-4 0.000  3.500
                            Three-body k3    0.0000000    eV*rad^-3 
--------------------------------------------------------------------------------
Si    core    Harmonic      Three-body cnst  1.2614000    eV*rad^-2 0.000  1.900
O1    shel                  Three-body angl  109.47000    degrees   0.000  1.900
õ(2   shel                  Three-body k4    0.0000000    eV*rad^-4 0.000  3.500
                            Three-body k3    0.0000000    eV*rad^-3 
--------------------------------------------------------------------------------
Si    core    Harmonic      Three-body cnst  1.2614000    eV*rad^-2 0.000  1.900
O2    shel                  Three-body angl  109.47000    degrees   0.000  1.900
õ(1   shel                  Three-body k4    0.0000000    eV*rad^-4 0.000  3.500
                            Three-body k3    0.0000000    eV*rad^-3 
--------------------------------------------------------------------------------
Si    core    Harmonic      Three-body cnst  1.2614000    eV*rad^-2 0.000  1.900
õ(1   shel                  Three-body angl  109.47000    degrees   0.000  1.900
õ(2   shel                  Three-body k4    0.0000000    eV*rad^-4 0.000  3.500
                            Three-body k3    0.0000000    eV*rad^-3 
--------------------------------------------------------------------------------
Si    core    Harmonic      Three-body cnst  1.2614000    eV*rad^-2 0.000  1.900
O2    shel                  Three-body angl  109.47000    degrees   0.000  1.900
O2    shel                  Three-body k4    0.0000000    eV*rad^-4 0.000  3.500
                            Three-body k3    0.0000000    eV*rad^-3 
--------------------------------------------------------------------------------
Si    core    Harmonic      Three-body cnst  1.2614000    eV*rad^-2 0.000  1.900
O2    shel                  Three-body angl  109.47000    degrees   0.000  1.900
õ(2   shel                  Three-body k4    0.0000000    eV*rad^-4 0.000  3.500
                            Three-body k3    0.0000000    eV*rad^-3 
--------------------------------------------------------------------------------
Si    core    Harmonic      Three-body cnst  1.2614000    eV*rad^-2 0.000  1.900
õ(2   shel                  Three-body angl  109.47000    degrees   0.000  1.900
õ(2   shel                  Three-body k4    0.0000000    eV*rad^-4 0.000  3.500
                            Three-body k3    0.0000000    eV*rad^-3 
--------------------------------------------------------------------------------

********************************************************************************
*  Output for configuration   1 : c00228.vasp                                  *
********************************************************************************


  Components of energy : 

--------------------------------------------------------------------------------
  Interatomic potentials     =         760.29124375 eV    
  Three-body potentials      =           0.01537491 eV    
  Monopole - monopole (real) =       -2676.00317478 eV    
  Monopole - monopole (recip)=       -1115.35404472 eV    
  Monopole - monopole (total)=       -3791.35721950 eV    
--------------------------------------------------------------------------------
  Total lattice energy       =       -3031.05060085 eV    
--------------------------------------------------------------------------------
  Total lattice energy       =         -292450.0491 kJ/(mole unit cells)
--------------------------------------------------------------------------------


  Number of variables =      363

  Maximum number of calculations  =          1000
  Maximum Hessian update interval =            10
  Maximum step size               =   0.100000000
  Maximum parameter tolerance     =   0.000010000
  Maximum function  tolerance     =   0.000010000
  Maximum gradient  tolerance     =   0.001000000
  Maximum gradient  component     =   0.010000000

  Symmetry not applied to optimisation

  Cell parameters to be optimised using strains

  Newton-Raphson optimiser to be used

  BFGS hessian update to be used

  Lower half triangular hessian to be used

  Minimiser to switch to RFO
  When gradient norm is less than     0.050000

  Dumpfile to be written after every cycle

  Start of bulk optimisation :

  Cycle:      0 Energy:     -3031.050601  Gnorm:      4.456901  CPU:    0.129
  ** Hessian calculated **
  Cycle:      1 Energy:     -3043.982743  Gnorm:      3.577217  CPU:    0.348
  ** Hessian calculated **
  Cycle:      2 Energy:     -3055.158916  Gnorm:      2.543660  CPU:    0.652
  ** Hessian calculated **
  Cycle:      3 Energy:     -3065.302432  Gnorm:      0.569976  CPU:    0.870
  ** Hessian calculated **
  Cycle:      4 Energy:     -3066.168999  Gnorm:      0.321427  CPU:    1.087
  Cycle:      5 Energy:     -3066.465713  Gnorm:      0.208660  CPU:    1.199
  Cycle:      6 Energy:     -3066.697995  Gnorm:      0.157424  CPU:    1.334
  Cycle:      7 Energy:     -3066.910112  Gnorm:      0.125856  CPU:    1.467
  Cycle:      8 Energy:     -3067.056278  Gnorm:      0.114459  CPU:    1.580
  Cycle:      9 Energy:     -3067.156299  Gnorm:      0.090701  CPU:    1.693
  Cycle:     10 Energy:     -3067.213797  Gnorm:      0.071143  CPU:    1.806
  Cycle:     11 Energy:     -3067.253418  Gnorm:      0.062055  CPU:    1.947
  Cycle:     12 Energy:     -3067.286405  Gnorm:      0.061770  CPU:    2.093
  Cycle:     13 Energy:     -3067.316237  Gnorm:      0.064151  CPU:    2.216
  ** Hessian calculated **
  Cycle:     14 Energy:     -3067.343401  Gnorm:      0.062790  CPU:    2.475
  Cycle:     15 Energy:     -3067.389624  Gnorm:      0.060314  CPU:    2.642
  Cycle:     16 Energy:     -3067.451345  Gnorm:      0.056756  CPU:    2.783
  Cycle:     17 Energy:     -3067.528057  Gnorm:      0.052101  CPU:    2.946
  Cycle:     18 Energy:     -3067.542019  Gnorm:      0.052095  CPU:    3.089
  ** Hessian calculated **
  Cycle:     19 Energy:     -3067.726625  Gnorm:      0.039320  CPU:    3.344
  ** Hessian has wrong structure
  ** Imaginary eigenvectors =   2
  Cycle:     20 Energy:     -3067.733111  Gnorm:      0.055566  CPU:    3.675
  ** Hessian has wrong structure
  ** Imaginary eigenvectors =   1
  ** Hessian has required structure
  Cycle:     21 Energy:     -3067.912684  Gnorm:      0.030105  CPU:    4.312
  ** Hessian has required structure
  Cycle:     22 Energy:     -3067.974114  Gnorm:      0.020272  CPU:    4.517
  ** Hessian has required structure
  Cycle:     23 Energy:     -3067.992961  Gnorm:      0.025596  CPU:    4.726
  ** Hessian has required structure
  Cycle:     24 Energy:     -3068.016184  Gnorm:      0.014977  CPU:    4.892
  ** Hessian has required structure
  Cycle:     25 Energy:     -3068.023468  Gnorm:      0.010995  CPU:    5.100
  ** Hessian has required structure
  Cycle:     26 Energy:     -3068.028882  Gnorm:      0.011835  CPU:    5.282
  ** Hessian has required structure
  Cycle:     27 Energy:     -3068.032305  Gnorm:      0.009597  CPU:    5.465
  ** Hessian has required structure
  Cycle:     28 Energy:     -3068.035132  Gnorm:      0.008239  CPU:    5.670
  ** Hessian has required structure
  Cycle:     29 Energy:     -3068.036794  Gnorm:      0.007319  CPU:    5.851
  ** Hessian has required structure
  Cycle:     30 Energy:     -3068.038420  Gnorm:      0.004822  CPU:    6.034
  ** Hessian has wrong structure
  ** Imaginary eigenvectors =   1
  Cycle:     31 Energy:     -3068.044480  Gnorm:      0.013624  CPU:    6.486
  ** Hessian has wrong structure
  ** Imaginary eigenvectors =   1
  Cycle:     32 Energy:     -3068.058151  Gnorm:      0.027013  CPU:    6.906
  ** Hessian has required structure
  Cycle:     33 Energy:     -3068.094500  Gnorm:      0.021052  CPU:    7.216
  ** Hessian has required structure
  Cycle:     34 Energy:     -3068.116703  Gnorm:      0.015739  CPU:    7.427
  ** Hessian has required structure
  Cycle:     35 Energy:     -3068.129897  Gnorm:      0.005836  CPU:    7.638
  ** Hessian has required structure
  Cycle:     36 Energy:     -3068.133799  Gnorm:      0.011016  CPU:    7.828
  ** Hessian has required structure
  Cycle:     37 Energy:     -3068.136386  Gnorm:      0.007069  CPU:    8.019
  ** Hessian has required structure
  Cycle:     38 Energy:     -3068.137382  Gnorm:      0.003581  CPU:    8.209
  ** Hessian has required structure
  Cycle:     39 Energy:     -3068.137822  Gnorm:      0.002676  CPU:    8.423
  ** Hessian has required structure
  Cycle:     40 Energy:     -3068.137996  Gnorm:      0.001557  CPU:    8.616
  ** Hessian has required structure
  Cycle:     41 Energy:     -3068.138062  Gnorm:      0.000933  CPU:    8.808
  ** Hessian has required structure
  Cycle:     42 Energy:     -3068.138089  Gnorm:      0.000589  CPU:    8.998
  ** Hessian has required structure
  Cycle:     43 Energy:     -3068.138102  Gnorm:      0.000356  CPU:    9.290
  ** Hessian has required structure
  Cycle:     44 Energy:     -3068.138104  Gnorm:      0.000251  CPU:    9.473
  ** Hessian has required structure
  Cycle:     45 Energy:     -3068.138105  Gnorm:      0.000176  CPU:    9.657
  ** Hessian has required structure
  Cycle:     46 Energy:     -3068.138106  Gnorm:      0.000124  CPU:    9.838
  ** Hessian has required structure
  Cycle:     47 Energy:     -3068.138107  Gnorm:      0.000087  CPU:   10.018
  ** Hessian has required structure


  **** Optimisation achieved ****


  Final energy =   -3068.13810674 eV      
  Final Gnorm  =       0.00006079

  Components of energy : 

--------------------------------------------------------------------------------
  Interatomic potentials     =         815.70480277 eV    
  Three-body potentials      =           0.22032886 eV    
  Monopole - monopole (real) =       -2203.53392547 eV    
  Monopole - monopole (recip)=       -1680.52931290 eV    
  Monopole - monopole (total)=       -3884.06323837 eV    
--------------------------------------------------------------------------------
  Total lattice energy       =       -3068.13810674 eV    
--------------------------------------------------------------------------------
  Total lattice energy       =         -296028.4265 kJ/(mole unit cells)
--------------------------------------------------------------------------------

  Final fractional coordinates of atoms :

--------------------------------------------------------------------------------
   No.  Atomic        x           y          z          Radius
        Label       (Frac)      (Frac)     (Frac)       (Angs) 
--------------------------------------------------------------------------------
     1  Ge    c     0.160190    0.293910    0.273440    0.000000
     2  Ge    c     0.140534    0.712028    0.284704    0.000000
     3  Ge    c     0.342666    0.373770    0.964772    0.000000
     4  Si    c     0.037436    0.013826    0.367356    0.000000
     5  Si    c     0.444380    0.041740    0.368927    0.000000
     6  Si    c     0.938707    0.033967    0.621757    0.000000
     7  Si    c     0.539597    0.031665    0.633891    0.000000
     8  Si    c     0.549977    0.032868    0.122663    0.000000
     9  Si    c     0.938667    0.038579    0.107399    0.000000
    10  Si    c     0.436080    0.055349    0.882471    0.000000
    11  Si    c     0.049133    0.034183    0.866199    0.000000
    12  Si    c     0.324268    0.753546    0.284017    0.000000
    13  Si    c     0.826348    0.323354    0.719967    0.000000
    14  Si    c     0.654001    0.743291    0.718606    0.000000
    15  Si    c     0.834142    0.728304    0.716223    0.000000
    16  Si    c     0.646387    0.337709    0.722108    0.000000
    17  Si    c     0.342016    0.348547    0.275977    0.000000
    18  Si    c     0.647572    0.345149    0.025674    0.000000
    19  Si    c     0.838735    0.726436    0.019818    0.000000
    20  Si    c     0.142074    0.724215    0.977622    0.000000
    21  Si    c     0.321435    0.774285    0.978448    0.000000
    22  Si    c     0.161048    0.322471    0.963714    0.000000
    23  Si    c     0.658130    0.745633    0.022009    0.000000
    24  Si    c     0.827722    0.326925    0.024043    0.000000
    25  O3    c     0.113111    0.140159    0.368115    0.000000
    26  O2    c     0.378339    0.888979    0.364105    0.000000
    27  O2    c     0.879472    0.195116    0.637169    0.000000
    28  O2    c     0.600619    0.871376    0.632342    0.000000
    29  O2    c     0.890834    0.850213    0.630137    0.000000
    30  O2    c     0.587301    0.215886    0.640662    0.000000
    31  O3    c     0.071076    0.819224    0.374608    0.000000
    32  O2    c     0.405701    0.233018    0.354395    0.000000
    33  O2    c     0.976531    0.050569    0.480615    0.000000
    34  O2    c     0.487619    0.029473    0.505953    0.000000
    35  O2    c     0.993842    0.055478    0.231155    0.000000
    36  O2    c     0.509276    0.011582    0.260267    0.000000
    37  O2    c     0.008520    0.040526    0.725901    0.000000
    38  O2    c     0.481475    0.005026    0.753768    0.000000
    39  O2    c     0.591720    0.224287    0.113955    0.000000
    40  O2    c     0.896032    0.847715    0.105661    0.000000
    41  O3    c     0.409863    0.256250    0.877616    0.000000
    42  O2    c     0.086783    0.841602    0.884548    0.000000
    43  O2    c     0.357514    0.936143    0.896501    0.000000
    44  O2    c     0.113401    0.190515    0.869460    0.000000
    45  O2    c     0.613781    0.880301    0.112583    0.000000
    46  O2    c     0.874479    0.191571    0.114148    0.000000
    47  O2    c     0.487766    0.008548    0.008147    0.000000
    48  O2    c     0.986939    0.071983    0.977241    0.000000
    49  O1    c     0.119671    0.494496    0.298843    0.000000
    50  O2    c     0.358347    0.556703    0.298433    0.000000
    51  O2    c     0.851694    0.524357    0.688380    0.000000
    52  O2    c     0.628262    0.541712    0.692453    0.000000
    53  O3    c     0.256363    0.301190    0.326015    0.000000
    54  O3    c     0.236061    0.756304    0.334182    0.000000
    55  O2    c     0.735265    0.294681    0.683005    0.000000
    56  O2    c     0.744469    0.770433    0.679925    0.000000
    57  O3    c     0.160636    0.244938    0.109452    0.000000
    58  O2    c     0.324073    0.812362    0.132646    0.000000
    59  O2    c     0.837748    0.280188    0.872492    0.000000
    60  O2    c     0.644285    0.791559    0.870206    0.000000
    61  O2    c     0.850758    0.771197    0.867529    0.000000
    62  O2    c     0.633150    0.296200    0.874768    0.000000
    63  O3    c     0.130264    0.783895    0.124620    0.000000
    64  O3    c     0.349349    0.304575    0.124427    0.000000
    65  O2    c     0.626690    0.548001    0.050855    0.000000
    66  O2    c     0.859840    0.524185    0.049927    0.000000
    67  O3    c     0.365609    0.594657    0.949110    0.000000
    68  O2    c     0.121284    0.516510    0.964495    0.000000
    69  O2    c     0.737318    0.311525    0.063325    0.000000
    70  O2    c     0.749475    0.761643    0.057387    0.000000
    71  O3    c     0.248145    0.339654    0.910671    0.000000
    72  O2    c     0.231519    0.753714    0.934112    0.000000
    73  O3    s     0.109624    0.140641    0.360029    0.000000
    74  O2    s     0.379449    0.890537    0.355763    0.000000
    75  O2    s     0.879881    0.192099    0.644946    0.000000
    76  O2    s     0.600082    0.874187    0.642176    0.000000
    77  O2    s     0.889614    0.856292    0.638905    0.000000
    78  O2    s     0.588842    0.209840    0.649115    0.000000
    79  O3    s     0.073273    0.830203    0.366761    0.000000
    80  O2    s     0.403072    0.224714    0.347607    0.000000
    81  O2    s     0.979158    0.044493    0.483887    0.000000
    82  O2    s     0.488777    0.031194    0.505178    0.000000
    83  O2    s     0.992057    0.049061    0.231196    0.000000
    84  O2    s     0.506756    0.017467    0.256268    0.000000
    85  O2    s     0.005263    0.039045    0.730129    0.000000
    86  O2    s     0.482786    0.013864    0.755189    0.000000
    87  O2    s     0.593520    0.217482    0.104954    0.000000
    88  O2    s     0.894224    0.854480    0.096343    0.000000
    89  O3    s     0.407067    0.245772    0.885098    0.000000
    90  O2    s     0.088717    0.849351    0.892617    0.000000
    91  O2    s     0.361766    0.930995    0.904079    0.000000
    92  O2    s     0.111607    0.187851    0.879283    0.000000
    93  O2    s     0.611891    0.881580    0.103239    0.000000
    94  O2    s     0.876083    0.190429    0.103190    0.000000
    95  O2    s     0.489121    0.016488    0.007260    0.000000
    96  O2    s     0.988458    0.063950    0.979523    0.000000
    97  O1    s     0.124575    0.496456    0.295694    0.000000
    98  O2    s     0.353089    0.555742    0.294577    0.000000
    99  O2    s     0.847072    0.524876    0.694762    0.000000
   100  O2    s     0.633001    0.541296    0.698466    0.000000
   101  O3    s     0.257325    0.305375    0.316753    0.000000
   102  O3    s     0.237349    0.752625    0.325400    0.000000
   103  O2    s     0.735514    0.302351    0.691103    0.000000
   104  O2    s     0.744376    0.762944    0.687981    0.000000
   105  O3    s     0.160629    0.256376    0.108349    0.000000
   106  O2    s     0.323802    0.802133    0.132265    0.000000
   107  O2    s     0.835425    0.289817    0.872292    0.000000
   108  O2    s     0.646805    0.781582    0.870336    0.000000
   109  O2    s     0.847723    0.761970    0.867698    0.000000
   110  O2    s     0.636055    0.305674    0.874611    0.000000
   111  O3    s     0.132223    0.772429    0.122420    0.000000
   112  O3    s     0.348087    0.314563    0.126328    0.000000
   113  O2    s     0.632272    0.547120    0.045054    0.000000
   114  O2    s     0.854145    0.524990    0.043910    0.000000
   115  O3    s     0.359455    0.594566    0.953207    0.000000
   116  O2    s     0.127400    0.518653    0.965803    0.000000
   117  O2    s     0.737365    0.317008    0.054818    0.000000
   118  O2    s     0.749282    0.755944    0.049337    0.000000
   119  O3    s     0.247070    0.340700    0.920393    0.000000
   120  O2    s     0.231659    0.752657    0.943591    0.000000
--------------------------------------------------------------------------------

  Final Cartesian lattice vectors (Angstroms) :

       17.112715   -0.107254   -0.066028
       -0.046324    7.598101    0.032896
       -0.040020    0.044982   10.266013


  Final cell parameters and derivatives :

--------------------------------------------------------------------------------
       a           17.113179 Angstrom     dE/de1(xx)     0.005303 eV/strain
       b            7.598314 Angstrom     dE/de2(yy)     0.003845 eV/strain
       c           10.266189 Angstrom     dE/de3(zz)     0.004243 eV/strain
       alpha       89.499542 Degrees      dE/de4(yz)     0.000237 eV/strain
       beta        90.445982 Degrees      dE/de5(xz)     0.000066 eV/strain
       gamma       90.709357 Degrees      dE/de6(xy)    -0.000446 eV/strain
--------------------------------------------------------------------------------

  Primitive cell volume =          1334.733433 Angs**3

  Density of cell =      1.960381 g/cm**3

  Non-primitive cell volume =          1334.733433 Angs**3


  Final internal derivatives :

--------------------------------------------------------------------------------
   No.  Atomic          a             b             c           Radius
        Label          (eV)          (eV)          (eV)        (eV/Angs)
--------------------------------------------------------------------------------
      1 Ge    c       0.000000      0.000000      0.000000      0.000000
      2 Ge    c      -0.000662      0.000151     -0.001403      0.000000
      3 Ge    c      -0.001031      0.000519     -0.001246      0.000000
      4 Si    c      -0.000179     -0.000385     -0.000550      0.000000
      5 Si    c      -0.002360      0.000444     -0.000256      0.000000
      6 Si    c      -0.000259     -0.000011     -0.000022      0.000000
      7 Si    c       0.003222      0.000278      0.000596      0.000000
      8 Si    c       0.002256      0.000558      0.001139      0.000000
      9 Si    c       0.000036      0.000003     -0.000077      0.000000
     10 Si    c      -0.003156     -0.000134      0.000170      0.000000
     11 Si    c       0.000295      0.000085     -0.000455      0.000000
     12 Si    c       0.002353      0.001276     -0.001583      0.000000
     13 Si    c       0.000136      0.000005      0.000059      0.000000
     14 Si    c      -0.000280     -0.000022     -0.000206      0.000000
     15 Si    c       0.000203      0.000019     -0.000020      0.000000
     16 Si    c      -0.000520     -0.000010      0.000050      0.000000
     17 Si    c       0.005481     -0.000595      0.000038      0.000000
     18 Si    c      -0.000484     -0.000206     -0.000097      0.000000
     19 Si    c       0.000058     -0.000020     -0.000053      0.000000
     20 Si    c       0.001507     -0.000515      0.001092      0.000000
     21 Si    c      -0.000643     -0.000148      0.000061      0.000000
     22 Si    c       0.000486      0.000264      0.001118      0.000000
     23 Si    c      -0.000058     -0.000125     -0.000041      0.000000
     24 Si    c       0.000162     -0.000016     -0.000231      0.000000
     25 O3    c       0.002479      0.000407      0.001202      0.000000
     26 O2    c      -0.000105     -0.000185      0.001069      0.000000
     27 O2    c      -0.000274      0.000166      0.000026      0.000000
     28 O2    c       0.000495     -0.000480     -0.000137      0.000000
     29 O2    c      -0.000089     -0.000135      0.000008      0.000000
     30 O2    c      -0.000032      0.000212     -0.000081      0.000000
     31 O3    c       0.000377     -0.000446      0.000290      0.000000
     32 O2    c      -0.000134      0.000271     -0.000166      0.000000
     33 O2    c      -0.002180      0.000228      0.001175      0.000000
     34 O2    c      -0.002100     -0.000138     -0.000320      0.000000
     35 O2    c       0.000536      0.000147      0.000307      0.000000
     36 O2    c       0.004117     -0.000458     -0.000828      0.000000
     37 O2    c       0.000921     -0.000004      0.000311      0.000000
     38 O2    c       0.001043     -0.000948     -0.001504      0.000000
     39 O2    c      -0.000035      0.000440     -0.000125      0.000000
     40 O2    c      -0.000491     -0.000609      0.000088      0.000000
     41 O3    c      -0.001033      0.002362     -0.000157      0.000000
     42 O2    c      -0.000140     -0.000010     -0.000105      0.000000
     43 O2    c       0.000321      0.000148     -0.000118      0.000000
     44 O2    c       0.000069      0.000028     -0.000097      0.000000
     45 O2    c       0.001464     -0.000680      0.000163      0.000000
     46 O2    c      -0.000641      0.000355      0.000196      0.000000
     47 O2    c      -0.001972     -0.000852     -0.000061      0.000000
     48 O2    c      -0.000521      0.000277      0.000054      0.000000
     49 O1    c      -0.001714      0.001345      0.000545      0.000000
     50 O2    c       0.002356     -0.001403      0.002142      0.000000
     51 O2    c       0.000071     -0.000037     -0.000034      0.000000
     52 O2    c      -0.000157      0.000019     -0.000065      0.000000
     53 O3    c       0.008975     -0.002105      0.003190      0.000000
     54 O3    c      -0.008313      0.000900      0.000992      0.000000
     55 O2    c       0.000019     -0.000025     -0.000045      0.000000
     56 O2    c      -0.000142      0.000026     -0.000052      0.000000
     57 O3    c       0.002692      0.000422     -0.001266      0.000000
     58 O2    c      -0.000453      0.000099     -0.000521      0.000000
     59 O2    c       0.000022     -0.000012      0.000046      0.000000
     60 O2    c       0.000218     -0.000058      0.000022      0.000000
     61 O2    c       0.000024     -0.000007      0.000023      0.000000
     62 O2    c      -0.000086      0.000024     -0.000010      0.000000
     63 O3    c       0.001816     -0.000702     -0.001024      0.000000
     64 O3    c      -0.000901     -0.000964     -0.000533      0.000000
     65 O2    c      -0.000203     -0.000025      0.000083      0.000000
     66 O2    c       0.000229     -0.000023      0.000066      0.000000
     67 O3    c      -0.000278     -0.000542      0.000240      0.000000
     68 O2    c       0.001226      0.000701      0.000416      0.000000
     69 O2    c      -0.000141     -0.000022      0.000057      0.000000
     70 O2    c       0.000201      0.000016      0.000084      0.000000
     71 O3    c      -0.001685      0.000564      0.000030      0.000000
     72 O2    c      -0.002947     -0.000353      0.000566      0.000000
     73 O3    s      -0.001677     -0.000374     -0.000179      0.000000
     74 O2    s      -0.000873      0.000828     -0.000329      0.000000
     75 O2    s      -0.000202     -0.000003     -0.000026      0.000000
     76 O2    s       0.001520     -0.000169      0.000160      0.000000
     77 O2    s      -0.000222     -0.000043     -0.000022      0.000000
     78 O2    s       0.001281      0.000250      0.000152      0.000000
     79 O3    s       0.000599     -0.000452     -0.000564      0.000000
     80 O2    s      -0.000870     -0.000032      0.000124      0.000000
     81 O2    s      -0.000334     -0.000006     -0.000082      0.000000
     82 O2    s       0.000062      0.000241      0.000253      0.000000
     83 O2    s      -0.000128      0.000092     -0.000336      0.000000
     84 O2    s      -0.000261      0.000358      0.000368      0.000000
     85 O2    s      -0.000083     -0.000057     -0.000018      0.000000
     86 O2    s       0.000048     -0.000364     -0.000226      0.000000
     87 O2    s       0.001556      0.000474      0.000442      0.000000
     88 O2    s      -0.000371     -0.000144     -0.000085      0.000000
     89 O3    s      -0.001507     -0.000109     -0.000172      0.000000
     90 O2    s       0.000776     -0.000446      0.000347      0.000000
     91 O2    s      -0.002060     -0.000363     -0.000150      0.000000
     92 O2    s       0.000244      0.000177      0.000438      0.000000
     93 O2    s       0.001392     -0.000224     -0.000119      0.000000
     94 O2    s      -0.000499      0.000122      0.000135      0.000000
     95 O2    s       0.000223     -0.000195      0.000464      0.000000
     96 O2    s       0.000737     -0.000103     -0.000388      0.000000
     97 O1    s       0.000110      0.000805     -0.000036      0.000000
     98 O2    s       0.000691      0.000161      0.000081      0.000000
     99 O2    s       0.000009      0.000001     -0.000019      0.000000
    100 O2    s       0.000244      0.000076      0.000069      0.000000
    101 O3    s      -0.004448     -0.000228      0.000016      0.000000
    102 O3    s       0.000621      0.000072      0.000557      0.000000
    103 O2    s       0.000123     -0.000024      0.000011      0.000000
    104 O2    s       0.000013      0.000038      0.000031      0.000000
    105 O3    s      -0.001220     -0.000523     -0.001120      0.000000
    106 O2    s       0.001857      0.000245     -0.001375      0.000000
    107 O2    s      -0.000066      0.000002     -0.000106      0.000000
    108 O2    s      -0.000699      0.000228      0.000046      0.000000
    109 O2    s       0.000031      0.000054     -0.000003      0.000000
    110 O2    s       0.000276     -0.000049      0.000015      0.000000
    111 O3    s      -0.000042     -0.000224     -0.000271      0.000000
    112 O3    s       0.001741     -0.000049     -0.001232      0.000000
    113 O2    s       0.000072      0.000057     -0.000072      0.000000
    114 O2    s      -0.000153      0.000047     -0.000034      0.000000
    115 O3    s       0.000847      0.000136      0.000548      0.000000
    116 O2    s       0.000768      0.000281      0.000824      0.000000
    117 O2    s       0.000033     -0.000007      0.000035      0.000000
    118 O2    s      -0.000031      0.000033     -0.000075      0.000000
    119 O3    s      -0.000436      0.000015      0.000017      0.000000
    120 O2    s      -0.000977     -0.000214      0.000232      0.000000
--------------------------------------------------------------------------------
  Maximum abs         0.008975      0.002362      0.003190      0.000000
--------------------------------------------------------------------------------


  Born effective charge tensors : 

-------------------------------------------------------------------------------
  Atom             x           y             z
-------------------------------------------------------------------------------
    1 Ge    x       3.9905      0.3962     -0.1141
            y       0.0693      4.2175     -0.2141
            z      -0.1861     -0.0338      3.4673
-------------------------------------------------------------------------------
    2 Ge    x       4.0462     -0.2195     -0.0851
            y      -0.2999      4.2139      0.2500
            z      -0.2186     -0.0151      3.4660
-------------------------------------------------------------------------------
    3 Ge    x       4.0520     -0.3587     -0.0789
            y      -0.3361      4.2191      0.2638
            z      -0.2168      0.0282      3.2967
-------------------------------------------------------------------------------
    4 Si    x       3.7764     -0.2372     -0.0830
            y       0.1993      3.5509     -0.0236
            z      -0.6874      0.0972      3.8961
-------------------------------------------------------------------------------
    5 Si    x       3.4351     -0.1251      0.2423
            y       0.1382      3.1857     -0.0292
            z       0.3657      0.0070      3.8345
-------------------------------------------------------------------------------
    6 Si    x       3.4482      0.0563     -0.2607
            y      -0.0843      3.2456      0.0448
            z      -0.3349     -0.0506      3.7662
-------------------------------------------------------------------------------
    7 Si    x       3.4442      0.0706      0.1735
            y      -0.0978      3.2436      0.0397
            z       0.5260     -0.0193      3.7599
-------------------------------------------------------------------------------
    8 Si    x       3.4652      0.1190     -0.2543
            y      -0.1287      3.2535      0.0130
            z      -0.4729     -0.0569      3.1321
-------------------------------------------------------------------------------
    9 Si    x       3.4606      0.1125      0.0773
            y      -0.1358      3.2489      0.0242
            z       0.5569      0.0426      3.0542
-------------------------------------------------------------------------------
   10 Si    x       3.5611     -0.4096     -0.1882
            y       0.1056      3.5064     -0.0528
            z      -0.5139      0.1429      3.1352
-------------------------------------------------------------------------------
   11 Si    x       3.4987     -0.1377      0.2578
            y       0.1289      3.2217     -0.0275
            z       0.4001     -0.0062      3.1173
-------------------------------------------------------------------------------
   12 Si    x       3.6005      0.3162     -0.0134
            y       0.1272      3.4942      0.1886
            z       0.0670      0.0580      2.8960
-------------------------------------------------------------------------------
   13 Si    x       3.1976     -0.2794     -0.1165
            y      -0.2179      3.4682      0.1610
            z      -0.1264      0.0858      2.8109
-------------------------------------------------------------------------------
   14 Si    x       3.1897     -0.2799      0.1225
            y      -0.2140      3.4633     -0.1668
            z       0.1200     -0.0610      2.8018
-------------------------------------------------------------------------------
   15 Si    x       3.1800      0.2297     -0.0892
            y       0.2652      3.4358     -0.1724
            z      -0.0984     -0.0735      2.8089
-------------------------------------------------------------------------------
   16 Si    x       3.1957      0.2301      0.0650
            y       0.2718      3.4379      0.1624
            z       0.1112      0.0823      2.8133
-------------------------------------------------------------------------------
   17 Si    x       3.5896     -0.1960     -0.1171
            y      -0.2500      3.6124     -0.1578
            z       0.0345     -0.0235      3.1958
-------------------------------------------------------------------------------
   18 Si    x       3.2312      0.2540     -0.1436
            y       0.2413      3.3974     -0.1775
            z      -0.1546     -0.0526      2.7229
-------------------------------------------------------------------------------
   19 Si    x       3.2489      0.2554      0.1388
            y       0.2453      3.3962      0.1724
            z       0.1458      0.0649      2.7129
-------------------------------------------------------------------------------
   20 Si    x       3.3741     -0.3248      0.0835
            y      -0.2557      3.4975     -0.1412
            z       0.1466      0.0729      3.0105
-------------------------------------------------------------------------------
   21 Si    x       3.3591      0.3227     -0.1384
            y      -0.1168      3.6931     -0.0776
            z      -0.1722     -0.0162      2.7936
-------------------------------------------------------------------------------
   22 Si    x       3.6601      0.4270      0.0069
            y       0.1305      3.6314      0.1420
            z       0.0758     -0.0727      3.0462
-------------------------------------------------------------------------------
   23 Si    x       3.2055     -0.3052     -0.1788
            y      -0.1273      3.4433      0.1894
            z      -0.1260      0.0871      2.7459
-------------------------------------------------------------------------------
   24 Si    x       3.2167     -0.3160      0.1489
            y      -0.1393      3.4314     -0.1657
            z       0.1127     -0.0573      2.7094
-------------------------------------------------------------------------------
   25 O3    x      -2.2877     -0.8967      0.3490
            y      -0.9525     -2.1387      0.3910
            z       0.4055      0.3247     -1.5595
-------------------------------------------------------------------------------
   26 O2    x      -1.7782     -0.7270     -0.3199
            y      -0.7360     -1.9227     -0.3229
            z      -0.3514     -0.3262     -1.3558
-------------------------------------------------------------------------------
   27 O2    x      -1.7338      0.7260      0.3684
            y       0.7611     -1.9750     -0.3889
            z       0.3810     -0.3563     -1.3562
-------------------------------------------------------------------------------
   28 O2    x      -1.7386      0.7199     -0.3071
            y       0.7586     -1.9481      0.3134
            z      -0.3603      0.3084     -1.3424
-------------------------------------------------------------------------------
   29 O2    x      -1.6483     -0.6976      0.3408
            y      -0.6790     -1.9881      0.3461
            z       0.3504      0.3362     -1.3594
-------------------------------------------------------------------------------
   30 O2    x      -1.6666     -0.7076     -0.3115
            y      -0.6928     -1.9978     -0.3402
            z      -0.3748     -0.3404     -1.3468
-------------------------------------------------------------------------------
   31 O3    x      -1.9349      0.8625      0.3392
            y       0.8319     -2.4184     -0.3252
            z       0.4661     -0.3217     -1.5630
-------------------------------------------------------------------------------
   32 O2    x      -1.6554      0.7066     -0.3039
            y       0.6327     -2.0248      0.3274
            z      -0.3337      0.3218     -1.3479
-------------------------------------------------------------------------------
   33 O2    x      -1.6128      0.0642      0.7644
            y       0.0321     -1.0933     -0.0548
            z       0.9846     -0.0798     -2.6881
-------------------------------------------------------------------------------
   34 O2    x      -1.6123      0.0287     -0.8318
            y       0.0003     -1.0795      0.0101
            z      -1.0324      0.0408     -2.7905
-------------------------------------------------------------------------------
   35 O2    x      -1.6500      0.0234     -0.6819
            y       0.0085     -1.1484      0.0440
            z      -0.6558      0.0435     -2.2880
-------------------------------------------------------------------------------
   36 O2    x      -1.7217      0.0224      0.7181
            y       0.0265     -1.1107     -0.0192
            z       0.7342     -0.0110     -2.2249
-------------------------------------------------------------------------------
   37 O2    x      -1.7728      0.0136     -0.7223
            y      -0.0177     -1.0990     -0.0027
            z      -0.7078      0.0113     -2.1819
-------------------------------------------------------------------------------
   38 O2    x      -1.6885      0.0633      0.6977
            y       0.0153     -1.1327     -0.0547
            z       0.6838     -0.0815     -2.1878
-------------------------------------------------------------------------------
   39 O2    x      -1.6496     -0.6880      0.3483
            y      -0.6128     -2.0019      0.3591
            z       0.3601      0.3389     -1.2558
-------------------------------------------------------------------------------
   40 O2    x      -1.6673     -0.6933     -0.3116
            y      -0.6278     -2.0038     -0.3381
            z      -0.3560     -0.3176     -1.2281
-------------------------------------------------------------------------------
   41 O3    x      -1.9183      0.8778      0.3541
            y       0.7345     -2.5965     -0.3366
            z       0.4197     -0.3433     -1.3646
-------------------------------------------------------------------------------
   42 O2    x      -1.6791      0.7165     -0.3661
            y       0.5801     -2.0066      0.3857
            z      -0.3563      0.3534     -1.2583
-------------------------------------------------------------------------------
   43 O2    x      -1.8520     -0.6285      0.3235
            y      -0.6269     -1.8239      0.3532
            z       0.3429      0.2968     -1.2459
-------------------------------------------------------------------------------
   44 O2    x      -1.7614     -0.7205     -0.3325
            y      -0.6527     -1.9176     -0.3423
            z      -0.3154     -0.3124     -1.2617
-------------------------------------------------------------------------------
   45 O2    x      -1.7316      0.7123      0.3719
            y       0.6885     -1.9343     -0.3917
            z       0.3622     -0.3508     -1.2715
-------------------------------------------------------------------------------
   46 O2    x      -1.7434      0.7121     -0.2724
            y       0.6963     -1.9185      0.3042
            z      -0.3222      0.2900     -1.2324
-------------------------------------------------------------------------------
   47 O2    x      -1.7966      0.0205     -0.6011
            y      -0.0110     -1.1726      0.0329
            z      -0.3470      0.0296     -1.7318
-------------------------------------------------------------------------------
   48 O2    x      -1.8039      0.0309      0.6311
            y       0.0212     -1.1759     -0.0080
            z       0.3514     -0.0127     -1.7296
-------------------------------------------------------------------------------
   49 O1    x      -1.4724      0.1045      0.0775
            y       0.2013     -3.3421     -0.0794
            z       0.1162     -0.0455     -1.2656
-------------------------------------------------------------------------------
   50 O2    x      -1.1913      0.0811     -0.0373
            y       0.1573     -2.5810     -0.0168
            z      -0.0632     -0.0105     -1.0835
-------------------------------------------------------------------------------
   51 O2    x      -1.1520     -0.0242      0.0611
            y      -0.0573     -2.5662      0.0132
            z       0.0728     -0.0015     -1.0672
-------------------------------------------------------------------------------
   52 O2    x      -1.1555     -0.0304     -0.0581
            y      -0.0571     -2.5687      0.0098
            z      -0.0742      0.0094     -1.0632
-------------------------------------------------------------------------------
   53 O3    x      -3.0120     -0.2548      0.0554
            y      -0.1948     -1.4097      0.0954
            z       0.0579      0.0542     -1.2432
-------------------------------------------------------------------------------
   54 O3    x      -3.0750     -0.1319      0.1074
            y      -0.0324     -1.3482     -0.0808
            z       0.1286     -0.0276     -1.2781
-------------------------------------------------------------------------------
   55 O2    x      -2.3888      0.0535      0.0172
            y       0.0246     -1.2492     -0.0682
            z      -0.0007     -0.0500     -1.0694
-------------------------------------------------------------------------------
   56 O2    x      -2.3847      0.0558      0.0126
            y       0.0265     -1.2453      0.0683
            z       0.0156      0.0435     -1.0672
-------------------------------------------------------------------------------
   57 O3    x      -1.3235     -0.1260     -0.0720
            y      -0.0526     -1.5039      0.1976
            z      -0.0321      0.1557     -2.5664
-------------------------------------------------------------------------------
   58 O2    x      -1.2055     -0.1167     -0.0378
            y      -0.0421     -1.2858      0.0464
            z      -0.0381      0.0718     -2.0945
-------------------------------------------------------------------------------
   59 O2    x      -1.1742      0.1270     -0.0324
            y       0.0944     -1.2846     -0.0215
            z      -0.0237     -0.0087     -2.0557
-------------------------------------------------------------------------------
   60 O2    x      -1.1691      0.1266      0.0065
            y       0.0952     -1.2893      0.0001
            z      -0.0074     -0.0148     -2.0611
-------------------------------------------------------------------------------
   61 O2    x      -1.1925     -0.1270     -0.0339
            y      -0.1205     -1.2733     -0.0036
            z      -0.0495     -0.0031     -2.0582
-------------------------------------------------------------------------------
   62 O2    x      -1.1971     -0.1283      0.0212
            y      -0.1241     -1.2769     -0.0150
            z       0.0266     -0.0224     -2.0643
-------------------------------------------------------------------------------
   63 O3    x      -1.3699      0.1655      0.0379
            y       0.1383     -1.4487     -0.1056
            z       0.0185     -0.0532     -2.5988
-------------------------------------------------------------------------------
   64 O3    x      -1.3241      0.1432      0.0303
            y       0.1274     -1.4659     -0.0247
            z       0.0333      0.0095     -2.6447
-------------------------------------------------------------------------------
   65 O2    x      -1.2135     -0.0357      0.0863
            y      -0.0826     -2.5100      0.0088
            z       0.0987      0.0062     -1.0218
-------------------------------------------------------------------------------
   66 O2    x      -1.2184     -0.0381     -0.0828
            y      -0.0854     -2.4965      0.0117
            z      -0.0954      0.0017     -1.0163
-------------------------------------------------------------------------------
   67 O3    x      -1.4958      0.2203      0.1109
            y       0.3070     -3.0594     -0.1298
            z       0.1583     -0.1155     -1.1446
-------------------------------------------------------------------------------
   68 O2    x      -1.2870      0.0538     -0.0362
            y       0.1246     -2.5509     -0.0585
            z      -0.0738     -0.0536     -1.0083
-------------------------------------------------------------------------------
   69 O2    x      -2.3995      0.0622      0.0155
            y       0.0343     -1.2338      0.0633
            z       0.0168      0.0329     -1.0412
-------------------------------------------------------------------------------
   70 O2    x      -2.4149      0.0647      0.0141
            y       0.0381     -1.2395     -0.0654
            z       0.0135     -0.0395     -1.0375
-------------------------------------------------------------------------------
   71 O3    x      -3.0601     -0.1978      0.0792
            y      -0.1249     -1.3928     -0.0765
            z       0.0619     -0.0164     -1.2098
-------------------------------------------------------------------------------
   72 O2    x      -2.4452     -0.1894     -0.0422
            y      -0.0924     -1.2582      0.0444
            z      -0.0433      0.0054     -1.0609
-------------------------------------------------------------------------------




  Elastic Constant Matrix: (Units=GPa)

-------------------------------------------------------------------------------
  Indices      1         2         3         4         5         6    
-------------------------------------------------------------------------------
       1     52.4110   25.3433   25.4920    0.9717    2.9886   -3.8918
       2     25.3433   70.5215   22.2640    1.1560    5.6561   -4.8151
       3     25.4920   22.2640   41.6034   -0.2275   -0.9231   -2.1255
       4      0.9717    1.1560   -0.2275   12.1698   -1.7622   -0.5352
       5      2.9886    5.6561   -0.9231   -1.7622   23.2808    1.3241
       6     -3.8918   -4.8151   -2.1255   -0.5352    1.3241   24.9267
-------------------------------------------------------------------------------


  Elastic Compliance Matrix: (Units=1/GPa)

-------------------------------------------------------------------------------
  Indices      1         2         3         4         5         6    
-------------------------------------------------------------------------------
       1    0.029446 -0.005315 -0.015165 -0.002519 -0.003418  0.002405
       2   -0.005315  0.018786 -0.006783 -0.002024 -0.004441  0.002413
       3   -0.015165 -0.006783  0.037058  0.003291  0.005355 -0.000732
       4   -0.002519 -0.002024  0.003291  0.083713  0.007230  0.000910
       5   -0.003418 -0.004441  0.005355  0.007230  0.045413 -0.003192
       6    0.002405  0.002413 -0.000732  0.000910 -0.003192  0.041086
-------------------------------------------------------------------------------

  Mechanical properties :

-------------------------------------------------------------------------------
  Convention :                    Reuss         Voigt         Hill
-------------------------------------------------------------------------------
  Bulk  Modulus (GPa)     =      32.50551      34.52606      33.51579
  Shear Modulus (GPa)     =      15.61123      18.17123      16.89123
-------------------------------------------------------------------------------
  Velocity S-wave (km/s)  =       2.82194       3.04454       2.93535
  Velocity P-wave (km/s)  =       5.21527       5.47457       5.34649
-------------------------------------------------------------------------------
  Compressibility (1/GPa) =    0.03076402
-------------------------------------------------------------------------------
  Stress axis :                     x             y             z
-------------------------------------------------------------------------------
  Youngs Moduli (GPa)     =      33.96008      53.23241      26.98456
-------------------------------------------------------------------------------
  Poissons Ratio (x)      =                     0.28291       0.40923
  Poissons Ratio (y)      =       0.18049                     0.18303
  Poissons Ratio (z)      =       0.51502       0.36107
-------------------------------------------------------------------------------


  Piezoelectric Strain Matrix: (Units=C/m**2)

-------------------------------------------------------------------------------
  Indices      1         2         3         4         5         6    
-------------------------------------------------------------------------------
       x     0.24197   0.35190  -0.53778   0.08872   0.03878   0.16679
       y     0.32605   0.82626   0.15686   0.22732   0.25248  -0.00095
       z    -0.23167  -0.32777   0.30714   0.03620  -0.20928  -0.20988
-------------------------------------------------------------------------------


  Piezoelectric Stress Matrix: (Units=10**-11 C/N)

-------------------------------------------------------------------------------
  Indices      1         2         3         4         5         6    
-------------------------------------------------------------------------------
       x     1.34557   0.90231  -2.56081   0.47672  -0.33994   0.86344
       y     0.13931   1.11412  -0.26353   1.88770   0.91686   0.20250
       z    -0.96186  -0.66597   1.62708   0.35841  -0.46800  -0.94950
-------------------------------------------------------------------------------


  Static dielectric constant tensor : 

-------------------------------------------------------------------------------
              x         y         z
-------------------------------------------------------------------------------
       x     3.94521  -0.04975  -0.09314
       y    -0.04975   4.16259   0.06860
       z    -0.09314   0.06860   3.16646
--------------------------------------------------------------------------------

  High frequency dielectric constant tensor : 

-------------------------------------------------------------------------------
              x         y         z
-------------------------------------------------------------------------------
       x     1.68133  -0.00105  -0.00008
       y    -0.00105   1.68706   0.00092
       z    -0.00008   0.00092   1.62236
-------------------------------------------------------------------------------

  Static refractive indices : 

-------------------------------------------------------------------------------
    1 =    1.77528      2 =    1.98534      3 =    2.04476
-------------------------------------------------------------------------------

  High frequency refractive indices : 

-------------------------------------------------------------------------------
    1 =    1.27371      2 =    1.29659      3 =    1.29895
-------------------------------------------------------------------------------


  Time to end of optimisation =      10.4348 seconds


  Peak dynamic memory used =       5.01 MB 


  Timing analysis for GULP :

--------------------------------------------------------------------------------
  Task / Subroutine                                          Time (Seconds)
--------------------------------------------------------------------------------
  Calculation of reciprocal space energy and derivatives          0.6752
  Calculation of real space energy and derivatives                6.8161
  Calculation of three-body energy and derivatives                0.6734
  Calculation and manipulation of Hessian matrix                  2.7545
  Calculation of matrix inversion                                 0.0512
  Global summation overhead                                       0.0002
--------------------------------------------------------------------------------
  Total CPU time                                                 10.4348
--------------------------------------------------------------------------------


  Dump file written as c00228.vasp.grs
  CIF file written as c00228.vasp.cif


  Job Finished at 12:07.46  7th October    2025                               

