********************************************************************************
*                       GENERAL UTILITY LATTICE PROGRAM                        *
*                                 Julian Gale                                  *
*                       Curtin Institute for Computation                       *
*                    School of Molecular and Life Sciences                     *
*                    Curtin University, Western Australia                      *
********************************************************************************
* Version = 6.1.2 * Last modified =   3rd November 2022                        *
********************************************************************************
*  optimise     - perform optimisation run                                     *
*  conp         - constant pressure calculation                                *
*  property     - calculate properties for final geometry                      *
********************************************************************************

  Job Started  at 12:11.26  7th October    2025                               

  Number of CPUs =     1


  Total number of configurations input =      1

********************************************************************************
*  Input for Configuration =   1 : c00248.vasp                                 *
********************************************************************************

  Formula = Ge3Si21O48                                                  

  Number of irreducible atoms/shells =     120


  Total number atoms/shells =     120

  Dimensionality = 3               :  Bulk   



  Cartesian lattice vectors (Angstroms) :

       17.182800    0.000000    0.000000
        0.000000    7.513760    0.000000
        0.000000    0.000000   10.447700

  Cell parameters (Angstroms/Degrees):

  a =      17.1828    alpha =  90.0000
  b =       7.5138    beta  =  90.0000
  c =      10.4477    gamma =  90.0000

  Initial cell volume =        1348.875752 Angs**3

  Temperature of configuration =   0.00     K 

  Pressure of configuration =         0.000 GPa 

  Fractional coordinates of asymmetric unit :

--------------------------------------------------------------------------------
   No.  Atomic       x           y          z         Charge      Occupancy
        Label      (Frac)      (Frac)     (Frac)        (e)         (Frac)  
--------------------------------------------------------------------------------
      1 Ge    c    0.160190    0.293910    0.273440     4.00000    1.000000    
      2 Ge    c    0.339340 *  0.294090 *  0.982560 *   4.00000    1.000000    
      3 Ge    c    0.339340 *  0.705910 *  0.982560 *   4.00000    1.000000    
      4 Si    c    0.052090 *  0.000000 *  0.372270 *   4.00000    1.000000    
      5 Si    c    0.447910 *  0.000000 *  0.372270 *   4.00000    1.000000    
      6 Si    c    0.947910 *  0.000000 *  0.627730 *   4.00000    1.000000    
      7 Si    c    0.552090 *  0.000000 *  0.627730 *   4.00000    1.000000    
      8 Si    c    0.556730 *  0.000000 *  0.122130 *   4.00000    1.000000    
      9 Si    c    0.943270 *  0.000000 *  0.122130 *   4.00000    1.000000    
     10 Si    c    0.443270 *  0.000000 *  0.877870 *   4.00000    1.000000    
     11 Si    c    0.056730 *  0.000000 *  0.877870 *   4.00000    1.000000    
     12 Si    c    0.339810 *  0.706090 *  0.273440 *   4.00000    1.000000    
     13 Si    c    0.839810 *  0.293910 *  0.726560 *   4.00000    1.000000    
     14 Si    c    0.660190 *  0.706090 *  0.726560 *   4.00000    1.000000    
     15 Si    c    0.839810 *  0.706090 *  0.726560 *   4.00000    1.000000    
     16 Si    c    0.660190 *  0.293910 *  0.726560 *   4.00000    1.000000    
     17 Si    c    0.160190 *  0.706090 *  0.273440 *   4.00000    1.000000    
     18 Si    c    0.339810 *  0.293910 *  0.273440 *   4.00000    1.000000    
     19 Si    c    0.660660 *  0.294090 *  0.017440 *   4.00000    1.000000    
     20 Si    c    0.839340 *  0.705910 *  0.017440 *   4.00000    1.000000    
     21 Si    c    0.160660 *  0.705910 *  0.982560 *   4.00000    1.000000    
     22 Si    c    0.160660 *  0.294090 *  0.982560 *   4.00000    1.000000    
     23 Si    c    0.660660 *  0.705910 *  0.017440 *   4.00000    1.000000    
     24 Si    c    0.839340 *  0.294090 *  0.017440 *   4.00000    1.000000    
     25 O3    c    0.106570 *  0.174340 *  0.366200 *   1.33043    1.000000    
     26 O2    c    0.393430 *  0.825660 *  0.366200 *   0.87073    1.000000    
     27 O2    c    0.893430 *  0.174340 *  0.633800 *   0.87073    1.000000    
     28 O2    c    0.606570 *  0.825660 *  0.633800 *   0.87073    1.000000    
     29 O2    c    0.893430 *  0.825660 *  0.633800 *   0.87073    1.000000    
     30 O2    c    0.606570 *  0.174340 *  0.633800 *   0.87073    1.000000    
     31 O2    c    0.106570 *  0.825660 *  0.366200 *   0.87073    1.000000    
     32 O2    c    0.393430 *  0.174340 *  0.366200 *   0.87073    1.000000    
     33 O2    c    0.000000 *  0.000000 *  0.500000 *   0.87073    1.000000    
     34 O2    c    0.500000 *  0.000000 *  0.500000 *   0.87073    1.000000    
     35 O2    c    0.994520 *  0.000000 *  0.250840 *   0.87073    1.000000    
     36 O2    c    0.505480 *  0.000000 *  0.250840 *   0.87073    1.000000    
     37 O2    c    0.005480 *  0.000000 *  0.749160 *   0.87073    1.000000    
     38 O2    c    0.494520 *  0.000000 *  0.749160 *   0.87073    1.000000    
     39 O2    c    0.610230 *  0.175520 *  0.115390 *   0.87073    1.000000    
     40 O2    c    0.889770 *  0.824480 *  0.115390 *   0.87073    1.000000    
     41 O3    c    0.389770 *  0.175520 *  0.884610 *   1.33043    1.000000    
     42 O2    c    0.110230 *  0.824480 *  0.884610 *   0.87073    1.000000    
     43 O3    c    0.389770 *  0.824480 *  0.884610 *   1.33043    1.000000    
     44 O2    c    0.110230 *  0.175520 *  0.884610 *   0.87073    1.000000    
     45 O2    c    0.610230 *  0.824480 *  0.115390 *   0.87073    1.000000    
     46 O2    c    0.889770 *  0.175520 *  0.115390 *   0.87073    1.000000    
     47 O2    c    0.500000 *  0.000000 *  0.000000 *   0.87073    1.000000    
     48 O2    c    0.000000 *  0.000000 *  0.000000 *   0.87073    1.000000    
     49 O3    c    0.151750 *  0.500000 *  0.313330 *   1.33043    1.000000    
     50 O2    c    0.348250 *  0.500000 *  0.313330 *   0.87073    1.000000    
     51 O2    c    0.848250 *  0.500000 *  0.686670 *   0.87073    1.000000    
     52 O2    c    0.651750 *  0.500000 *  0.686670 *   0.87073    1.000000    
     53 O3    c    0.250000 *  0.234950 *  0.285720 *   1.33043    1.000000    
     54 O2    c    0.250000 *  0.765050 *  0.285720 *   0.87073    1.000000    
     55 O2    c    0.750000 *  0.234950 *  0.714280 *   0.87073    1.000000    
     56 O2    c    0.750000 *  0.765050 *  0.714280 *   0.87073    1.000000    
     57 O3    c    0.131410 *  0.268650 *  0.127790 *   1.33043    1.000000    
     58 O3    c    0.368590 *  0.731350 *  0.127790 *   1.33043    1.000000    
     59 O2    c    0.868590 *  0.268650 *  0.872210 *   0.87073    1.000000    
     60 O2    c    0.631410 *  0.731350 *  0.872210 *   0.87073    1.000000    
     61 O2    c    0.868590 *  0.731350 *  0.872210 *   0.87073    1.000000    
     62 O2    c    0.631410 *  0.268650 *  0.872210 *   0.87073    1.000000    
     63 O2    c    0.131410 *  0.731350 *  0.127790 *   0.87073    1.000000    
     64 O3    c    0.368590 *  0.268650 *  0.127790 *   1.33043    1.000000    
     65 O2    c    0.653920 *  0.500000 *  0.058200 *   0.87073    1.000000    
     66 O2    c    0.846080 *  0.500000 *  0.058200 *   0.87073    1.000000    
     67 O1    c    0.346080 *  0.500000 *  0.941800 *   1.73396    1.000000    
     68 O2    c    0.153920 *  0.500000 *  0.941800 *   0.87073    1.000000    
     69 O2    c    0.750000 *  0.231060 *  0.027050 *   0.87073    1.000000    
     70 O2    c    0.750000 *  0.768940 *  0.027050 *   0.87073    1.000000    
     71 O3    c    0.250000 *  0.231060 *  0.972950 *   1.33043    1.000000    
     72 O3    c    0.250000 *  0.768940 *  0.972950 *   1.33043    1.000000    
     73 O3    s    0.106570 *  0.174340 *  0.366200 *  -3.33043    1.000000    
     74 O2    s    0.393430 *  0.825660 *  0.366200 *  -2.87073    1.000000    
     75 O2    s    0.893430 *  0.174340 *  0.633800 *  -2.87073    1.000000    
     76 O2    s    0.606570 *  0.825660 *  0.633800 *  -2.87073    1.000000    
     77 O2    s    0.893430 *  0.825660 *  0.633800 *  -2.87073    1.000000    
     78 O2    s    0.606570 *  0.174340 *  0.633800 *  -2.87073    1.000000    
     79 O2    s    0.106570 *  0.825660 *  0.366200 *  -2.87073    1.000000    
     80 O2    s    0.393430 *  0.174340 *  0.366200 *  -2.87073    1.000000    
     81 O2    s    0.000000 *  0.000000 *  0.500000 *  -2.87073    1.000000    
     82 O2    s    0.500000 *  0.000000 *  0.500000 *  -2.87073    1.000000    
     83 O2    s    0.994520 *  0.000000 *  0.250840 *  -2.87073    1.000000    
     84 O2    s    0.505480 *  0.000000 *  0.250840 *  -2.87073    1.000000    
     85 O2    s    0.005480 *  0.000000 *  0.749160 *  -2.87073    1.000000    
     86 O2    s    0.494520 *  0.000000 *  0.749160 *  -2.87073    1.000000    
     87 O2    s    0.610230 *  0.175520 *  0.115390 *  -2.87073    1.000000    
     88 O2    s    0.889770 *  0.824480 *  0.115390 *  -2.87073    1.000000    
     89 O3    s    0.389770 *  0.175520 *  0.884610 *  -3.33043    1.000000    
     90 O2    s    0.110230 *  0.824480 *  0.884610 *  -2.87073    1.000000    
     91 O3    s    0.389770 *  0.824480 *  0.884610 *  -3.33043    1.000000    
     92 O2    s    0.110230 *  0.175520 *  0.884610 *  -2.87073    1.000000    
     93 O2    s    0.610230 *  0.824480 *  0.115390 *  -2.87073    1.000000    
     94 O2    s    0.889770 *  0.175520 *  0.115390 *  -2.87073    1.000000    
     95 O2    s    0.500000 *  0.000000 *  0.000000 *  -2.87073    1.000000    
     96 O2    s    0.000000 *  0.000000 *  0.000000 *  -2.87073    1.000000    
     97 O3    s    0.151750 *  0.500000 *  0.313330 *  -3.33043    1.000000    
     98 O2    s    0.348250 *  0.500000 *  0.313330 *  -2.87073    1.000000    
     99 O2    s    0.848250 *  0.500000 *  0.686670 *  -2.87073    1.000000    
    100 O2    s    0.651750 *  0.500000 *  0.686670 *  -2.87073    1.000000    
    101 O3    s    0.250000 *  0.234950 *  0.285720 *  -3.33043    1.000000    
    102 O2    s    0.250000 *  0.765050 *  0.285720 *  -2.87073    1.000000    
    103 O2    s    0.750000 *  0.234950 *  0.714280 *  -2.87073    1.000000    
    104 O2    s    0.750000 *  0.765050 *  0.714280 *  -2.87073    1.000000    
    105 O3    s    0.131410 *  0.268650 *  0.127790 *  -3.33043    1.000000    
    106 O3    s    0.368590 *  0.731350 *  0.127790 *  -3.33043    1.000000    
    107 O2    s    0.868590 *  0.268650 *  0.872210 *  -2.87073    1.000000    
    108 O2    s    0.631410 *  0.731350 *  0.872210 *  -2.87073    1.000000    
    109 O2    s    0.868590 *  0.731350 *  0.872210 *  -2.87073    1.000000    
    110 O2    s    0.631410 *  0.268650 *  0.872210 *  -2.87073    1.000000    
    111 O2    s    0.131410 *  0.731350 *  0.127790 *  -2.87073    1.000000    
    112 O3    s    0.368590 *  0.268650 *  0.127790 *  -3.33043    1.000000    
    113 O2    s    0.653920 *  0.500000 *  0.058200 *  -2.87073    1.000000    
    114 O2    s    0.846080 *  0.500000 *  0.058200 *  -2.87073    1.000000    
    115 O1    s    0.346080 *  0.500000 *  0.941800 *  -3.73396    1.000000    
    116 O2    s    0.153920 *  0.500000 *  0.941800 *  -2.87073    1.000000    
    117 O2    s    0.750000 *  0.231060 *  0.027050 *  -2.87073    1.000000    
    118 O2    s    0.750000 *  0.768940 *  0.027050 *  -2.87073    1.000000    
    119 O3    s    0.250000 *  0.231060 *  0.972950 *  -3.33043    1.000000    
    120 O3    s    0.250000 *  0.768940 *  0.972950 *  -3.33043    1.000000    
--------------------------------------------------------------------------------



********************************************************************************
*  General input information                                                   *
********************************************************************************

  Species output for all configurations : 

--------------------------------------------------------------------------------
  Species    Type    Atomic    Atomic    Charge       Radii (Angs)     Library
                     Number     Mass       (e)     Cova   Ionic  VDW   Symbol
--------------------------------------------------------------------------------
    Ge       Core       32      72.61   4.000000   1.170  0.000  1.750 Ge       
    Si       Core       14      28.09   4.000000   1.200  0.000  2.100 Si       
    O1       Core        8      16.00   1.733957   0.730  0.000  1.360 O1       
    O2       Core        8      16.00   0.870733   0.730  0.000  1.360 O2       
    O3       Core        8      16.00   1.330431   0.730  0.000  1.360 O3       
    O1       Shell       8       0.00  -3.733957   0.730  0.000  0.000 O1       
    O2       Shell       8       0.00  -2.870733   0.730  0.000  0.000 O2       
    O3       Shell       8       0.00  -3.330431   0.730  0.000  0.000 O3       
--------------------------------------------------------------------------------


  Lattice summation method               =    Ewald          (3-D)
                                         =    Parry          (2-D)
                                         =    Saunders et al (1-D)
  Accuracy factor for lattice sums       =   12.000


  Analytic derivatives to be used

  Time limit = Infinity

  Maximum range for interatomic potentials =    100000.000000 Angstroms

  General interatomic potentials :

--------------------------------------------------------------------------------
Atom  Types   Potential      Parameter       Value         Units   Cutoffs(Ang)
  1     2                                                            Min /  Max 
--------------------------------------------------------------------------------
Si   c O1   s Buckingham    Buckingham A     1315.2478    eV        0.000 16.000
                            Buckingham rho  0.31775900    Ang       
                            Buckingham C     10.141118    eV*Ang^6  
--------------------------------------------------------------------------------
Si   c O2   s Buckingham    Buckingham A     1315.2478    eV        0.000 16.000
                            Buckingham rho  0.31775900    Ang       
                            Buckingham C     10.141118    eV*Ang^6  
--------------------------------------------------------------------------------
Si   c O3   s Buckingham    Buckingham A     1315.2478    eV        0.000 16.000
                            Buckingham rho  0.31775900    Ang       
                            Buckingham C     10.141118    eV*Ang^6  
--------------------------------------------------------------------------------
Ge   c O1   s Buckingham    Buckingham A     1497.3996    eV        0.000 16.000
                            Buckingham rho  0.32564600    Ang       
                            Buckingham C     16.808599    eV*Ang^6  
--------------------------------------------------------------------------------
Ge   c O2   s Buckingham    Buckingham A     1497.3996    eV        0.000 16.000
                            Buckingham rho  0.32564600    Ang       
                            Buckingham C     16.808599    eV*Ang^6  
--------------------------------------------------------------------------------
Ge   c O3   s Buckingham    Buckingham A     1497.3996    eV        0.000 16.000
                            Buckingham rho  0.32564600    Ang       
                            Buckingham C     16.808599    eV*Ang^6  
--------------------------------------------------------------------------------
O1   s O1   s Buckingham    Buckingham A     22764.000    eV        0.000 16.000
                            Buckingham rho  0.14900000    Ang       
                            Buckingham C     10.937044    eV*Ang^6  
--------------------------------------------------------------------------------
O1   s O2   s Buckingham    Buckingham A     22764.000    eV        0.000 16.000
                            Buckingham rho  0.14900000    Ang       
                            Buckingham C     10.937044    eV*Ang^6  
--------------------------------------------------------------------------------
O1   s O3   s Buckingham    Buckingham A     22764.000    eV        0.000 16.000
                            Buckingham rho  0.14900000    Ang       
                            Buckingham C     10.937044    eV*Ang^6  
--------------------------------------------------------------------------------
O2   s O2   s Buckingham    Buckingham A     22764.000    eV        0.000 16.000
                            Buckingham rho  0.14900000    Ang       
                            Buckingham C     10.937044    eV*Ang^6  
--------------------------------------------------------------------------------
O2   s O3   s Buckingham    Buckingham A     22764.000    eV        0.000 16.000
                            Buckingham rho  0.14900000    Ang       
                            Buckingham C     10.937044    eV*Ang^6  
--------------------------------------------------------------------------------
O3   s O3   s Buckingham    Buckingham A     22764.000    eV        0.000 16.000
                            Buckingham rho  0.14900000    Ang       
                            Buckingham C     10.937044    eV*Ang^6  
--------------------------------------------------------------------------------
O1   c O1   s Spring (c-s)  Spring k 2       180.31577    eV*Ang^-2 0.000  0.800
                            Spring k 4       0.0000000    eV*Ang^-4 
--------------------------------------------------------------------------------
O2   c O2   s Spring (c-s)  Spring k 2       75.969800    eV*Ang^-2 0.000  0.800
                            Spring k 4       0.0000000    eV*Ang^-4 
--------------------------------------------------------------------------------
O3   c O3   s Spring (c-s)  Spring k 2       128.14270    eV*Ang^-2 0.000  0.800
                            Spring k 4       0.0000000    eV*Ang^-4 
--------------------------------------------------------------------------------

  General Three-body potentials :

--------------------------------------------------------------------------------
  Atoms       Potential      Parameter       Value         Units   Cutoffs(Ang)
  1 / 2 / 3                                                          Min /  Max 
--------------------------------------------------------------------------------
Si    core    Harmonic      Three-body cnst  1.2614000    eV*rad^-2 0.000  1.900
O1    shel                  Three-body angl  109.47000    degrees   0.000  1.900
O1    shel                  Three-body k4    0.0000000    eV*rad^-4 0.000  3.500
                            Three-body k3    0.0000000    eV*rad^-3 
--------------------------------------------------------------------------------
Si    core    Harmonic      Three-body cnst  1.2614000    eV*rad^-2 0.000  1.900
O1    shel                  Three-body angl  109.47000    degrees   0.000  1.900
õ(1   shel                  Three-body k4    0.0000000    eV*rad^-4 0.000  3.500
                            Three-body k3    0.0000000    eV*rad^-3 
--------------------------------------------------------------------------------
Si    core    Harmonic      Three-body cnst  1.2614000    eV*rad^-2 0.000  1.900
õ(1   shel                  Three-body angl  109.47000    degrees   0.000  1.900
õ(1   shel                  Three-body k4    0.0000000    eV*rad^-4 0.000  3.500
                            Three-body k3    0.0000000    eV*rad^-3 
--------------------------------------------------------------------------------
Si    core    Harmonic      Three-body cnst  1.2614000    eV*rad^-2 0.000  1.900
O1    shel                  Three-body angl  109.47000    degrees   0.000  1.900
O2    shel                  Three-body k4    0.0000000    eV*rad^-4 0.000  3.500
                            Three-body k3    0.0000000    eV*rad^-3 
--------------------------------------------------------------------------------
Si    core    Harmonic      Three-body cnst  1.2614000    eV*rad^-2 0.000  1.900
O1    shel                  Three-body angl  109.47000    degrees   0.000  1.900
õ(2   shel                  Three-body k4    0.0000000    eV*rad^-4 0.000  3.500
                            Three-body k3    0.0000000    eV*rad^-3 
--------------------------------------------------------------------------------
Si    core    Harmonic      Three-body cnst  1.2614000    eV*rad^-2 0.000  1.900
O2    shel                  Three-body angl  109.47000    degrees   0.000  1.900
õ(1   shel                  Three-body k4    0.0000000    eV*rad^-4 0.000  3.500
                            Three-body k3    0.0000000    eV*rad^-3 
--------------------------------------------------------------------------------
Si    core    Harmonic      Three-body cnst  1.2614000    eV*rad^-2 0.000  1.900
õ(1   shel                  Three-body angl  109.47000    degrees   0.000  1.900
õ(2   shel                  Three-body k4    0.0000000    eV*rad^-4 0.000  3.500
                            Three-body k3    0.0000000    eV*rad^-3 
--------------------------------------------------------------------------------
Si    core    Harmonic      Three-body cnst  1.2614000    eV*rad^-2 0.000  1.900
O2    shel                  Three-body angl  109.47000    degrees   0.000  1.900
O2    shel                  Three-body k4    0.0000000    eV*rad^-4 0.000  3.500
                            Three-body k3    0.0000000    eV*rad^-3 
--------------------------------------------------------------------------------
Si    core    Harmonic      Three-body cnst  1.2614000    eV*rad^-2 0.000  1.900
O2    shel                  Three-body angl  109.47000    degrees   0.000  1.900
õ(2   shel                  Three-body k4    0.0000000    eV*rad^-4 0.000  3.500
                            Three-body k3    0.0000000    eV*rad^-3 
--------------------------------------------------------------------------------
Si    core    Harmonic      Three-body cnst  1.2614000    eV*rad^-2 0.000  1.900
õ(2   shel                  Three-body angl  109.47000    degrees   0.000  1.900
õ(2   shel                  Three-body k4    0.0000000    eV*rad^-4 0.000  3.500
                            Three-body k3    0.0000000    eV*rad^-3 
--------------------------------------------------------------------------------

********************************************************************************
*  Output for configuration   1 : c00248.vasp                                  *
********************************************************************************


  Components of energy : 

--------------------------------------------------------------------------------
  Interatomic potentials     =         760.31794850 eV    
  Three-body potentials      =           0.01477891 eV    
  Monopole - monopole (real) =       -2676.00317478 eV    
  Monopole - monopole (recip)=       -1115.35404472 eV    
  Monopole - monopole (total)=       -3791.35721950 eV    
--------------------------------------------------------------------------------
  Total lattice energy       =       -3031.02449209 eV    
--------------------------------------------------------------------------------
  Total lattice energy       =         -292447.5300 kJ/(mole unit cells)
--------------------------------------------------------------------------------


  Number of variables =      363

  Maximum number of calculations  =          1000
  Maximum Hessian update interval =            10
  Maximum step size               =   0.100000000
  Maximum parameter tolerance     =   0.000010000
  Maximum function  tolerance     =   0.000010000
  Maximum gradient  tolerance     =   0.001000000
  Maximum gradient  component     =   0.010000000

  Symmetry not applied to optimisation

  Cell parameters to be optimised using strains

  Newton-Raphson optimiser to be used

  BFGS hessian update to be used

  Lower half triangular hessian to be used

  Minimiser to switch to RFO
  When gradient norm is less than     0.050000

  Dumpfile to be written after every cycle

  Start of bulk optimisation :

  Cycle:      0 Energy:     -3031.024492  Gnorm:      4.457019  CPU:    0.132
  ** Hessian calculated **
  Cycle:      1 Energy:     -3041.581376  Gnorm:      3.759429  CPU:    0.359
  ** Hessian calculated **
  Cycle:      2 Energy:     -3063.382317  Gnorm:      0.820188  CPU:    0.597
  ** Hessian calculated **
  Cycle:      3 Energy:     -3065.385043  Gnorm:      0.584394  CPU:    0.857
  ** Hessian calculated **
  Cycle:      4 Energy:     -3066.288385  Gnorm:      0.332603  CPU:    1.094
  Cycle:      5 Energy:     -3066.578450  Gnorm:      0.217178  CPU:    1.217
  Cycle:      6 Energy:     -3066.798865  Gnorm:      0.166951  CPU:    1.363
  Cycle:      7 Energy:     -3067.001521  Gnorm:      0.131532  CPU:    1.510
  Cycle:      8 Energy:     -3067.143849  Gnorm:      0.116278  CPU:    1.633
  Cycle:      9 Energy:     -3067.236754  Gnorm:      0.085300  CPU:    1.757
  Cycle:     10 Energy:     -3067.285549  Gnorm:      0.060524  CPU:    1.880
  Cycle:     11 Energy:     -3067.312201  Gnorm:      0.047417  CPU:    2.027
  ** Hessian has required structure
  Cycle:     12 Energy:     -3067.325368  Gnorm:      0.087933  CPU:    2.201
  ** Hessian has required structure
  Cycle:     13 Energy:     -3067.343319  Gnorm:      0.078503  CPU:    2.397
  ** Hessian has wrong structure
  ** Imaginary eigenvectors =   3
  ** Hessian has wrong structure
  ** Imaginary eigenvectors =   3
  Cycle:     14 Energy:     -3067.354176  Gnorm:      0.078604  CPU:    3.130
  ** Hessian has wrong structure
  ** Imaginary eigenvectors =   2
  ** Hessian has wrong structure
  ** Imaginary eigenvectors =   2
  Cycle:     15 Energy:     -3067.374994  Gnorm:      0.078713  CPU:    3.842
  ** Hessian has wrong structure
  ** Imaginary eigenvectors =   2
  ** Hessian has wrong structure
  ** Imaginary eigenvectors =   1
  Cycle:     16 Energy:     -3067.410176  Gnorm:      0.079274  CPU:    4.447
  ** Hessian has wrong structure
  ** Imaginary eigenvectors =   1
  ** Hessian has wrong structure
  ** Imaginary eigenvectors =   1
  Cycle:     17 Energy:     -3067.503020  Gnorm:      0.075972  CPU:    5.034
  ** Hessian has wrong structure
  ** Imaginary eigenvectors =   1
  ** Hessian has required structure
  Cycle:     18 Energy:     -3067.651021  Gnorm:      0.062467  CPU:    5.570
  ** Hessian has required structure
  Cycle:     19 Energy:     -3067.798026  Gnorm:      0.042683  CPU:    5.789
  ** Hessian has required structure
  Cycle:     20 Energy:     -3067.879295  Gnorm:      0.024068  CPU:    6.008
  ** Hessian has required structure
  Cycle:     21 Energy:     -3067.907972  Gnorm:      0.022082  CPU:    6.207
  ** Hessian has required structure
  Cycle:     22 Energy:     -3067.930096  Gnorm:      0.015764  CPU:    6.407
  ** Hessian has required structure
  Cycle:     23 Energy:     -3067.938171  Gnorm:      0.014486  CPU:    6.606
  ** Hessian has required structure
  Cycle:     24 Energy:     -3067.946556  Gnorm:      0.012957  CPU:    6.802
  ** Hessian has required structure
  Cycle:     25 Energy:     -3067.950685  Gnorm:      0.009166  CPU:    6.994
  ** Hessian has required structure
  Cycle:     26 Energy:     -3067.953703  Gnorm:      0.006798  CPU:    7.187
  ** Hessian has required structure
  Cycle:     27 Energy:     -3067.955580  Gnorm:      0.006343  CPU:    7.377
  ** Hessian has required structure
  Cycle:     28 Energy:     -3067.956777  Gnorm:      0.003743  CPU:    7.668
  ** Hessian has required structure
  Cycle:     29 Energy:     -3067.957182  Gnorm:      0.002212  CPU:    7.856
  ** Hessian has required structure
  Cycle:     30 Energy:     -3067.957320  Gnorm:      0.001305  CPU:    8.047
  ** Hessian has required structure
  Cycle:     31 Energy:     -3067.957380  Gnorm:      0.000648  CPU:    8.264
  ** Hessian has required structure
  Cycle:     32 Energy:     -3067.957387  Gnorm:      0.000464  CPU:    8.438
  ** Hessian has required structure
  Cycle:     33 Energy:     -3067.957394  Gnorm:      0.000243  CPU:    8.656
  ** Hessian has required structure
  Cycle:     34 Energy:     -3067.957395  Gnorm:      0.000194  CPU:    8.827
  ** Hessian has required structure
  Cycle:     35 Energy:     -3067.957395  Gnorm:      0.000192  CPU:    9.025
  ** Hessian has required structure
  Cycle:     36 Energy:     -3067.957395  Gnorm:      0.000191  CPU:    9.195
  ** Hessian has required structure
  Cycle:     37 Energy:     -3067.957395  Gnorm:      0.000191  CPU:    9.366
  ** Hessian has required structure
  Cycle:     38 Energy:     -3067.957395  Gnorm:      0.000191  CPU:    9.711
  ** Hessian calculated **


  **** Optimisation achieved ****


  Final energy =   -3067.95739509 eV      
  Final Gnorm  =       0.00019062

  Components of energy : 

--------------------------------------------------------------------------------
  Interatomic potentials     =         814.53672158 eV    
  Three-body potentials      =           0.22743355 eV    
  Monopole - monopole (real) =       -2203.78413603 eV    
  Monopole - monopole (recip)=       -1678.93741419 eV    
  Monopole - monopole (total)=       -3882.72155022 eV    
--------------------------------------------------------------------------------
  Total lattice energy       =       -3067.95739509 eV    
--------------------------------------------------------------------------------
  Total lattice energy       =         -296010.9906 kJ/(mole unit cells)
--------------------------------------------------------------------------------

  Final fractional coordinates of atoms :

--------------------------------------------------------------------------------
   No.  Atomic        x           y          z          Radius
        Label       (Frac)      (Frac)     (Frac)       (Angs) 
--------------------------------------------------------------------------------
     1  Ge    c     0.160190    0.293910    0.273440    0.000000
     2  Ge    c     0.344816    0.344605    0.954784    0.000000
     3  Ge    c     0.322538    0.758354    0.958102    0.000000
     4  Si    c     0.041160    0.005750    0.357000    0.000000
     5  Si    c     0.445187    0.025376    0.358931    0.000000
     6  Si    c     0.943192    0.003481    0.615392    0.000000
     7  Si    c     0.547433    0.009459    0.615629    0.000000
     8  Si    c     0.546070    0.009659    0.105998    0.000000
     9  Si    c     0.935651    0.016940    0.102648    0.000000
    10  Si    c     0.439419    0.034106    0.860714    0.000000
    11  Si    c     0.046811    0.003737    0.865263    0.000000
    12  Si    c     0.328010    0.738748    0.269351    0.000000
    13  Si    c     0.831913    0.298297    0.712665    0.000000
    14  Si    c     0.657601    0.717231    0.702846    0.000000
    15  Si    c     0.837702    0.702065    0.709995    0.000000
    16  Si    c     0.652204    0.313401    0.703893    0.000000
    17  Si    c     0.147637    0.700661    0.276166    0.000000
    18  Si    c     0.344519    0.332833    0.266037    0.000000
    19  Si    c     0.646506    0.319173    0.007447    0.000000
    20  Si    c     0.836266    0.704986    0.013553    0.000000
    21  Si    c     0.141328    0.693764    0.969984    0.000000
    22  Si    c     0.160863    0.289534    0.963329    0.000000
    23  Si    c     0.655666    0.720298    0.006504    0.000000
    24  Si    c     0.826588    0.305022    0.017035    0.000000
    25  O3    c     0.103834    0.160632    0.369466    0.000000
    26  O2    c     0.379291    0.873122    0.356017    0.000000
    27  O2    c     0.885905    0.169096    0.630692    0.000000
    28  O2    c     0.606448    0.844787    0.612571    0.000000
    29  O2    c     0.894152    0.823181    0.625336    0.000000
    30  O2    c     0.596859    0.190302    0.616219    0.000000
    31  O2    c     0.089076    0.823984    0.355211    0.000000
    32  O2    c     0.405002    0.216283    0.350521    0.000000
    33  O2    c     0.980674    0.008460    0.474015    0.000000
    34  O2    c     0.490591    0.007932    0.493684    0.000000
    35  O2    c     0.992569    0.029749    0.224451    0.000000
    36  O2    c     0.508555    0.999374    0.246844    0.000000
    37  O2    c     0.012376    0.010126    0.720543    0.000000
    38  O2    c     0.495077    0.990748    0.742739    0.000000
    39  O2    c     0.588673    0.198159    0.089857    0.000000
    40  O2    c     0.891065    0.829105    0.101712    0.000000
    41  O3    c     0.412392    0.234025    0.862057    0.000000
    42  O2    c     0.077201    0.806504    0.892159    0.000000
    43  O3    c     0.362080    0.915206    0.859175    0.000000
    44  O2    c     0.114007    0.152048    0.872391    0.000000
    45  O2    c     0.608470    0.853453    0.095748    0.000000
    46  O2    c     0.872510    0.173182    0.110894    0.000000
    47  O2    c     0.480301    0.979749    0.997053    0.000000
    48  O2    c     0.981452    0.049967    0.969809    0.000000
    49  O3    c     0.142226    0.504889    0.327556    0.000000
    50  O2    c     0.346875    0.537810    0.309718    0.000000
    51  O2    c     0.857362    0.498568    0.682916    0.000000
    52  O2    c     0.632773    0.516108    0.673885    0.000000
    53  O3    c     0.258698    0.255483    0.288146    0.000000
    54  O2    c     0.236138    0.775048    0.291312    0.000000
    55  O2    c     0.741836    0.271256    0.670690    0.000000
    56  O2    c     0.748600    0.742813    0.670176    0.000000
    57  O3    c     0.136525    0.259153    0.112022    0.000000
    58  O3    c     0.348868    0.772047    0.120255    0.000000
    59  O2    c     0.840330    0.257105    0.865826    0.000000
    60  O2    c     0.643754    0.765264    0.854195    0.000000
    61  O2    c     0.851487    0.746964    0.861980    0.000000
    62  O2    c     0.635363    0.271702    0.855218    0.000000
    63  O2    c     0.123562    0.700602    0.123836    0.000000
    64  O3    c     0.369836    0.319803    0.116903    0.000000
    65  O2    c     0.625076    0.522395    0.032954    0.000000
    66  O2    c     0.856562    0.503062    0.045160    0.000000
    67  O1    c     0.348929    0.554879    0.903353    0.000000
    68  O2    c     0.140761    0.491240    0.922813    0.000000
    69  O2    c     0.735443    0.286046    0.050112    0.000000
    70  O2    c     0.746102    0.739758    0.045619    0.000000
    71  O3    c     0.251571    0.258423    0.942119    0.000000
    72  O3    c     0.223495    0.783198    0.943619    0.000000
    73  O3    s     0.102233    0.156125    0.360151    0.000000
    74  O2    s     0.380714    0.874730    0.346873    0.000000
    75  O2    s     0.885987    0.165777    0.638374    0.000000
    76  O2    s     0.605814    0.848243    0.622854    0.000000
    77  O2    s     0.893062    0.829057    0.633908    0.000000
    78  O2    s     0.597731    0.184586    0.625952    0.000000
    79  O2    s     0.090428    0.829681    0.346674    0.000000
    80  O2    s     0.402905    0.208268    0.342564    0.000000
    81  O2    s     0.983327    0.007602    0.476904    0.000000
    82  O2    s     0.492098    0.010182    0.492531    0.000000
    83  O2    s     0.991268    0.025546    0.224793    0.000000
    84  O2    s     0.505813    0.003500    0.242945    0.000000
    85  O2    s     0.008512    0.008642    0.725170    0.000000
    86  O2    s     0.494438    0.998040    0.742260    0.000000
    87  O2    s     0.590656    0.191751    0.082223    0.000000
    88  O2    s     0.889714    0.835195    0.092041    0.000000
    89  O3    s     0.409708    0.222730    0.869325    0.000000
    90  O2    s     0.080917    0.815065    0.897789    0.000000
    91  O3    s     0.366386    0.913726    0.867709    0.000000
    92  O2    s     0.111832    0.150916    0.881516    0.000000
    93  O2    s     0.607076    0.855253    0.086580    0.000000
    94  O2    s     0.874089    0.171304    0.099537    0.000000
    95  O2    s     0.483303    0.988602    0.994931    0.000000
    96  O2    s     0.983660    0.041092    0.972931    0.000000
    97  O3    s     0.144246    0.508328    0.317844    0.000000
    98  O2    s     0.344632    0.537537    0.301045    0.000000
    99  O2    s     0.852500    0.499087    0.689032    0.000000
   100  O2    s     0.637555    0.515786    0.680250    0.000000
   101  O3    s     0.259143    0.266312    0.284763    0.000000
   102  O2    s     0.236614    0.763638    0.287440    0.000000
   103  O2    s     0.741826    0.278739    0.678778    0.000000
   104  O2    s     0.748315    0.735599    0.678020    0.000000
   105  O3    s     0.140860    0.264924    0.110540    0.000000
   106  O3    s     0.344593    0.767603    0.122116    0.000000
   107  O2    s     0.837937    0.266605    0.865464    0.000000
   108  O2    s     0.646486    0.755475    0.854356    0.000000
   109  O2    s     0.848402    0.737788    0.861943    0.000000
   110  O2    s     0.638305    0.281061    0.855369    0.000000
   111  O2    s     0.127997    0.699875    0.123464    0.000000
   112  O3    s     0.365285    0.323041    0.118758    0.000000
   113  O2    s     0.630590    0.521603    0.027405    0.000000
   114  O2    s     0.851186    0.503701    0.038748    0.000000
   115  O1    s     0.346550    0.553297    0.911829    0.000000
   116  O2    s     0.142854    0.492362    0.931887    0.000000
   117  O2    s     0.735619    0.291825    0.041793    0.000000
   118  O2    s     0.746048    0.733739    0.037774    0.000000
   119  O3    s     0.249830    0.268517    0.945299    0.000000
   120  O3    s     0.223253    0.771824    0.947605    0.000000
--------------------------------------------------------------------------------

  Final Cartesian lattice vectors (Angstroms) :

       17.145306   -0.053105   -0.055312
       -0.023028    7.608718   -0.010441
       -0.034333   -0.013492   10.260715


  Final cell parameters and derivatives :

--------------------------------------------------------------------------------
       a           17.145478 Angstrom     dE/de1(xx)    -0.000888 eV/strain
       b            7.608760 Angstrom     dE/de2(yy)     0.003437 eV/strain
       c           10.260781 Angstrom     dE/de3(zz)     0.002205 eV/strain
       alpha       90.153377 Degrees      dE/de4(yz)     0.000930 eV/strain
       beta        90.376317 Degrees      dE/de5(xz)     0.000715 eV/strain
       gamma       90.350616 Degrees      dE/de6(xy)     0.000632 eV/strain
--------------------------------------------------------------------------------

  Primitive cell volume =          1338.519751 Angs**3

  Density of cell =      1.954836 g/cm**3

  Non-primitive cell volume =          1338.519751 Angs**3


  Final internal derivatives :

--------------------------------------------------------------------------------
   No.  Atomic          a             b             c           Radius
        Label          (eV)          (eV)          (eV)        (eV/Angs)
--------------------------------------------------------------------------------
      1 Ge    c       0.000000      0.000000      0.000000      0.000000
      2 Ge    c      -0.003914      0.000217     -0.000165      0.000000
      3 Ge    c      -0.001337      0.000695     -0.004622      0.000000
      4 Si    c      -0.001977      0.003481     -0.001022      0.000000
      5 Si    c       0.002220      0.001336      0.000644      0.000000
      6 Si    c       0.005852      0.000495     -0.001013      0.000000
      7 Si    c       0.004845     -0.000497      0.000101      0.000000
      8 Si    c      -0.001996     -0.000022      0.001580      0.000000
      9 Si    c       0.000900      0.001006     -0.001296      0.000000
     10 Si    c       0.000186      0.000310     -0.003124      0.000000
     11 Si    c      -0.006622      0.000078      0.000752      0.000000
     12 Si    c      -0.000722     -0.000395      0.002335      0.000000
     13 Si    c       0.000592     -0.002462     -0.003923      0.000000
     14 Si    c       0.000002      0.001555     -0.003492      0.000000
     15 Si    c      -0.003557      0.002001     -0.002701      0.000000
     16 Si    c       0.000692     -0.000010     -0.003135      0.000000
     17 Si    c      -0.000141     -0.000687     -0.000001      0.000000
     18 Si    c      -0.015699     -0.004871      0.001385      0.000000
     19 Si    c      -0.000251     -0.001294      0.002588      0.000000
     20 Si    c       0.001769      0.002044      0.003816      0.000000
     21 Si    c       0.003599     -0.000051     -0.000490      0.000000
     22 Si    c       0.012105      0.001711      0.000937      0.000000
     23 Si    c      -0.002031      0.001668      0.003092      0.000000
     24 Si    c       0.002593     -0.003620      0.005276      0.000000
     25 O3    c      -0.006863     -0.003237     -0.002441      0.000000
     26 O2    c      -0.000627      0.000238      0.000275      0.000000
     27 O2    c      -0.004313      0.001395      0.003320      0.000000
     28 O2    c       0.001635     -0.000866      0.000831      0.000000
     29 O2    c      -0.001565     -0.001015      0.002519      0.000000
     30 O2    c       0.001297      0.001000      0.000901      0.000000
     31 O2    c       0.001720     -0.000579     -0.001111      0.000000
     32 O2    c       0.001593     -0.001441     -0.000781      0.000000
     33 O2    c       0.003018     -0.000621     -0.000367      0.000000
     34 O2    c      -0.004358     -0.000066     -0.001999      0.000000
     35 O2    c       0.000132     -0.000622      0.000171      0.000000
     36 O2    c       0.001769      0.000155     -0.000872      0.000000
     37 O2    c      -0.007908     -0.000077      0.000628      0.000000
     38 O2    c      -0.002768     -0.000234      0.006695      0.000000
     39 O2    c       0.001843      0.001395     -0.002722      0.000000
     40 O2    c      -0.002594     -0.001548     -0.002286      0.000000
     41 O3    c       0.000991     -0.000154     -0.001879      0.000000
     42 O2    c      -0.003574      0.001901      0.000229      0.000000
     43 O3    c      -0.003934     -0.001642      0.004943      0.000000
     44 O2    c      -0.001810     -0.001282      0.000423      0.000000
     45 O2    c       0.005320     -0.001736     -0.003591      0.000000
     46 O2    c      -0.002044      0.000710     -0.002216      0.000000
     47 O2    c      -0.000229     -0.000966      0.001994      0.000000
     48 O2    c       0.009408     -0.001182     -0.004911      0.000000
     49 O3    c       0.000599     -0.003379     -0.003252      0.000000
     50 O2    c      -0.000581      0.001252      0.000632      0.000000
     51 O2    c       0.001911      0.001547     -0.003355      0.000000
     52 O2    c      -0.001549     -0.002518     -0.002220      0.000000
     53 O3    c       0.037331      0.006651     -0.001392      0.000000
     54 O2    c      -0.001148      0.000418      0.000135      0.000000
     55 O2    c      -0.004057     -0.000568     -0.000849      0.000000
     56 O2    c       0.007241      0.000170     -0.000547      0.000000
     57 O3    c       0.001880      0.000497     -0.001132      0.000000
     58 O3    c       0.003926      0.001036     -0.001256      0.000000
     59 O2    c       0.006879     -0.001142     -0.002761      0.000000
     60 O2    c      -0.005996      0.000803      0.001005      0.000000
     61 O2    c       0.004420      0.000807     -0.001337      0.000000
     62 O2    c      -0.005721     -0.000604      0.000711      0.000000
     63 O2    c      -0.002766     -0.000227      0.001620      0.000000
     64 O3    c      -0.003874      0.000869     -0.000660      0.000000
     65 O2    c      -0.003857     -0.002283      0.002522      0.000000
     66 O2    c       0.004320      0.003729      0.003647      0.000000
     67 O1    c      -0.004653      0.001460      0.000566      0.000000
     68 O2    c       0.002606     -0.003866      0.000995      0.000000
     69 O2    c      -0.009217     -0.001235      0.001074      0.000000
     70 O2    c       0.002215      0.000963      0.000781      0.000000
     71 O3    c      -0.014929      0.001713      0.004747      0.000000
     72 O3    c       0.006529     -0.001024      0.000524      0.000000
     73 O3    s       0.000708      0.000835      0.001868      0.000000
     74 O2    s       0.001743      0.001278     -0.000867      0.000000
     75 O2    s       0.004717     -0.001970     -0.001029      0.000000
     76 O2    s      -0.000264      0.000773     -0.001346      0.000000
     77 O2    s       0.002999      0.001246     -0.001092      0.000000
     78 O2    s       0.001902     -0.000113     -0.001489      0.000000
     79 O2    s      -0.002895      0.001085      0.001399      0.000000
     80 O2    s      -0.003833     -0.000407     -0.002457      0.000000
     81 O2    s       0.000432      0.000306     -0.000232      0.000000
     82 O2    s      -0.002482      0.000375     -0.001021      0.000000
     83 O2    s      -0.001735      0.000574      0.000981      0.000000
     84 O2    s      -0.002510      0.000217      0.000152      0.000000
     85 O2    s       0.005132     -0.000850      0.000737      0.000000
     86 O2    s      -0.001932     -0.000401     -0.002183      0.000000
     87 O2    s      -0.000993     -0.001203      0.001185      0.000000
     88 O2    s       0.001662      0.001081      0.001368      0.000000
     89 O3    s       0.001176     -0.000341      0.001106      0.000000
     90 O2    s      -0.005372      0.001480     -0.001206      0.000000
     91 O3    s      -0.000180      0.000179     -0.003847      0.000000
     92 O2    s      -0.000683      0.000132      0.002114      0.000000
     93 O2    s      -0.002307      0.002453      0.000701      0.000000
     94 O2    s       0.002866     -0.002015      0.002671      0.000000
     95 O2    s      -0.000139      0.001283      0.001268      0.000000
     96 O2    s       0.003664     -0.000183     -0.000433      0.000000
     97 O3    s       0.001267      0.001573      0.001885      0.000000
     98 O2    s       0.000266     -0.002344     -0.000298      0.000000
     99 O2    s       0.007752      0.000677     -0.002865      0.000000
    100 O2    s      -0.005353     -0.000479     -0.003642      0.000000
    101 O3    s      -0.015302     -0.001343     -0.001425      0.000000
    102 O2    s       0.001886      0.000096      0.001260      0.000000
    103 O2    s      -0.000789     -0.003731     -0.004562      0.000000
    104 O2    s       0.001287      0.003737     -0.004187      0.000000
    105 O3    s      -0.001951      0.000528     -0.002894      0.000000
    106 O3    s       0.000587     -0.001072      0.000431      0.000000
    107 O2    s       0.008201     -0.002312     -0.000724      0.000000
    108 O2    s      -0.006225      0.002374      0.000437      0.000000
    109 O2    s       0.003944      0.000986     -0.000017      0.000000
    110 O2    s      -0.002446     -0.001230      0.000452      0.000000
    111 O2    s      -0.001752     -0.000302      0.000277      0.000000
    112 O3    s       0.004300     -0.000789      0.005636      0.000000
    113 O2    s      -0.005869     -0.000324      0.002647      0.000000
    114 O2    s       0.006337      0.000916      0.004173      0.000000
    115 O1    s       0.002255      0.000090     -0.000487      0.000000
    116 O2    s      -0.004204     -0.001425     -0.000463      0.000000
    117 O2    s      -0.002922     -0.003669      0.005476      0.000000
    118 O2    s       0.000486      0.003412      0.005416      0.000000
    119 O3    s       0.000734      0.000451     -0.005380      0.000000
    120 O3    s       0.000356      0.000627     -0.002631      0.000000
--------------------------------------------------------------------------------
  Maximum abs         0.037331      0.006651      0.006695      0.000000
--------------------------------------------------------------------------------


  Born effective charge tensors : 

-------------------------------------------------------------------------------
  Atom             x           y             z
-------------------------------------------------------------------------------
    1 Ge    x       4.0160      0.2841     -0.2505
            y       0.3169      4.1837     -0.1017
            z      -0.0673     -0.1063      3.4462
-------------------------------------------------------------------------------
    2 Ge    x       4.1006     -0.1127     -0.2868
            y      -0.4048      4.1989      0.0565
            z      -0.1738      0.0418      3.3777
-------------------------------------------------------------------------------
    3 Ge    x       4.0740      0.2957     -0.3357
            y       0.1429      4.2044     -0.0924
            z      -0.0925     -0.1182      3.4093
-------------------------------------------------------------------------------
    4 Si    x       3.6951      0.0590     -0.0430
            y       0.2551      3.4039      0.0529
            z      -0.6161     -0.0284      3.8300
-------------------------------------------------------------------------------
    5 Si    x       3.4716     -0.1275      0.2317
            y       0.1165      3.1881     -0.0269
            z       0.3745     -0.0402      3.7989
-------------------------------------------------------------------------------
    6 Si    x       3.4224      0.0289     -0.2981
            y      -0.0629      3.2574      0.0182
            z      -0.3424     -0.0182      3.8145
-------------------------------------------------------------------------------
    7 Si    x       3.4215      0.0443      0.1559
            y      -0.0866      3.2344      0.0125
            z       0.6173     -0.0314      3.7009
-------------------------------------------------------------------------------
    8 Si    x       3.4848      0.0922     -0.3123
            y      -0.1300      3.2738     -0.0104
            z      -0.4612     -0.0210      3.1453
-------------------------------------------------------------------------------
    9 Si    x       3.4770      0.1111      0.1007
            y      -0.1124      3.2556      0.0174
            z       0.6050      0.0132      3.0677
-------------------------------------------------------------------------------
   10 Si    x       3.8251     -0.2071     -0.1411
            y       0.2708      3.5841      0.0152
            z      -0.5856      0.1108      3.1450
-------------------------------------------------------------------------------
   11 Si    x       3.4519     -0.1551      0.2947
            y       0.1744      3.2170     -0.0527
            z       0.3622     -0.0198      3.1299
-------------------------------------------------------------------------------
   12 Si    x       3.3598      0.2623      0.1063
            y       0.2602      3.5113      0.0289
            z      -0.0195      0.0454      3.1178
-------------------------------------------------------------------------------
   13 Si    x       3.1932     -0.2839     -0.1005
            y      -0.2242      3.4650      0.1576
            z      -0.1240      0.0831      2.8206
-------------------------------------------------------------------------------
   14 Si    x       3.1728     -0.2886      0.1431
            y      -0.2129      3.4630     -0.1856
            z       0.1131     -0.0715      2.8148
-------------------------------------------------------------------------------
   15 Si    x       3.1810      0.2333     -0.0780
            y       0.2510      3.4330     -0.1730
            z      -0.0982     -0.0795      2.8128
-------------------------------------------------------------------------------
   16 Si    x       3.1732      0.2411      0.0906
            y       0.2449      3.4253      0.1664
            z       0.1048      0.0810      2.8181
-------------------------------------------------------------------------------
   17 Si    x       3.3232     -0.1300     -0.1467
            y      -0.2995      3.7344     -0.0404
            z      -0.0667      0.0494      2.9114
-------------------------------------------------------------------------------
   18 Si    x       3.6431     -0.0667     -0.0308
            y      -0.3059      3.6281     -0.1162
            z      -0.0847     -0.1393      3.1557
-------------------------------------------------------------------------------
   19 Si    x       3.2577      0.2643     -0.1314
            y       0.2599      3.4103     -0.1693
            z      -0.1691     -0.0625      2.7366
-------------------------------------------------------------------------------
   20 Si    x       3.2525      0.2708      0.1493
            y       0.2492      3.4113      0.1682
            z       0.1373      0.0677      2.7208
-------------------------------------------------------------------------------
   21 Si    x       3.5996      0.0447      0.1364
            y      -0.2212      3.5204     -0.1271
            z       0.0928     -0.1710      2.7888
-------------------------------------------------------------------------------
   22 Si    x       3.7486      0.2015      0.1005
            y       0.1542      3.6197      0.0934
            z      -0.0836      0.1092      3.0575
-------------------------------------------------------------------------------
   23 Si    x       3.2123     -0.2882     -0.1725
            y      -0.1399      3.4520      0.1849
            z      -0.1322      0.0778      2.7569
-------------------------------------------------------------------------------
   24 Si    x       3.2267     -0.3073      0.1716
            y      -0.1477      3.4376     -0.1797
            z       0.1114     -0.0645      2.7250
-------------------------------------------------------------------------------
   25 O3    x      -2.1649     -0.9521      0.3298
            y      -1.0428     -2.3379      0.3348
            z       0.3990      0.3337     -1.5455
-------------------------------------------------------------------------------
   26 O2    x      -1.8058     -0.7273     -0.3153
            y      -0.7531     -1.9144     -0.2913
            z      -0.3393     -0.3198     -1.3428
-------------------------------------------------------------------------------
   27 O2    x      -1.7247      0.7370      0.3669
            y       0.7523     -1.9891     -0.3799
            z       0.3712     -0.3522     -1.3546
-------------------------------------------------------------------------------
   28 O2    x      -1.6988      0.7171     -0.3089
            y       0.7368     -1.9660      0.3376
            z      -0.3613      0.3198     -1.3609
-------------------------------------------------------------------------------
   29 O2    x      -1.6593     -0.7052      0.3468
            y      -0.6876     -1.9821      0.3542
            z       0.3545      0.3445     -1.3612
-------------------------------------------------------------------------------
   30 O2    x      -1.6419     -0.6998     -0.3055
            y      -0.6721     -1.9728     -0.3316
            z      -0.3736     -0.3315     -1.3573
-------------------------------------------------------------------------------
   31 O2    x      -1.7391      0.6905      0.3023
            y       0.7023     -1.9201     -0.2955
            z       0.3604     -0.2932     -1.3556
-------------------------------------------------------------------------------
   32 O2    x      -1.6594      0.6997     -0.3169
            y       0.6424     -2.0322      0.3203
            z      -0.3211      0.3323     -1.3535
-------------------------------------------------------------------------------
   33 O2    x      -1.6393      0.0205      0.8135
            y       0.0001     -1.0843     -0.0100
            z       1.0199     -0.0168     -2.7403
-------------------------------------------------------------------------------
   34 O2    x      -1.6785      0.0491     -0.8368
            y       0.0048     -1.0789      0.0230
            z      -1.0851      0.0790     -2.6949
-------------------------------------------------------------------------------
   35 O2    x      -1.7187      0.0208     -0.7272
            y       0.0190     -1.1279      0.0307
            z      -0.7319      0.0469     -2.2604
-------------------------------------------------------------------------------
   36 O2    x      -1.7014      0.0328      0.7302
            y       0.0307     -1.1092     -0.0247
            z       0.7139     -0.0292     -2.2731
-------------------------------------------------------------------------------
   37 O2    x      -1.7077      0.0240     -0.7047
            y      -0.0190     -1.1020      0.0095
            z      -0.6588      0.0153     -2.2179
-------------------------------------------------------------------------------
   38 O2    x      -1.7034      0.0738      0.6760
            y       0.0275     -1.1330     -0.0599
            z       0.6572     -0.0793     -2.1336
-------------------------------------------------------------------------------
   39 O2    x      -1.6928     -0.7069      0.3664
            y      -0.6462     -2.0132      0.3758
            z       0.3828      0.3602     -1.2522
-------------------------------------------------------------------------------
   40 O2    x      -1.6620     -0.7049     -0.3077
            y      -0.6404     -2.0102     -0.3412
            z      -0.3574     -0.3251     -1.2366
-------------------------------------------------------------------------------
   41 O3    x      -1.9359      0.8145      0.3927
            y       0.7394     -2.4579     -0.3746
            z       0.4229     -0.3616     -1.4023
-------------------------------------------------------------------------------
   42 O2    x      -1.6853      0.6826     -0.3900
            y       0.5525     -2.0126      0.3845
            z      -0.3405      0.3774     -1.2405
-------------------------------------------------------------------------------
   43 O3    x      -2.3312     -0.8838      0.3771
            y      -0.8878     -2.0993      0.3872
            z       0.3669      0.3523     -1.4376
-------------------------------------------------------------------------------
   44 O2    x      -1.7947     -0.7094     -0.3486
            y      -0.6760     -1.9113     -0.3251
            z      -0.3117     -0.3404     -1.2539
-------------------------------------------------------------------------------
   45 O2    x      -1.7439      0.7220      0.3810
            y       0.7065     -1.9475     -0.3815
            z       0.3655     -0.3467     -1.2647
-------------------------------------------------------------------------------
   46 O2    x      -1.7298      0.7080     -0.2817
            y       0.6949     -1.9229      0.3210
            z      -0.3264      0.3003     -1.2552
-------------------------------------------------------------------------------
   47 O2    x      -1.7554      0.0108     -0.5428
            y      -0.0140     -1.2008      0.0571
            z      -0.2835      0.0530     -1.7686
-------------------------------------------------------------------------------
   48 O2    x      -1.8001      0.0581      0.6045
            y       0.0391     -1.1803     -0.0194
            z       0.3311     -0.0073     -1.7071
-------------------------------------------------------------------------------
   49 O3    x      -1.2814      0.0339      0.0965
            y       0.1096     -3.1688      0.0958
            z       0.0612      0.1323     -1.2848
-------------------------------------------------------------------------------
   50 O2    x      -1.1907      0.1066     -0.0581
            y       0.1717     -2.5846     -0.0143
            z      -0.0399     -0.0143     -1.1022
-------------------------------------------------------------------------------
   51 O2    x      -1.1571     -0.0237      0.0573
            y      -0.0418     -2.5619      0.0162
            z       0.0729      0.0040     -1.0639
-------------------------------------------------------------------------------
   52 O2    x      -1.1504     -0.0284     -0.0662
            y      -0.0420     -2.5529      0.0077
            z      -0.0761      0.0079     -1.0679
-------------------------------------------------------------------------------
   53 O3    x      -3.0710     -0.2198      0.0618
            y      -0.1482     -1.4906      0.0588
            z       0.0122      0.0732     -1.1392
-------------------------------------------------------------------------------
   54 O2    x      -2.4898     -0.0840     -0.0082
            y      -0.0443     -1.2818     -0.0305
            z       0.0111     -0.0497     -1.0519
-------------------------------------------------------------------------------
   55 O2    x      -2.3832      0.0547     -0.0333
            y       0.0256     -1.2451     -0.0649
            z      -0.0351     -0.0465     -1.0691
-------------------------------------------------------------------------------
   56 O2    x      -2.3853      0.0543     -0.0314
            y       0.0207     -1.2442      0.0697
            z      -0.0152      0.0456     -1.0646
-------------------------------------------------------------------------------
   57 O3    x      -1.3677     -0.1386     -0.0060
            y      -0.1371     -1.4300      0.0527
            z       0.0319      0.0136     -2.6062
-------------------------------------------------------------------------------
   58 O3    x      -1.4030     -0.1391      0.0678
            y      -0.1312     -1.3883      0.1171
            z       0.0468      0.1145     -2.6503
-------------------------------------------------------------------------------
   59 O2    x      -1.1759      0.1290     -0.0028
            y       0.0980     -1.2843     -0.0153
            z       0.0121     -0.0055     -2.0691
-------------------------------------------------------------------------------
   60 O2    x      -1.1697      0.1286      0.0340
            y       0.0986     -1.2903      0.0101
            z       0.0268     -0.0035     -2.0724
-------------------------------------------------------------------------------
   61 O2    x      -1.1949     -0.1306     -0.0089
            y      -0.1206     -1.2727     -0.0120
            z      -0.0154     -0.0114     -2.0594
-------------------------------------------------------------------------------
   62 O2    x      -1.1978     -0.1302      0.0526
            y      -0.1237     -1.2749     -0.0081
            z       0.0605     -0.0192     -2.0695
-------------------------------------------------------------------------------
   63 O2    x      -1.2388      0.0620     -0.0804
            y       0.1114     -1.2508     -0.0298
            z      -0.0945     -0.0550     -2.1072
-------------------------------------------------------------------------------
   64 O3    x      -1.4006      0.1105      0.0889
            y       0.1605     -1.3839     -0.0415
            z       0.1009      0.0139     -2.6533
-------------------------------------------------------------------------------
   65 O2    x      -1.2169     -0.0337      0.0828
            y      -0.0807     -2.5332      0.0049
            z       0.1008      0.0080     -1.0227
-------------------------------------------------------------------------------
   66 O2    x      -1.2066     -0.0332     -0.0871
            y      -0.0824     -2.5129      0.0182
            z      -0.0929      0.0066     -1.0242
-------------------------------------------------------------------------------
   67 O1    x      -1.4474      0.1433      0.1523
            y       0.2444     -3.2969     -0.0033
            z       0.1108     -0.0283     -1.3225
-------------------------------------------------------------------------------
   68 O2    x      -1.2105      0.0872     -0.0762
            y       0.1747     -2.5618     -0.0636
            z      -0.0436     -0.0418     -1.0869
-------------------------------------------------------------------------------
   69 O2    x      -2.4138      0.0418     -0.0351
            y       0.0256     -1.2337      0.0666
            z      -0.0127      0.0374     -1.0435
-------------------------------------------------------------------------------
   70 O2    x      -2.4237      0.0472     -0.0266
            y       0.0355     -1.2395     -0.0624
            z      -0.0142     -0.0374     -1.0378
-------------------------------------------------------------------------------
   71 O3    x      -3.1715     -0.1325      0.0763
            y      -0.0226     -1.4380     -0.0529
            z       0.0591     -0.0600     -1.1208
-------------------------------------------------------------------------------
   72 O3    x      -3.0615     -0.3433      0.0958
            y      -0.2590     -1.4853      0.0832
            z       0.0762      0.0964     -1.1428
-------------------------------------------------------------------------------




  Elastic Constant Matrix: (Units=GPa)

-------------------------------------------------------------------------------
  Indices      1         2         3         4         5         6    
-------------------------------------------------------------------------------
       1     56.5411   31.9140   24.4813    0.0346   -0.3369   -3.8178
       2     31.9140   74.8256   22.7454    1.0505   -0.7911   -0.9093
       3     24.4813   22.7454   32.3712   -0.8653   -0.8457   -0.7135
       4      0.0346    1.0505   -0.8653   12.9895   -1.1872   -0.0785
       5     -0.3369   -0.7911   -0.8457   -1.1872   26.7334   -0.3101
       6     -3.8178   -0.9093   -0.7135   -0.0785   -0.3101   24.3041
-------------------------------------------------------------------------------


  Elastic Compliance Matrix: (Units=1/GPa)

-------------------------------------------------------------------------------
  Indices      1         2         3         4         5         6    
-------------------------------------------------------------------------------
       1    0.029478 -0.007327 -0.017087 -0.000635 -0.000369  0.003848
       2   -0.007327  0.018879 -0.007790 -0.002019  0.000122 -0.000678
       3   -0.017087 -0.007790  0.049397  0.004074  0.001280 -0.001496
       4   -0.000635 -0.002019  0.004074  0.077745  0.003516  0.000240
       5   -0.000369  0.000122  0.001280  0.003516  0.037607  0.000475
       6    0.003848 -0.000678 -0.001496  0.000240  0.000475  0.041687
-------------------------------------------------------------------------------

  Mechanical properties :

-------------------------------------------------------------------------------
  Convention :                    Reuss         Voigt         Hill
-------------------------------------------------------------------------------
  Bulk  Modulus (GPa)     =      29.98811      35.77993      32.88402
  Shear Modulus (GPa)     =      15.13702      18.44522      16.79112
-------------------------------------------------------------------------------
  Velocity S-wave (km/s)  =       2.78269       3.07176       2.93079
  Velocity P-wave (km/s)  =       5.06606       5.55736       5.31739
-------------------------------------------------------------------------------
  Compressibility (1/GPa) =    0.03334655
-------------------------------------------------------------------------------
  Stress axis :                     x             y             z
-------------------------------------------------------------------------------
  Youngs Moduli (GPa)     =      33.92331      52.96972      20.24423
-------------------------------------------------------------------------------
  Poissons Ratio (x)      =                     0.38811       0.34591
  Poissons Ratio (y)      =       0.24855                     0.15769
  Poissons Ratio (z)      =       0.57965       0.41261
-------------------------------------------------------------------------------


  Piezoelectric Strain Matrix: (Units=C/m**2)

-------------------------------------------------------------------------------
  Indices      1         2         3         4         5         6    
-------------------------------------------------------------------------------
       x    -0.32222  -0.09874   0.14677   0.24376   0.13349  -0.29090
       y    -0.53850  -0.03381  -0.37703  -0.04010   0.40580  -0.17413
       z     0.02038   0.11922   0.36968  -0.18339  -0.18849   0.03455
-------------------------------------------------------------------------------


  Piezoelectric Stress Matrix: (Units=10**-11 C/N)

-------------------------------------------------------------------------------
  Indices      1         2         3         4         5         6    
-------------------------------------------------------------------------------
       x    -1.26062  -0.09250   1.51240   2.03522   0.60340  -1.33972
       y    -0.99785   0.64929  -0.85426  -0.28584   1.47496  -0.85611
       z    -0.62704  -0.04545   1.59437  -1.36595  -0.72366   0.07511
-------------------------------------------------------------------------------


  Static dielectric constant tensor : 

-------------------------------------------------------------------------------
              x         y         z
-------------------------------------------------------------------------------
       x     3.87281   0.04397  -0.04395
       y     0.04397   4.20128   0.00424
       z    -0.04395   0.00424   3.09862
--------------------------------------------------------------------------------

  High frequency dielectric constant tensor : 

-------------------------------------------------------------------------------
              x         y         z
-------------------------------------------------------------------------------
       x     1.68115  -0.00073  -0.00005
       y    -0.00073   1.68553  -0.00043
       z    -0.00005  -0.00043   1.62137
-------------------------------------------------------------------------------

  Static refractive indices : 

-------------------------------------------------------------------------------
    1 =    1.75957      2 =    1.96712      3 =    2.05111
-------------------------------------------------------------------------------

  High frequency refractive indices : 

-------------------------------------------------------------------------------
    1 =    1.27333      2 =    1.29655      3 =    1.29833
-------------------------------------------------------------------------------


  Time to end of optimisation =      10.2104 seconds


  Peak dynamic memory used =       5.01 MB 


  Timing analysis for GULP :

--------------------------------------------------------------------------------
  Task / Subroutine                                          Time (Seconds)
--------------------------------------------------------------------------------
  Calculation of reciprocal space energy and derivatives          0.6892
  Calculation of real space energy and derivatives                6.4692
  Calculation of three-body energy and derivatives                0.6379
  Calculation and manipulation of Hessian matrix                  3.1818
  Calculation of matrix inversion                                 0.0443
  Global summation overhead                                       0.0001
--------------------------------------------------------------------------------
  Total CPU time                                                 10.2104
--------------------------------------------------------------------------------


  Dump file written as c00248.vasp.grs
  CIF file written as c00248.vasp.cif


  Job Finished at 12:11.36  7th October    2025                               

