********************************************************************************
*                       GENERAL UTILITY LATTICE PROGRAM                        *
*                                 Julian Gale                                  *
*                       Curtin Institute for Computation                       *
*                    School of Molecular and Life Sciences                     *
*                    Curtin University, Western Australia                      *
********************************************************************************
* Version = 6.1.2 * Last modified =   3rd November 2022                        *
********************************************************************************
*  optimise     - perform optimisation run                                     *
*  conp         - constant pressure calculation                                *
*  property     - calculate properties for final geometry                      *
********************************************************************************

  Job Started  at 12:13.00  7th October    2025                               

  Number of CPUs =     1


  Total number of configurations input =      1

********************************************************************************
*  Input for Configuration =   1 : c00257.vasp                                 *
********************************************************************************

  Formula = Ge3Si21O48                                                  

  Number of irreducible atoms/shells =     120


  Total number atoms/shells =     120

  Dimensionality = 3               :  Bulk   



  Cartesian lattice vectors (Angstroms) :

       17.182800    0.000000    0.000000
        0.000000    7.513760    0.000000
        0.000000    0.000000   10.447700

  Cell parameters (Angstroms/Degrees):

  a =      17.1828    alpha =  90.0000
  b =       7.5138    beta  =  90.0000
  c =      10.4477    gamma =  90.0000

  Initial cell volume =        1348.875752 Angs**3

  Temperature of configuration =   0.00     K 

  Pressure of configuration =         0.000 GPa 

  Fractional coordinates of asymmetric unit :

--------------------------------------------------------------------------------
   No.  Atomic       x           y          z         Charge      Occupancy
        Label      (Frac)      (Frac)     (Frac)        (e)         (Frac)  
--------------------------------------------------------------------------------
      1 Ge    c    0.160190    0.293910    0.273440     4.00000    1.000000    
      2 Ge    c    0.339340 *  0.705910 *  0.982560 *   4.00000    1.000000    
      3 Ge    c    0.660660 *  0.705910 *  0.017440 *   4.00000    1.000000    
      4 Si    c    0.052090 *  0.000000 *  0.372270 *   4.00000    1.000000    
      5 Si    c    0.447910 *  0.000000 *  0.372270 *   4.00000    1.000000    
      6 Si    c    0.947910 *  0.000000 *  0.627730 *   4.00000    1.000000    
      7 Si    c    0.552090 *  0.000000 *  0.627730 *   4.00000    1.000000    
      8 Si    c    0.556730 *  0.000000 *  0.122130 *   4.00000    1.000000    
      9 Si    c    0.943270 *  0.000000 *  0.122130 *   4.00000    1.000000    
     10 Si    c    0.443270 *  0.000000 *  0.877870 *   4.00000    1.000000    
     11 Si    c    0.056730 *  0.000000 *  0.877870 *   4.00000    1.000000    
     12 Si    c    0.339810 *  0.706090 *  0.273440 *   4.00000    1.000000    
     13 Si    c    0.839810 *  0.293910 *  0.726560 *   4.00000    1.000000    
     14 Si    c    0.660190 *  0.706090 *  0.726560 *   4.00000    1.000000    
     15 Si    c    0.839810 *  0.706090 *  0.726560 *   4.00000    1.000000    
     16 Si    c    0.660190 *  0.293910 *  0.726560 *   4.00000    1.000000    
     17 Si    c    0.160190 *  0.706090 *  0.273440 *   4.00000    1.000000    
     18 Si    c    0.339810 *  0.293910 *  0.273440 *   4.00000    1.000000    
     19 Si    c    0.660660 *  0.294090 *  0.017440 *   4.00000    1.000000    
     20 Si    c    0.839340 *  0.705910 *  0.017440 *   4.00000    1.000000    
     21 Si    c    0.339340 *  0.294090 *  0.982560 *   4.00000    1.000000    
     22 Si    c    0.160660 *  0.705910 *  0.982560 *   4.00000    1.000000    
     23 Si    c    0.160660 *  0.294090 *  0.982560 *   4.00000    1.000000    
     24 Si    c    0.839340 *  0.294090 *  0.017440 *   4.00000    1.000000    
     25 O3    c    0.106570 *  0.174340 *  0.366200 *   1.33043    1.000000    
     26 O2    c    0.393430 *  0.825660 *  0.366200 *   0.87073    1.000000    
     27 O2    c    0.893430 *  0.174340 *  0.633800 *   0.87073    1.000000    
     28 O2    c    0.606570 *  0.825660 *  0.633800 *   0.87073    1.000000    
     29 O2    c    0.893430 *  0.825660 *  0.633800 *   0.87073    1.000000    
     30 O2    c    0.606570 *  0.174340 *  0.633800 *   0.87073    1.000000    
     31 O2    c    0.106570 *  0.825660 *  0.366200 *   0.87073    1.000000    
     32 O2    c    0.393430 *  0.174340 *  0.366200 *   0.87073    1.000000    
     33 O2    c    0.000000 *  0.000000 *  0.500000 *   0.87073    1.000000    
     34 O2    c    0.500000 *  0.000000 *  0.500000 *   0.87073    1.000000    
     35 O2    c    0.994520 *  0.000000 *  0.250840 *   0.87073    1.000000    
     36 O2    c    0.505480 *  0.000000 *  0.250840 *   0.87073    1.000000    
     37 O2    c    0.005480 *  0.000000 *  0.749160 *   0.87073    1.000000    
     38 O2    c    0.494520 *  0.000000 *  0.749160 *   0.87073    1.000000    
     39 O2    c    0.610230 *  0.175520 *  0.115390 *   0.87073    1.000000    
     40 O2    c    0.889770 *  0.824480 *  0.115390 *   0.87073    1.000000    
     41 O2    c    0.389770 *  0.175520 *  0.884610 *   0.87073    1.000000    
     42 O2    c    0.110230 *  0.824480 *  0.884610 *   0.87073    1.000000    
     43 O3    c    0.389770 *  0.824480 *  0.884610 *   1.33043    1.000000    
     44 O2    c    0.110230 *  0.175520 *  0.884610 *   0.87073    1.000000    
     45 O3    c    0.610230 *  0.824480 *  0.115390 *   1.33043    1.000000    
     46 O2    c    0.889770 *  0.175520 *  0.115390 *   0.87073    1.000000    
     47 O2    c    0.500000 *  0.000000 *  0.000000 *   0.87073    1.000000    
     48 O2    c    0.000000 *  0.000000 *  0.000000 *   0.87073    1.000000    
     49 O3    c    0.151750 *  0.500000 *  0.313330 *   1.33043    1.000000    
     50 O2    c    0.348250 *  0.500000 *  0.313330 *   0.87073    1.000000    
     51 O2    c    0.848250 *  0.500000 *  0.686670 *   0.87073    1.000000    
     52 O2    c    0.651750 *  0.500000 *  0.686670 *   0.87073    1.000000    
     53 O3    c    0.250000 *  0.234950 *  0.285720 *   1.33043    1.000000    
     54 O2    c    0.250000 *  0.765050 *  0.285720 *   0.87073    1.000000    
     55 O2    c    0.750000 *  0.234950 *  0.714280 *   0.87073    1.000000    
     56 O2    c    0.750000 *  0.765050 *  0.714280 *   0.87073    1.000000    
     57 O3    c    0.131410 *  0.268650 *  0.127790 *   1.33043    1.000000    
     58 O3    c    0.368590 *  0.731350 *  0.127790 *   1.33043    1.000000    
     59 O2    c    0.868590 *  0.268650 *  0.872210 *   0.87073    1.000000    
     60 O3    c    0.631410 *  0.731350 *  0.872210 *   1.33043    1.000000    
     61 O2    c    0.868590 *  0.731350 *  0.872210 *   0.87073    1.000000    
     62 O2    c    0.631410 *  0.268650 *  0.872210 *   0.87073    1.000000    
     63 O2    c    0.131410 *  0.731350 *  0.127790 *   0.87073    1.000000    
     64 O2    c    0.368590 *  0.268650 *  0.127790 *   0.87073    1.000000    
     65 O3    c    0.653920 *  0.500000 *  0.058200 *   1.33043    1.000000    
     66 O2    c    0.846080 *  0.500000 *  0.058200 *   0.87073    1.000000    
     67 O3    c    0.346080 *  0.500000 *  0.941800 *   1.33043    1.000000    
     68 O2    c    0.153920 *  0.500000 *  0.941800 *   0.87073    1.000000    
     69 O2    c    0.750000 *  0.231060 *  0.027050 *   0.87073    1.000000    
     70 O3    c    0.750000 *  0.768940 *  0.027050 *   1.33043    1.000000    
     71 O2    c    0.250000 *  0.231060 *  0.972950 *   0.87073    1.000000    
     72 O3    c    0.250000 *  0.768940 *  0.972950 *   1.33043    1.000000    
     73 O3    s    0.106570 *  0.174340 *  0.366200 *  -3.33043    1.000000    
     74 O2    s    0.393430 *  0.825660 *  0.366200 *  -2.87073    1.000000    
     75 O2    s    0.893430 *  0.174340 *  0.633800 *  -2.87073    1.000000    
     76 O2    s    0.606570 *  0.825660 *  0.633800 *  -2.87073    1.000000    
     77 O2    s    0.893430 *  0.825660 *  0.633800 *  -2.87073    1.000000    
     78 O2    s    0.606570 *  0.174340 *  0.633800 *  -2.87073    1.000000    
     79 O2    s    0.106570 *  0.825660 *  0.366200 *  -2.87073    1.000000    
     80 O2    s    0.393430 *  0.174340 *  0.366200 *  -2.87073    1.000000    
     81 O2    s    0.000000 *  0.000000 *  0.500000 *  -2.87073    1.000000    
     82 O2    s    0.500000 *  0.000000 *  0.500000 *  -2.87073    1.000000    
     83 O2    s    0.994520 *  0.000000 *  0.250840 *  -2.87073    1.000000    
     84 O2    s    0.505480 *  0.000000 *  0.250840 *  -2.87073    1.000000    
     85 O2    s    0.005480 *  0.000000 *  0.749160 *  -2.87073    1.000000    
     86 O2    s    0.494520 *  0.000000 *  0.749160 *  -2.87073    1.000000    
     87 O2    s    0.610230 *  0.175520 *  0.115390 *  -2.87073    1.000000    
     88 O2    s    0.889770 *  0.824480 *  0.115390 *  -2.87073    1.000000    
     89 O2    s    0.389770 *  0.175520 *  0.884610 *  -2.87073    1.000000    
     90 O2    s    0.110230 *  0.824480 *  0.884610 *  -2.87073    1.000000    
     91 O3    s    0.389770 *  0.824480 *  0.884610 *  -3.33043    1.000000    
     92 O2    s    0.110230 *  0.175520 *  0.884610 *  -2.87073    1.000000    
     93 O3    s    0.610230 *  0.824480 *  0.115390 *  -3.33043    1.000000    
     94 O2    s    0.889770 *  0.175520 *  0.115390 *  -2.87073    1.000000    
     95 O2    s    0.500000 *  0.000000 *  0.000000 *  -2.87073    1.000000    
     96 O2    s    0.000000 *  0.000000 *  0.000000 *  -2.87073    1.000000    
     97 O3    s    0.151750 *  0.500000 *  0.313330 *  -3.33043    1.000000    
     98 O2    s    0.348250 *  0.500000 *  0.313330 *  -2.87073    1.000000    
     99 O2    s    0.848250 *  0.500000 *  0.686670 *  -2.87073    1.000000    
    100 O2    s    0.651750 *  0.500000 *  0.686670 *  -2.87073    1.000000    
    101 O3    s    0.250000 *  0.234950 *  0.285720 *  -3.33043    1.000000    
    102 O2    s    0.250000 *  0.765050 *  0.285720 *  -2.87073    1.000000    
    103 O2    s    0.750000 *  0.234950 *  0.714280 *  -2.87073    1.000000    
    104 O2    s    0.750000 *  0.765050 *  0.714280 *  -2.87073    1.000000    
    105 O3    s    0.131410 *  0.268650 *  0.127790 *  -3.33043    1.000000    
    106 O3    s    0.368590 *  0.731350 *  0.127790 *  -3.33043    1.000000    
    107 O2    s    0.868590 *  0.268650 *  0.872210 *  -2.87073    1.000000    
    108 O3    s    0.631410 *  0.731350 *  0.872210 *  -3.33043    1.000000    
    109 O2    s    0.868590 *  0.731350 *  0.872210 *  -2.87073    1.000000    
    110 O2    s    0.631410 *  0.268650 *  0.872210 *  -2.87073    1.000000    
    111 O2    s    0.131410 *  0.731350 *  0.127790 *  -2.87073    1.000000    
    112 O2    s    0.368590 *  0.268650 *  0.127790 *  -2.87073    1.000000    
    113 O3    s    0.653920 *  0.500000 *  0.058200 *  -3.33043    1.000000    
    114 O2    s    0.846080 *  0.500000 *  0.058200 *  -2.87073    1.000000    
    115 O3    s    0.346080 *  0.500000 *  0.941800 *  -3.33043    1.000000    
    116 O2    s    0.153920 *  0.500000 *  0.941800 *  -2.87073    1.000000    
    117 O2    s    0.750000 *  0.231060 *  0.027050 *  -2.87073    1.000000    
    118 O3    s    0.750000 *  0.768940 *  0.027050 *  -3.33043    1.000000    
    119 O2    s    0.250000 *  0.231060 *  0.972950 *  -2.87073    1.000000    
    120 O3    s    0.250000 *  0.768940 *  0.972950 *  -3.33043    1.000000    
--------------------------------------------------------------------------------



********************************************************************************
*  General input information                                                   *
********************************************************************************

  Species output for all configurations : 

--------------------------------------------------------------------------------
  Species    Type    Atomic    Atomic    Charge       Radii (Angs)     Library
                     Number     Mass       (e)     Cova   Ionic  VDW   Symbol
--------------------------------------------------------------------------------
    Ge       Core       32      72.61   4.000000   1.170  0.000  1.750 Ge       
    Si       Core       14      28.09   4.000000   1.200  0.000  2.100 Si       
    O1       Core        8      16.00   1.733957   0.730  0.000  0.000 O1       
    O2       Core        8      16.00   0.870733   0.730  0.000  1.360 O2       
    O3       Core        8      16.00   1.330431   0.730  0.000  1.360 O3       
    O1       Shell       8       0.00  -3.733957   0.730  0.000  0.000 O1       
    O2       Shell       8       0.00  -2.870733   0.730  0.000  0.000 O2       
    O3       Shell       8       0.00  -3.330431   0.730  0.000  0.000 O3       
--------------------------------------------------------------------------------


  Lattice summation method               =    Ewald          (3-D)
                                         =    Parry          (2-D)
                                         =    Saunders et al (1-D)
  Accuracy factor for lattice sums       =   12.000


  Analytic derivatives to be used

  Time limit = Infinity

  Maximum range for interatomic potentials =    100000.000000 Angstroms

  General interatomic potentials :

--------------------------------------------------------------------------------
Atom  Types   Potential      Parameter       Value         Units   Cutoffs(Ang)
  1     2                                                            Min /  Max 
--------------------------------------------------------------------------------
Si   c O1   s Buckingham    Buckingham A     1315.2478    eV        0.000 16.000
                            Buckingham rho  0.31775900    Ang       
                            Buckingham C     10.141118    eV*Ang^6  
--------------------------------------------------------------------------------
Si   c O2   s Buckingham    Buckingham A     1315.2478    eV        0.000 16.000
                            Buckingham rho  0.31775900    Ang       
                            Buckingham C     10.141118    eV*Ang^6  
--------------------------------------------------------------------------------
Si   c O3   s Buckingham    Buckingham A     1315.2478    eV        0.000 16.000
                            Buckingham rho  0.31775900    Ang       
                            Buckingham C     10.141118    eV*Ang^6  
--------------------------------------------------------------------------------
Ge   c O1   s Buckingham    Buckingham A     1497.3996    eV        0.000 16.000
                            Buckingham rho  0.32564600    Ang       
                            Buckingham C     16.808599    eV*Ang^6  
--------------------------------------------------------------------------------
Ge   c O2   s Buckingham    Buckingham A     1497.3996    eV        0.000 16.000
                            Buckingham rho  0.32564600    Ang       
                            Buckingham C     16.808599    eV*Ang^6  
--------------------------------------------------------------------------------
Ge   c O3   s Buckingham    Buckingham A     1497.3996    eV        0.000 16.000
                            Buckingham rho  0.32564600    Ang       
                            Buckingham C     16.808599    eV*Ang^6  
--------------------------------------------------------------------------------
O1   s O1   s Buckingham    Buckingham A     22764.000    eV        0.000 16.000
                            Buckingham rho  0.14900000    Ang       
                            Buckingham C     10.937044    eV*Ang^6  
--------------------------------------------------------------------------------
O1   s O2   s Buckingham    Buckingham A     22764.000    eV        0.000 16.000
                            Buckingham rho  0.14900000    Ang       
                            Buckingham C     10.937044    eV*Ang^6  
--------------------------------------------------------------------------------
O1   s O3   s Buckingham    Buckingham A     22764.000    eV        0.000 16.000
                            Buckingham rho  0.14900000    Ang       
                            Buckingham C     10.937044    eV*Ang^6  
--------------------------------------------------------------------------------
O2   s O2   s Buckingham    Buckingham A     22764.000    eV        0.000 16.000
                            Buckingham rho  0.14900000    Ang       
                            Buckingham C     10.937044    eV*Ang^6  
--------------------------------------------------------------------------------
O2   s O3   s Buckingham    Buckingham A     22764.000    eV        0.000 16.000
                            Buckingham rho  0.14900000    Ang       
                            Buckingham C     10.937044    eV*Ang^6  
--------------------------------------------------------------------------------
O3   s O3   s Buckingham    Buckingham A     22764.000    eV        0.000 16.000
                            Buckingham rho  0.14900000    Ang       
                            Buckingham C     10.937044    eV*Ang^6  
--------------------------------------------------------------------------------
O1   c O1   s Spring (c-s)  Spring k 2       180.31577    eV*Ang^-2 0.000  0.800
                            Spring k 4       0.0000000    eV*Ang^-4 
--------------------------------------------------------------------------------
O2   c O2   s Spring (c-s)  Spring k 2       75.969800    eV*Ang^-2 0.000  0.800
                            Spring k 4       0.0000000    eV*Ang^-4 
--------------------------------------------------------------------------------
O3   c O3   s Spring (c-s)  Spring k 2       128.14270    eV*Ang^-2 0.000  0.800
                            Spring k 4       0.0000000    eV*Ang^-4 
--------------------------------------------------------------------------------

  General Three-body potentials :

--------------------------------------------------------------------------------
  Atoms       Potential      Parameter       Value         Units   Cutoffs(Ang)
  1 / 2 / 3                                                          Min /  Max 
--------------------------------------------------------------------------------
Si    core    Harmonic      Three-body cnst  1.2614000    eV*rad^-2 0.000  1.900
O1    shel                  Three-body angl  109.47000    degrees   0.000  1.900
O1    shel                  Three-body k4    0.0000000    eV*rad^-4 0.000  3.500
                            Three-body k3    0.0000000    eV*rad^-3 
--------------------------------------------------------------------------------
Si    core    Harmonic      Three-body cnst  1.2614000    eV*rad^-2 0.000  1.900
O1    shel                  Three-body angl  109.47000    degrees   0.000  1.900
õ(1   shel                  Three-body k4    0.0000000    eV*rad^-4 0.000  3.500
                            Three-body k3    0.0000000    eV*rad^-3 
--------------------------------------------------------------------------------
Si    core    Harmonic      Three-body cnst  1.2614000    eV*rad^-2 0.000  1.900
õ(1   shel                  Three-body angl  109.47000    degrees   0.000  1.900
õ(1   shel                  Three-body k4    0.0000000    eV*rad^-4 0.000  3.500
                            Three-body k3    0.0000000    eV*rad^-3 
--------------------------------------------------------------------------------
Si    core    Harmonic      Three-body cnst  1.2614000    eV*rad^-2 0.000  1.900
O1    shel                  Three-body angl  109.47000    degrees   0.000  1.900
O2    shel                  Three-body k4    0.0000000    eV*rad^-4 0.000  3.500
                            Three-body k3    0.0000000    eV*rad^-3 
--------------------------------------------------------------------------------
Si    core    Harmonic      Three-body cnst  1.2614000    eV*rad^-2 0.000  1.900
O1    shel                  Three-body angl  109.47000    degrees   0.000  1.900
õ(2   shel                  Three-body k4    0.0000000    eV*rad^-4 0.000  3.500
                            Three-body k3    0.0000000    eV*rad^-3 
--------------------------------------------------------------------------------
Si    core    Harmonic      Three-body cnst  1.2614000    eV*rad^-2 0.000  1.900
O2    shel                  Three-body angl  109.47000    degrees   0.000  1.900
õ(1   shel                  Three-body k4    0.0000000    eV*rad^-4 0.000  3.500
                            Three-body k3    0.0000000    eV*rad^-3 
--------------------------------------------------------------------------------
Si    core    Harmonic      Three-body cnst  1.2614000    eV*rad^-2 0.000  1.900
õ(1   shel                  Three-body angl  109.47000    degrees   0.000  1.900
õ(2   shel                  Three-body k4    0.0000000    eV*rad^-4 0.000  3.500
                            Three-body k3    0.0000000    eV*rad^-3 
--------------------------------------------------------------------------------
Si    core    Harmonic      Three-body cnst  1.2614000    eV*rad^-2 0.000  1.900
O2    shel                  Three-body angl  109.47000    degrees   0.000  1.900
O2    shel                  Three-body k4    0.0000000    eV*rad^-4 0.000  3.500
                            Three-body k3    0.0000000    eV*rad^-3 
--------------------------------------------------------------------------------
Si    core    Harmonic      Three-body cnst  1.2614000    eV*rad^-2 0.000  1.900
O2    shel                  Three-body angl  109.47000    degrees   0.000  1.900
õ(2   shel                  Three-body k4    0.0000000    eV*rad^-4 0.000  3.500
                            Three-body k3    0.0000000    eV*rad^-3 
--------------------------------------------------------------------------------
Si    core    Harmonic      Three-body cnst  1.2614000    eV*rad^-2 0.000  1.900
õ(2   shel                  Three-body angl  109.47000    degrees   0.000  1.900
õ(2   shel                  Three-body k4    0.0000000    eV*rad^-4 0.000  3.500
                            Three-body k3    0.0000000    eV*rad^-3 
--------------------------------------------------------------------------------

********************************************************************************
*  Output for configuration   1 : c00257.vasp                                  *
********************************************************************************


  Components of energy : 

--------------------------------------------------------------------------------
  Interatomic potentials     =         760.31794850 eV    
  Three-body potentials      =           0.01441341 eV    
  Monopole - monopole (real) =       -2676.00317478 eV    
  Monopole - monopole (recip)=       -1115.35404472 eV    
  Monopole - monopole (total)=       -3791.35721950 eV    
--------------------------------------------------------------------------------
  Total lattice energy       =       -3031.02485759 eV    
--------------------------------------------------------------------------------
  Total lattice energy       =         -292447.5653 kJ/(mole unit cells)
--------------------------------------------------------------------------------


  Number of variables =      363

  Maximum number of calculations  =          1000
  Maximum Hessian update interval =            10
  Maximum step size               =   0.100000000
  Maximum parameter tolerance     =   0.000010000
  Maximum function  tolerance     =   0.000010000
  Maximum gradient  tolerance     =   0.001000000
  Maximum gradient  component     =   0.010000000

  Symmetry not applied to optimisation

  Cell parameters to be optimised using strains

  Newton-Raphson optimiser to be used

  BFGS hessian update to be used

  Lower half triangular hessian to be used

  Minimiser to switch to RFO
  When gradient norm is less than     0.050000

  Dumpfile to be written after every cycle

  Start of bulk optimisation :

  Cycle:      0 Energy:     -3031.024858  Gnorm:      4.457191  CPU:    0.127
  ** Hessian calculated **
  Cycle:      1 Energy:     -3043.620209  Gnorm:      3.611951  CPU:    0.340
  ** Hessian calculated **
  Cycle:      2 Energy:     -3063.745859  Gnorm:      0.796816  CPU:    0.563
  ** Hessian calculated **
  Cycle:      3 Energy:     -3065.429276  Gnorm:      0.457549  CPU:    0.786
  Cycle:      4 Energy:     -3066.023283  Gnorm:      0.302306  CPU:    0.906
  Cycle:      5 Energy:     -3066.510437  Gnorm:      0.229074  CPU:    1.043
  Cycle:      6 Energy:     -3066.928929  Gnorm:      0.179089  CPU:    1.183
  Cycle:      7 Energy:     -3067.190694  Gnorm:      0.150688  CPU:    1.300
  Cycle:      8 Energy:     -3067.347242  Gnorm:      0.107683  CPU:    1.418
  Cycle:      9 Energy:     -3067.418878  Gnorm:      0.066011  CPU:    1.534
  Cycle:     10 Energy:     -3067.454388  Gnorm:      0.049461  CPU:    1.672
  ** Hessian has required structure
  Cycle:     11 Energy:     -3067.466494  Gnorm:      0.082344  CPU:    1.840
  ** Hessian has required structure
  Cycle:     12 Energy:     -3067.485061  Gnorm:      0.082664  CPU:    2.032
  ** Hessian has wrong structure
  ** Imaginary eigenvectors =   2
  ** Hessian has wrong structure
  ** Imaginary eigenvectors =   2
  Cycle:     13 Energy:     -3067.490605  Gnorm:      0.082653  CPU:    2.704
  ** Hessian has wrong structure
  ** Imaginary eigenvectors =   2
  ** Hessian has wrong structure
  ** Imaginary eigenvectors =   2
  Cycle:     14 Energy:     -3067.499894  Gnorm:      0.082638  CPU:    3.356
  ** Hessian has wrong structure
  ** Imaginary eigenvectors =   2
  ** Hessian has wrong structure
  ** Imaginary eigenvectors =   1
  Cycle:     15 Energy:     -3067.515063  Gnorm:      0.082662  CPU:    3.910
  ** Hessian has wrong structure
  ** Imaginary eigenvectors =   1
  ** Hessian has wrong structure
  ** Imaginary eigenvectors =   1
  Cycle:     16 Energy:     -3067.639575  Gnorm:      0.072281  CPU:    4.399
  ** Hessian has wrong structure
  ** Imaginary eigenvectors =   1
  ** Hessian has wrong structure
  ** Imaginary eigenvectors =   1
  Cycle:     17 Energy:     -3067.748462  Gnorm:      0.062940  CPU:    4.934
  ** Hessian has wrong structure
  ** Imaginary eigenvectors =   1
  Cycle:     18 Energy:     -3067.895985  Gnorm:      0.051229  CPU:    5.286
  ** Hessian has wrong structure
  ** Imaginary eigenvectors =   1
  Cycle:     19 Energy:     -3067.938721  Gnorm:      0.063219  CPU:    5.695
  ** Hessian has required structure
  Cycle:     20 Energy:     -3068.052698  Gnorm:      0.034488  CPU:    6.012
  ** Hessian has required structure
  Cycle:     21 Energy:     -3068.098485  Gnorm:      0.023750  CPU:    6.228
  ** Hessian has required structure
  Cycle:     22 Energy:     -3068.128638  Gnorm:      0.017247  CPU:    6.447
  ** Hessian has required structure
  Cycle:     23 Energy:     -3068.151366  Gnorm:      0.024043  CPU:    6.648
  ** Hessian has required structure
  Cycle:     24 Energy:     -3068.174200  Gnorm:      0.018180  CPU:    6.827
  ** Hessian has required structure
  Cycle:     25 Energy:     -3068.188732  Gnorm:      0.025630  CPU:    7.009
  ** Hessian has required structure
  Cycle:     26 Energy:     -3068.201986  Gnorm:      0.023197  CPU:    7.211
  ** Hessian has required structure
  Cycle:     27 Energy:     -3068.212817  Gnorm:      0.024276  CPU:    7.391
  ** Hessian has required structure
  Cycle:     28 Energy:     -3068.229974  Gnorm:      0.015367  CPU:    7.572
  ** Hessian has required structure
  Cycle:     29 Energy:     -3068.238928  Gnorm:      0.018805  CPU:    7.751
  ** Hessian has required structure
  Cycle:     30 Energy:     -3068.254769  Gnorm:      0.010236  CPU:    8.034
  ** Hessian has required structure
  Cycle:     31 Energy:     -3068.259418  Gnorm:      0.006177  CPU:    8.226
  ** Hessian has required structure
  Cycle:     32 Energy:     -3068.261074  Gnorm:      0.003472  CPU:    8.421
  ** Hessian has required structure
  Cycle:     33 Energy:     -3068.261717  Gnorm:      0.002787  CPU:    8.616
  ** Hessian has required structure
  Cycle:     34 Energy:     -3068.262025  Gnorm:      0.001383  CPU:    8.792
  ** Hessian has required structure
  Cycle:     35 Energy:     -3068.262252  Gnorm:      0.002679  CPU:    8.989
  ** Hessian has required structure
  Cycle:     36 Energy:     -3068.262461  Gnorm:      0.002277  CPU:    9.187
  ** Hessian has required structure
  Cycle:     37 Energy:     -3068.262696  Gnorm:      0.002080  CPU:    9.387
  ** Hessian has required structure
  Cycle:     38 Energy:     -3068.262982  Gnorm:      0.001572  CPU:    9.587
  ** Hessian has required structure
  Cycle:     39 Energy:     -3068.263145  Gnorm:      0.001163  CPU:    9.767
  ** Hessian has required structure
  Cycle:     40 Energy:     -3068.263251  Gnorm:      0.000718  CPU:   10.054
  ** Hessian has required structure
  Cycle:     41 Energy:     -3068.263295  Gnorm:      0.000394  CPU:   10.265
  ** Hessian has required structure
  Cycle:     42 Energy:     -3068.263306  Gnorm:      0.000239  CPU:   10.452
  ** Hessian has required structure
  Cycle:     43 Energy:     -3068.263310  Gnorm:      0.000169  CPU:   10.619
  ** Hessian has required structure
  Cycle:     44 Energy:     -3068.263311  Gnorm:      0.000135  CPU:   10.783
  ** Hessian has required structure
  Cycle:     45 Energy:     -3068.263311  Gnorm:      0.000127  CPU:   10.946
  ** Hessian has required structure
  Cycle:     46 Energy:     -3068.263311  Gnorm:      0.000125  CPU:   11.107
  ** Hessian has required structure
  Cycle:     47 Energy:     -3068.262601  Gnorm:      0.008557  CPU:   11.388
  ** Hessian has required structure
  Cycle:     48 Energy:     -3068.263095  Gnorm:      0.004760  CPU:   11.714
  ** Hessian has required structure
  Cycle:     49 Energy:     -3068.263258  Gnorm:      0.002382  CPU:   11.934
  ** Hessian has required structure
  Cycle:     50 Energy:     -3068.263300  Gnorm:      0.001191  CPU:   12.151
  ** Hessian has required structure
  Cycle:     51 Energy:     -3068.263310  Gnorm:      0.000596  CPU:   12.369
  ** Hessian has required structure
  Cycle:     52 Energy:     -3068.263311  Gnorm:      0.000417  CPU:   12.541
  ** Hessian has required structure
  Cycle:     53 Energy:     -3068.263312  Gnorm:      0.000292  CPU:   12.713
  ** Hessian has required structure
  Cycle:     54 Energy:     -3068.263313  Gnorm:      0.000204  CPU:   12.887
  ** Hessian has required structure
  Cycle:     55 Energy:     -3068.263313  Gnorm:      0.000143  CPU:   13.060
  ** Hessian has required structure
  Cycle:     56 Energy:     -3068.263313  Gnorm:      0.000100  CPU:   13.233
  ** Hessian has required structure
  Cycle:     57 Energy:     -3068.263313  Gnorm:      0.000070  CPU:   13.405
  ** Hessian has required structure
  Cycle:     58 Energy:     -3068.263313  Gnorm:      0.000049  CPU:   13.666
  ** Hessian has required structure


  **** Optimisation achieved ****


  Final energy =   -3068.26331313 eV      
  Final Gnorm  =       0.00003434

  Components of energy : 

--------------------------------------------------------------------------------
  Interatomic potentials     =         815.33179287 eV    
  Three-body potentials      =           0.20827018 eV    
  Monopole - monopole (real) =       -2205.88128359 eV    
  Monopole - monopole (recip)=       -1677.92209260 eV    
  Monopole - monopole (total)=       -3883.80337618 eV    
--------------------------------------------------------------------------------
  Total lattice energy       =       -3068.26331313 eV    
--------------------------------------------------------------------------------
  Total lattice energy       =         -296040.5070 kJ/(mole unit cells)
--------------------------------------------------------------------------------

  Final fractional coordinates of atoms :

--------------------------------------------------------------------------------
   No.  Atomic        x           y          z          Radius
        Label       (Frac)      (Frac)     (Frac)       (Angs) 
--------------------------------------------------------------------------------
     1  Ge    c     0.160190    0.293910    0.273440    0.000000
     2  Ge    c     0.338549    0.693799    0.954169    0.000000
     3  Ge    c     0.667898    0.707449    0.013955    0.000000
     4  Si    c     0.046419    0.001741    0.351209    0.000000
     5  Si    c     0.449739    0.008341    0.353951    0.000000
     6  Si    c     0.950026    0.983296    0.610727    0.000000
     7  Si    c     0.553421    0.005019    0.609523    0.000000
     8  Si    c     0.556844    0.995525    0.103219    0.000000
     9  Si    c     0.944807    0.987862    0.093192    0.000000
    10  Si    c     0.448155    0.981561    0.860097    0.000000
    11  Si    c     0.058524    0.988437    0.856253    0.000000
    12  Si    c     0.338558    0.714656    0.263810    0.000000
    13  Si    c     0.837011    0.280120    0.700440    0.000000
    14  Si    c     0.666342    0.711706    0.703309    0.000000
    15  Si    c     0.845027    0.680941    0.705899    0.000000
    16  Si    c     0.657622    0.306347    0.697359    0.000000
    17  Si    c     0.157875    0.702823    0.260578    0.000000
    18  Si    c     0.343247    0.310136    0.277827    0.000000
    19  Si    c     0.652302    0.305625    0.000552    0.000000
    20  Si    c     0.849945    0.670001    0.013345    0.000000
    21  Si    c     0.346513    0.290508    0.972838    0.000000
    22  Si    c     0.155365    0.676866    0.955190    0.000000
    23  Si    c     0.165726    0.276066    0.963968    0.000000
    24  Si    c     0.833497    0.276028    0.005328    0.000000
    25  O3    c     0.099057    0.172123    0.368047    0.000000
    26  O2    c     0.389843    0.846284    0.351986    0.000000
    27  O2    c     0.890070    0.146648    0.618065    0.000000
    28  O2    c     0.612935    0.840996    0.617615    0.000000
    29  O2    c     0.904439    0.802256    0.629384    0.000000
    30  O2    c     0.601056    0.186960    0.609082    0.000000
    31  O2    c     0.104722    0.836505    0.341734    0.000000
    32  O2    c     0.402313    0.191716    0.363261    0.000000
    33  O2    c     0.987489    0.977982    0.469061    0.000000
    34  O2    c     0.506600    0.988297    0.475823    0.000000
    35  O2    c     0.995197    0.019919    0.220906    0.000000
    36  O2    c     0.501608    0.007132    0.225648    0.000000
    37  O2    c     0.019671    0.003052    0.714781    0.000000
    38  O2    c     0.491469    0.006684    0.725107    0.000000
    39  O2    c     0.596605    0.183368    0.083566    0.000000
    40  O2    c     0.912135    0.789849    0.090766    0.000000
    41  O2    c     0.401041    0.158099    0.894096    0.000000
    42  O2    c     0.095888    0.794875    0.870957    0.000000
    43  O3    c     0.388984    0.822283    0.848294    0.000000
    44  O2    c     0.123750    0.138550    0.867661    0.000000
    45  O3    c     0.622703    0.849342    0.120145    0.000000
    46  O2    c     0.873747    0.127665    0.092650    0.000000
    47  O2    c     0.509038    0.933507    0.974801    0.000000
    48  O2    c     0.994764    0.026065    0.965867    0.000000
    49  O3    c     0.131035    0.508907    0.289658    0.000000
    50  O2    c     0.366081    0.514795    0.289729    0.000000
    51  O2    c     0.865592    0.478000    0.675467    0.000000
    52  O2    c     0.638084    0.511769    0.679885    0.000000
    53  O3    c     0.256074    0.279833    0.325633    0.000000
    54  O2    c     0.247772    0.732714    0.303294    0.000000
    55  O2    c     0.746732    0.265085    0.656328    0.000000
    56  O2    c     0.756783    0.725330    0.660294    0.000000
    57  O3    c     0.154349    0.222263    0.113076    0.000000
    58  O3    c     0.348212    0.765593    0.113723    0.000000
    59  O2    c     0.843766    0.230853    0.852515    0.000000
    60  O3    c     0.659544    0.769488    0.853020    0.000000
    61  O2    c     0.852649    0.717700    0.860205    0.000000
    62  O2    c     0.644174    0.254935    0.847712    0.000000
    63  O2    c     0.150416    0.739555    0.105854    0.000000
    64  O2    c     0.350059    0.249200    0.126822    0.000000
    65  O3    c     0.627164    0.502697    0.027424    0.000000
    66  O2    c     0.871662    0.465591    0.035597    0.000000
    67  O3    c     0.375173    0.483563    0.944320    0.000000
    68  O2    c     0.131589    0.472478    0.942723    0.000000
    69  O2    c     0.742636    0.280484    0.042771    0.000000
    70  O3    c     0.763900    0.705851    0.063961    0.000000
    71  O2    c     0.256838    0.272406    0.926404    0.000000
    72  O3    c     0.242292    0.701071    0.905354    0.000000
    73  O3    s     0.098865    0.165146    0.358518    0.000000
    74  O2    s     0.390633    0.849247    0.342568    0.000000
    75  O2    s     0.890567    0.144017    0.626558    0.000000
    76  O2    s     0.612430    0.844394    0.626219    0.000000
    77  O2    s     0.902678    0.808346    0.636070    0.000000
    78  O2    s     0.602264    0.180922    0.618848    0.000000
    79  O2    s     0.104369    0.839383    0.333549    0.000000
    80  O2    s     0.400969    0.185086    0.353153    0.000000
    81  O2    s     0.989971    0.981392    0.471897    0.000000
    82  O2    s     0.505399    0.992647    0.477190    0.000000
    83  O2    s     0.994970    0.014031    0.220304    0.000000
    84  O2    s     0.502280    0.005831    0.225679    0.000000
    85  O2    s     0.016329    0.999184    0.719314    0.000000
    86  O2    s     0.493479    0.003525    0.727733    0.000000
    87  O2    s     0.598561    0.176787    0.076272    0.000000
    88  O2    s     0.908893    0.797762    0.082674    0.000000
    89  O2    s     0.399978    0.153847    0.899489    0.000000
    90  O2    s     0.098382    0.802573    0.878574    0.000000
    91  O3    s     0.390756    0.827602    0.858411    0.000000
    92  O2    s     0.121317    0.137391    0.877042    0.000000
    93  O3    s     0.619762    0.852286    0.109526    0.000000
    94  O2    s     0.876828    0.129241    0.082914    0.000000
    95  O2    s     0.507589    0.944992    0.976036    0.000000
    96  O2    s     0.996333    0.017544    0.967837    0.000000
    97  O3    s     0.136251    0.511290    0.285294    0.000000
    98  O2    s     0.360786    0.514229    0.285744    0.000000
    99  O2    s     0.860370    0.478565    0.681343    0.000000
   100  O2    s     0.643137    0.510680    0.684199    0.000000
   101  O3    s     0.257130    0.284001    0.316621    0.000000
   102  O2    s     0.247913    0.727598    0.294611    0.000000
   103  O2    s     0.746907    0.271141    0.665386    0.000000
   104  O2    s     0.756663    0.719134    0.669599    0.000000
   105  O3    s     0.155933    0.233261    0.111108    0.000000
   106  O3    s     0.346488    0.754821    0.115711    0.000000
   107  O2    s     0.841925    0.240962    0.852543    0.000000
   108  O3    s     0.660903    0.758706    0.851121    0.000000
   109  O2    s     0.851546    0.708714    0.859689    0.000000
   110  O2    s     0.646462    0.265632    0.847831    0.000000
   111  O2    s     0.151710    0.729185    0.106184    0.000000
   112  O2    s     0.348969    0.259898    0.126310    0.000000
   113  O3    s     0.633073    0.498870    0.023558    0.000000
   114  O2    s     0.865470    0.467117    0.030129    0.000000
   115  O3    s     0.369241    0.480905    0.948043    0.000000
   116  O2    s     0.137566    0.473476    0.946225    0.000000
   117  O2    s     0.742964    0.282738    0.034156    0.000000
   118  O3    s     0.764883    0.702246    0.054564    0.000000
   119  O2    s     0.256638    0.274815    0.935419    0.000000
   120  O3    s     0.241305    0.697980    0.914484    0.000000
--------------------------------------------------------------------------------

  Final Cartesian lattice vectors (Angstroms) :

       17.133682    0.062762   -0.055980
        0.028297    7.638159   -0.035713
       -0.035652   -0.049081   10.239188


  Final cell parameters and derivatives :

--------------------------------------------------------------------------------
       a           17.133888 Angstrom     dE/de1(xx)     0.000160 eV/strain
       b            7.638295 Angstrom     dE/de2(yy)     0.000751 eV/strain
       c           10.239368 Angstrom     dE/de3(zz)    -0.007173 eV/strain
       alpha       90.543263 Degrees      dE/de4(yz)    -0.000209 eV/strain
       beta        90.387696 Degrees      dE/de5(xz)     0.000188 eV/strain
       gamma       89.576991 Degrees      dE/de6(xy)     0.000323 eV/strain
--------------------------------------------------------------------------------

  Primitive cell volume =          1339.937076 Angs**3

  Density of cell =      1.952768 g/cm**3

  Non-primitive cell volume =          1339.937076 Angs**3


  Final internal derivatives :

--------------------------------------------------------------------------------
   No.  Atomic          a             b             c           Radius
        Label          (eV)          (eV)          (eV)        (eV/Angs)
--------------------------------------------------------------------------------
      1 Ge    c       0.000000      0.000000      0.000000      0.000000
      2 Ge    c       0.000638      0.000389      0.001240      0.000000
      3 Ge    c      -0.000764      0.000626     -0.001095      0.000000
      4 Si    c      -0.002335     -0.000244      0.000151      0.000000
      5 Si    c       0.002333      0.000054      0.000111      0.000000
      6 Si    c       0.002098      0.000177     -0.000846      0.000000
      7 Si    c      -0.002268     -0.000183     -0.000432      0.000000
      8 Si    c      -0.002020     -0.000202      0.000310      0.000000
      9 Si    c       0.002194      0.000272      0.000263      0.000000
     10 Si    c       0.002033      0.000293     -0.000563      0.000000
     11 Si    c      -0.002121      0.000010     -0.000606      0.000000
     12 Si    c       0.000675      0.000300     -0.001405      0.000000
     13 Si    c       0.000726     -0.000435      0.001241      0.000000
     14 Si    c      -0.000677      0.000394      0.001444      0.000000
     15 Si    c       0.000516      0.000115      0.001401      0.000000
     16 Si    c      -0.000683     -0.000243      0.001264      0.000000
     17 Si    c      -0.000756      0.000359     -0.001263      0.000000
     18 Si    c       0.000684     -0.000331     -0.001268      0.000000
     19 Si    c      -0.000500     -0.000221     -0.001416      0.000000
     20 Si    c       0.000297      0.000212     -0.001308      0.000000
     21 Si    c       0.000612     -0.000416      0.001338      0.000000
     22 Si    c      -0.000581      0.000375      0.001307      0.000000
     23 Si    c      -0.000809     -0.000382      0.001363      0.000000
     24 Si    c       0.000663     -0.000362     -0.001382      0.000000
     25 O3    c       0.000844      0.000485      0.000144      0.000000
     26 O2    c      -0.000707     -0.000371      0.000022      0.000000
     27 O2    c      -0.000584      0.000297      0.000099      0.000000
     28 O2    c       0.000467     -0.000242      0.000007      0.000000
     29 O2    c      -0.000336     -0.000263     -0.000039      0.000000
     30 O2    c       0.000583      0.000360     -0.000026      0.000000
     31 O2    c       0.000568     -0.000293     -0.000074      0.000000
     32 O2    c      -0.000404      0.000220      0.000046      0.000000
     33 O2    c      -0.000098      0.000080      0.000637      0.000000
     34 O2    c       0.000124      0.000109      0.000302      0.000000
     35 O2    c      -0.000059     -0.000188      0.000022      0.000000
     36 O2    c       0.000030     -0.000021      0.000094      0.000000
     37 O2    c       0.000379     -0.000104      0.000798      0.000000
     38 O2    c      -0.000141     -0.000106      0.000433      0.000000
     39 O2    c       0.000404      0.000308      0.000014      0.000000
     40 O2    c      -0.000281     -0.000278      0.000093      0.000000
     41 O2    c      -0.000435      0.000221      0.000100      0.000000
     42 O2    c       0.000394     -0.000239      0.000024      0.000000
     43 O3    c      -0.001225     -0.000610      0.000055      0.000000
     44 O2    c       0.000876      0.000430      0.000136      0.000000
     45 O3    c       0.001157     -0.000592     -0.000302      0.000000
     46 O2    c      -0.000536      0.000263     -0.000013      0.000000
     47 O2    c       0.000089      0.000305      0.000248      0.000000
     48 O2    c      -0.000064     -0.000241      0.000269      0.000000
     49 O3    c      -0.000283     -0.000158      0.000249      0.000000
     50 O2    c       0.000179      0.000075      0.000122      0.000000
     51 O2    c       0.000178      0.000136     -0.000187      0.000000
     52 O2    c      -0.000180     -0.000029     -0.000139      0.000000
     53 O3    c      -0.000041      0.000005      0.000437      0.000000
     54 O2    c       0.000079      0.000012      0.000277      0.000000
     55 O2    c      -0.000155     -0.000012     -0.000272      0.000000
     56 O2    c       0.000047      0.000021     -0.000289      0.000000
     57 O3    c       0.000623      0.000870     -0.000166      0.000000
     58 O3    c      -0.000684     -0.000853      0.000253      0.000000
     59 O2    c      -0.000409      0.000495      0.000095      0.000000
     60 O3    c       0.000486     -0.000857     -0.000416      0.000000
     61 O2    c      -0.000237     -0.000434     -0.000152      0.000000
     62 O2    c       0.000545      0.000514      0.000105      0.000000
     63 O2    c       0.000273     -0.000512      0.000044      0.000000
     64 O2    c      -0.000215      0.000530     -0.000031      0.000000
     65 O3    c      -0.000395     -0.000201      0.000207      0.000000
     66 O2    c       0.000239      0.000041      0.000182      0.000000
     67 O3    c       0.000310      0.000149     -0.000221      0.000000
     68 O2    c      -0.000190     -0.000077     -0.000104      0.000000
     69 O2    c       0.000003      0.000010      0.000279      0.000000
     70 O3    c       0.000229     -0.000023      0.000400      0.000000
     71 O2    c       0.000030      0.000014     -0.000278      0.000000
     72 O3    c      -0.000078     -0.000019     -0.000430      0.000000
     73 O3    s      -0.000466     -0.000278     -0.000518      0.000000
     74 O2    s       0.000234      0.000132     -0.000443      0.000000
     75 O2    s       0.000198     -0.000115      0.000325      0.000000
     76 O2    s      -0.000162      0.000101      0.000397      0.000000
     77 O2    s       0.000101      0.000097      0.000303      0.000000
     78 O2    s      -0.000225     -0.000134      0.000449      0.000000
     79 O2    s      -0.000201      0.000108     -0.000371      0.000000
     80 O2    s       0.000159     -0.000093     -0.000511      0.000000
     81 O2    s       0.000085     -0.000002     -0.000189      0.000000
     82 O2    s      -0.000085     -0.000024     -0.000077      0.000000
     83 O2    s       0.000080      0.000100     -0.000142      0.000000
     84 O2    s       0.000011     -0.000033     -0.000110      0.000000
     85 O2    s      -0.000282      0.000054     -0.000107      0.000000
     86 O2    s       0.000117      0.000009     -0.000046      0.000000
     87 O2    s      -0.000194     -0.000114     -0.000372      0.000000
     88 O2    s       0.000139      0.000128     -0.000389      0.000000
     89 O2    s       0.000192     -0.000066      0.000235      0.000000
     90 O2    s      -0.000222      0.000101      0.000331      0.000000
     91 O3    s       0.000774      0.000337      0.000363      0.000000
     92 O2    s      -0.000428     -0.000151      0.000313      0.000000
     93 O3    s      -0.000798      0.000319     -0.000286      0.000000
     94 O2    s       0.000355     -0.000119     -0.000431      0.000000
     95 O2    s      -0.000057     -0.000184     -0.000042      0.000000
     96 O2    s       0.000041      0.000127     -0.000026      0.000000
     97 O3    s       0.000004      0.000096     -0.000425      0.000000
     98 O2    s       0.000043     -0.000039     -0.000270      0.000000
     99 O2    s       0.000064     -0.000021      0.000390      0.000000
    100 O2    s      -0.000084     -0.000008      0.000257      0.000000
    101 O3    s       0.000057     -0.000118     -0.000713      0.000000
    102 O2    s      -0.000028      0.000078     -0.000517      0.000000
    103 O2    s       0.000023     -0.000101      0.000524      0.000000
    104 O2    s       0.000011      0.000087      0.000551      0.000000
    105 O3    s      -0.000216     -0.000400      0.000001      0.000000
    106 O3    s       0.000256      0.000392     -0.000079      0.000000
    107 O2    s       0.000023     -0.000167     -0.000004      0.000000
    108 O3    s      -0.000123      0.000416      0.000123      0.000000
    109 O2    s      -0.000051      0.000125      0.000076      0.000000
    110 O2    s      -0.000154     -0.000161      0.000004      0.000000
    111 O2    s       0.000056      0.000145     -0.000068      0.000000
    112 O2    s      -0.000100     -0.000153     -0.000005      0.000000
    113 O3    s       0.000020      0.000082     -0.000357      0.000000
    114 O2    s       0.000066     -0.000023     -0.000353      0.000000
    115 O3    s       0.000046     -0.000066      0.000372      0.000000
    116 O2    s      -0.000097      0.000025      0.000224      0.000000
    117 O2    s      -0.000047     -0.000107     -0.000514      0.000000
    118 O3    s      -0.000013      0.000116     -0.000672      0.000000
    119 O2    s      -0.000002     -0.000093      0.000509      0.000000
    120 O3    s      -0.000008      0.000131      0.000688      0.000000
--------------------------------------------------------------------------------
  Maximum abs         0.002335      0.000870      0.001444      0.000000
--------------------------------------------------------------------------------


  Born effective charge tensors : 

-------------------------------------------------------------------------------
  Atom             x           y             z
-------------------------------------------------------------------------------
    1 Ge    x       3.9885      0.3685     -0.1195
            y       0.2789      4.1801     -0.2672
            z      -0.1791     -0.0296      3.4387
-------------------------------------------------------------------------------
    2 Ge    x       4.0179      0.3805     -0.2014
            y       0.1549      4.1658     -0.3279
            z      -0.1826     -0.0546      3.3676
-------------------------------------------------------------------------------
    3 Ge    x       3.9706     -0.4324     -0.1881
            y      -0.1236      4.1700      0.3021
            z      -0.1814      0.0694      3.3506
-------------------------------------------------------------------------------
    4 Si    x       3.6317      0.1990     -0.0704
            y       0.1793      3.4471      0.0837
            z      -0.5956     -0.1390      3.8321
-------------------------------------------------------------------------------
    5 Si    x       3.4483     -0.0628      0.1221
            y       0.0673      3.2138      0.0026
            z       0.5667     -0.1064      3.7376
-------------------------------------------------------------------------------
    6 Si    x       3.4385      0.0544     -0.2793
            y      -0.0806      3.2680     -0.0529
            z      -0.3173      0.0350      3.8018
-------------------------------------------------------------------------------
    7 Si    x       3.4642      0.0769      0.2276
            y      -0.0522      3.2446     -0.0297
            z       0.4389      0.0876      3.7689
-------------------------------------------------------------------------------
    8 Si    x       3.6952     -0.0503     -0.1485
            y      -0.3084      3.4130     -0.0988
            z      -0.5795      0.0593      3.1227
-------------------------------------------------------------------------------
    9 Si    x       3.4276      0.1885      0.1261
            y      -0.1865      3.2393      0.0009
            z       0.5346      0.0717      3.0815
-------------------------------------------------------------------------------
   10 Si    x       3.7053      0.1595     -0.2505
            y       0.2718      3.4594      0.1065
            z      -0.4901     -0.1235      3.1811
-------------------------------------------------------------------------------
   11 Si    x       3.4722     -0.1435      0.2740
            y       0.1336      3.2400     -0.0024
            z       0.4171     -0.0373      3.1285
-------------------------------------------------------------------------------
   12 Si    x       3.2864      0.3462      0.0720
            y       0.2025      3.5409      0.1065
            z       0.1006     -0.0281      3.1184
-------------------------------------------------------------------------------
   13 Si    x       3.2042     -0.3133     -0.0885
            y      -0.1999      3.4634      0.1598
            z      -0.1263      0.0634      2.8082
-------------------------------------------------------------------------------
   14 Si    x       3.2762     -0.3472      0.0640
            y      -0.2225      3.5755     -0.0950
            z       0.1334      0.0249      3.1040
-------------------------------------------------------------------------------
   15 Si    x       3.1889      0.2528     -0.0310
            y       0.2683      3.4584     -0.1670
            z      -0.1327     -0.0957      2.8050
-------------------------------------------------------------------------------
   16 Si    x       3.2031      0.2573      0.0783
            y       0.2593      3.4419      0.2022
            z       0.1191      0.0474      2.7929
-------------------------------------------------------------------------------
   17 Si    x       3.3012     -0.2050     -0.0784
            y      -0.0680      3.7462      0.0960
            z      -0.1459      0.0185      2.8926
-------------------------------------------------------------------------------
   18 Si    x       3.5436     -0.2328     -0.0368
            y      -0.2102      3.5140     -0.2325
            z       0.0491     -0.0602      2.8749
-------------------------------------------------------------------------------
   19 Si    x       3.3667      0.2029     -0.1707
            y       0.1148      3.7157     -0.1104
            z      -0.2305      0.0023      2.8114
-------------------------------------------------------------------------------
   20 Si    x       3.5802      0.2375     -0.0248
            y       0.2309      3.5059      0.2021
            z       0.0958      0.0709      2.7970
-------------------------------------------------------------------------------
   21 Si    x       3.3878     -0.2280     -0.1331
            y      -0.0773      3.7180      0.0898
            z      -0.2276      0.0085      2.8192
-------------------------------------------------------------------------------
   22 Si    x       3.6329     -0.2573     -0.0014
            y      -0.2133      3.4957     -0.2357
            z       0.1026     -0.0501      2.7964
-------------------------------------------------------------------------------
   23 Si    x       3.3101      0.3766      0.1355
            y       0.1167      3.5340      0.1299
            z       0.1051     -0.0170      3.0404
-------------------------------------------------------------------------------
   24 Si    x       3.2002     -0.3766      0.1497
            y      -0.0733      3.4244     -0.1712
            z       0.1127     -0.0812      2.7380
-------------------------------------------------------------------------------
   25 O3    x      -2.0706     -0.9644      0.3159
            y      -1.0010     -2.4208      0.3095
            z       0.4050      0.2977     -1.5453
-------------------------------------------------------------------------------
   26 O2    x      -1.7405     -0.7489     -0.2899
            y      -0.7307     -1.9756     -0.3184
            z      -0.3582     -0.3068     -1.3392
-------------------------------------------------------------------------------
   27 O2    x      -1.7291      0.7401      0.3331
            y       0.7536     -1.9846     -0.3376
            z       0.3560     -0.3419     -1.3442
-------------------------------------------------------------------------------
   28 O2    x      -1.7395      0.7394     -0.3188
            y       0.7429     -1.9882      0.3393
            z      -0.3743      0.3341     -1.3426
-------------------------------------------------------------------------------
   29 O2    x      -1.6777     -0.7297      0.3415
            y      -0.7044     -2.0228      0.3765
            z       0.3626      0.3583     -1.3407
-------------------------------------------------------------------------------
   30 O2    x      -1.6687     -0.7280     -0.3197
            y      -0.6816     -1.9847     -0.3130
            z      -0.3549     -0.3153     -1.3563
-------------------------------------------------------------------------------
   31 O2    x      -1.7567      0.6915      0.3111
            y       0.7086     -1.8941     -0.3447
            z       0.3785     -0.2981     -1.3637
-------------------------------------------------------------------------------
   32 O2    x      -1.6501      0.7130     -0.2777
            y       0.6579     -1.9820      0.2881
            z      -0.3348      0.2851     -1.3597
-------------------------------------------------------------------------------
   33 O2    x      -1.6252     -0.0444      0.8058
            y      -0.0128     -1.0871      0.0261
            z       1.0042      0.0600     -2.7413
-------------------------------------------------------------------------------
   34 O2    x      -1.6938      0.0093     -0.8380
            y       0.0081     -1.0860      0.0125
            z      -1.0936      0.0163     -2.6743
-------------------------------------------------------------------------------
   35 O2    x      -1.6667     -0.0547     -0.7120
            y       0.0082     -1.1333     -0.0212
            z      -0.6926     -0.0291     -2.2679
-------------------------------------------------------------------------------
   36 O2    x      -1.7280     -0.0000      0.7367
            y       0.0125     -1.1097      0.0130
            z       0.7201      0.0056     -2.2143
-------------------------------------------------------------------------------
   37 O2    x      -1.7489      0.0036     -0.7104
            y      -0.0194     -1.1080      0.0085
            z      -0.7070      0.0102     -2.1960
-------------------------------------------------------------------------------
   38 O2    x      -1.7243     -0.0477      0.7275
            y      -0.0345     -1.1107      0.0317
            z       0.6976      0.0644     -2.2252
-------------------------------------------------------------------------------
   39 O2    x      -1.6944     -0.6703      0.3597
            y      -0.6180     -1.9440      0.3941
            z       0.4055      0.3526     -1.2728
-------------------------------------------------------------------------------
   40 O2    x      -1.6326     -0.6929     -0.2813
            y      -0.5766     -2.0582     -0.3053
            z      -0.3340     -0.3034     -1.2079
-------------------------------------------------------------------------------
   41 O2    x      -1.7504      0.6906      0.3936
            y       0.6534     -1.9386     -0.4291
            z       0.4114     -0.3679     -1.2840
-------------------------------------------------------------------------------
   42 O2    x      -1.6509      0.7009     -0.3564
            y       0.5860     -2.0291      0.3813
            z      -0.3507      0.3519     -1.2606
-------------------------------------------------------------------------------
   43 O3    x      -2.1301     -0.9859      0.3932
            y      -0.9518     -2.3539      0.3771
            z       0.3851      0.3509     -1.4511
-------------------------------------------------------------------------------
   44 O2    x      -1.7511     -0.7275     -0.3611
            y      -0.6666     -1.9336     -0.3779
            z      -0.3346     -0.3429     -1.2675
-------------------------------------------------------------------------------
   45 O3    x      -2.1478      0.9641      0.3101
            y       0.9377     -2.2900     -0.3474
            z       0.3430     -0.3233     -1.4382
-------------------------------------------------------------------------------
   46 O2    x      -1.7479      0.7113     -0.2870
            y       0.6755     -1.9209      0.3410
            z      -0.3253      0.3279     -1.2423
-------------------------------------------------------------------------------
   47 O2    x      -1.7517     -0.0050     -0.5464
            y       0.0182     -1.2434     -0.0292
            z      -0.2853     -0.0339     -1.7435
-------------------------------------------------------------------------------
   48 O2    x      -1.8100      0.0043      0.6141
            y       0.0154     -1.1767      0.0139
            z       0.3546      0.0101     -1.7071
-------------------------------------------------------------------------------
   49 O3    x      -1.3454     -0.0580      0.0715
            y      -0.0662     -3.1910      0.1328
            z       0.1026      0.1225     -1.1945
-------------------------------------------------------------------------------
   50 O2    x      -1.1862      0.0434     -0.0464
            y       0.0646     -2.5839      0.0416
            z      -0.0693      0.0169     -1.0659
-------------------------------------------------------------------------------
   51 O2    x      -1.1687     -0.0489      0.0477
            y      -0.0708     -2.5615     -0.0177
            z       0.0769     -0.0128     -1.0652
-------------------------------------------------------------------------------
   52 O2    x      -1.1834     -0.0359     -0.0448
            y      -0.0734     -2.5958      0.0010
            z      -0.0705      0.0278     -1.0523
-------------------------------------------------------------------------------
   53 O3    x      -3.0265     -0.1032      0.0685
            y      -0.0639     -1.3684      0.0985
            z       0.0805      0.0492     -1.2555
-------------------------------------------------------------------------------
   54 O2    x      -2.4502     -0.0142     -0.0485
            y       0.0077     -1.2427     -0.0596
            z      -0.0286     -0.0312     -1.0895
-------------------------------------------------------------------------------
   55 O2    x      -2.3989      0.0824     -0.0120
            y       0.0314     -1.2352     -0.0688
            z      -0.0248     -0.0361     -1.0824
-------------------------------------------------------------------------------
   56 O2    x      -2.3868      0.0890     -0.0393
            y       0.0480     -1.2583      0.0695
            z      -0.0298      0.0475     -1.0807
-------------------------------------------------------------------------------
   57 O3    x      -1.3298     -0.1611      0.0409
            y      -0.1060     -1.4728      0.0755
            z       0.0511      0.0183     -2.5966
-------------------------------------------------------------------------------
   58 O3    x      -1.3303     -0.1612      0.0750
            y      -0.1084     -1.4709      0.0207
            z       0.0482      0.0140     -2.6173
-------------------------------------------------------------------------------
   59 O2    x      -1.1721      0.1321     -0.0151
            y       0.0782     -1.2791      0.0053
            z       0.0073      0.0229     -2.0718
-------------------------------------------------------------------------------
   60 O3    x      -1.3193      0.1594      0.0701
            y       0.1033     -1.4747     -0.0547
            z       0.0311     -0.0562     -2.6076
-------------------------------------------------------------------------------
   61 O2    x      -1.1827     -0.1126     -0.0736
            y      -0.1014     -1.2884      0.0130
            z      -0.0775      0.0344     -2.0908
-------------------------------------------------------------------------------
   62 O2    x      -1.2044     -0.1298      0.0457
            y      -0.1123     -1.2738      0.0380
            z       0.0539      0.0279     -2.0679
-------------------------------------------------------------------------------
   63 O2    x      -1.2122      0.1154     -0.0670
            y       0.0871     -1.2917     -0.0571
            z      -0.0686     -0.0855     -2.0857
-------------------------------------------------------------------------------
   64 O2    x      -1.2058      0.1207     -0.0025
            y       0.0904     -1.2934     -0.0609
            z       0.0070     -0.0630     -2.0876
-------------------------------------------------------------------------------
   65 O3    x      -1.4145      0.0322      0.1012
            y      -0.0609     -3.1295     -0.1182
            z       0.1335     -0.0824     -1.1359
-------------------------------------------------------------------------------
   66 O2    x      -1.2385     -0.0853     -0.0796
            y      -0.1677     -2.4853     -0.0169
            z      -0.1051     -0.0238     -1.0341
-------------------------------------------------------------------------------
   67 O3    x      -1.4267     -0.0625      0.0969
            y      -0.0155     -3.1359      0.1677
            z       0.1297      0.1078     -1.1430
-------------------------------------------------------------------------------
   68 O2    x      -1.2546      0.0574     -0.0639
            y       0.1159     -2.5498      0.0121
            z      -0.0905      0.0129     -1.0182
-------------------------------------------------------------------------------
   69 O2    x      -2.4516      0.0616     -0.0156
            y       0.0253     -1.2281      0.0538
            z       0.0057      0.0228     -1.0672
-------------------------------------------------------------------------------
   70 O3    x      -3.0120      0.1608      0.0944
            y       0.1346     -1.3830     -0.0987
            z       0.1152     -0.0519     -1.2247
-------------------------------------------------------------------------------
   71 O2    x      -2.4758     -0.0151     -0.0701
            y      -0.0078     -1.2395     -0.0551
            z      -0.0434     -0.0201     -1.0676
-------------------------------------------------------------------------------
   72 O3    x      -3.0788     -0.0869      0.0961
            y      -0.0752     -1.3662      0.0977
            z       0.0998      0.0390     -1.2215
-------------------------------------------------------------------------------




  Elastic Constant Matrix: (Units=GPa)

-------------------------------------------------------------------------------
  Indices      1         2         3         4         5         6    
-------------------------------------------------------------------------------
       1     58.8729   38.6526   23.8683   -0.7269   -4.3596   -2.5725
       2     38.6526   93.2587   22.4622   -0.5111   -4.8885    0.7116
       3     23.8683   22.4622   29.5498   -1.1108   -0.4836    1.7552
       4     -0.7269   -0.5111   -1.1108   11.9514    0.8166    2.3564
       5     -4.3596   -4.8885   -0.4836    0.8166   23.5579   -6.4426
       6     -2.5725    0.7116    1.7552    2.3564   -6.4426   13.8101
-------------------------------------------------------------------------------


  Elastic Compliance Matrix: (Units=1/GPa)

-------------------------------------------------------------------------------
  Indices      1         2         3         4         5         6    
-------------------------------------------------------------------------------
       1    0.031392 -0.007893 -0.020122 -0.003331  0.007381  0.012823
       2   -0.007893  0.015326 -0.005205 -0.000220  0.001368 -0.000923
       3   -0.020122 -0.005205  0.055115  0.007300 -0.008177 -0.015545
       4   -0.003331 -0.000220  0.007300  0.088934 -0.009360 -0.021078
       5    0.007381  0.001368 -0.008177 -0.009360  0.051962  0.028182
       6    0.012823 -0.000923 -0.015545 -0.021078  0.028182  0.093566
-------------------------------------------------------------------------------

  Mechanical properties :

-------------------------------------------------------------------------------
  Convention :                    Reuss         Voigt         Hill
-------------------------------------------------------------------------------
  Bulk  Modulus (GPa)     =      28.25554      39.07195      33.66375
  Shear Modulus (GPa)     =      12.06178      16.31044      14.18611
-------------------------------------------------------------------------------
  Velocity S-wave (km/s)  =       2.48531       2.89006       2.69530
  Velocity P-wave (km/s)  =       4.76499       5.58078       5.18894
-------------------------------------------------------------------------------
  Compressibility (1/GPa) =    0.03539129
-------------------------------------------------------------------------------
  Stress axis :                     x             y             z
-------------------------------------------------------------------------------
  Youngs Moduli (GPa)     =      31.85551      65.25005      18.14394
-------------------------------------------------------------------------------
  Poissons Ratio (x)      =                     0.51505       0.36509
  Poissons Ratio (y)      =       0.25145                     0.09444
  Poissons Ratio (z)      =       0.64100       0.33963
-------------------------------------------------------------------------------


  Piezoelectric Strain Matrix: (Units=C/m**2)

-------------------------------------------------------------------------------
  Indices      1         2         3         4         5         6    
-------------------------------------------------------------------------------
       x    -0.11732  -0.24089  -0.31609   0.47465   0.20397  -0.37892
       y    -0.14639  -0.52704  -0.03637   0.06950   0.45435   0.12057
       z    -0.85335  -0.33398  -2.71769  -0.15676  -0.02459   0.45002
-------------------------------------------------------------------------------


  Piezoelectric Stress Matrix: (Units=10**-11 C/N)

-------------------------------------------------------------------------------
  Indices      1         2         3         4         5         6    
-------------------------------------------------------------------------------
       x    -0.03556  -0.05962  -0.61196   4.64269  -0.31335  -3.60794
       y     0.49644  -0.62375  -0.13974  -0.02747   2.48524   2.17954
       z     3.66448   1.53486 -13.88144  -4.01188   2.83381   7.63293
-------------------------------------------------------------------------------


  Static dielectric constant tensor : 

-------------------------------------------------------------------------------
              x         y         z
-------------------------------------------------------------------------------
       x     4.04035   0.04729  -0.04754
       y     0.04729   4.16772  -0.03235
       z    -0.04754  -0.03235   3.20649
--------------------------------------------------------------------------------

  High frequency dielectric constant tensor : 

-------------------------------------------------------------------------------
              x         y         z
-------------------------------------------------------------------------------
       x     1.67940   0.00025   0.00019
       y     0.00025   1.68561  -0.00083
       z     0.00019  -0.00083   1.62069
-------------------------------------------------------------------------------

  Static refractive indices : 

-------------------------------------------------------------------------------
    1 =    1.78966      2 =    2.00653      3 =    2.04585
-------------------------------------------------------------------------------

  High frequency refractive indices : 

-------------------------------------------------------------------------------
    1 =    1.27306      2 =    1.29591      3 =    1.29832
-------------------------------------------------------------------------------


  Time to end of optimisation =      14.0363 seconds


  Peak dynamic memory used =       5.01 MB 


  Timing analysis for GULP :

--------------------------------------------------------------------------------
  Task / Subroutine                                          Time (Seconds)
--------------------------------------------------------------------------------
  Calculation of reciprocal space energy and derivatives          0.8302
  Calculation of real space energy and derivatives                8.4944
  Calculation of three-body energy and derivatives                0.7972
  Calculation and manipulation of Hessian matrix                  4.7841
  Calculation of matrix inversion                                 0.0257
  Global summation overhead                                       0.0002
--------------------------------------------------------------------------------
  Total CPU time                                                 14.0364
--------------------------------------------------------------------------------


  Dump file written as c00257.vasp.grs
  CIF file written as c00257.vasp.cif


  Job Finished at 12:13.14  7th October    2025                               

