********************************************************************************
*                       GENERAL UTILITY LATTICE PROGRAM                        *
*                                 Julian Gale                                  *
*                       Curtin Institute for Computation                       *
*                    School of Molecular and Life Sciences                     *
*                    Curtin University, Western Australia                      *
********************************************************************************
* Version = 6.1.2 * Last modified =   3rd November 2022                        *
********************************************************************************
*  optimise     - perform optimisation run                                     *
*  conp         - constant pressure calculation                                *
*  property     - calculate properties for final geometry                      *
********************************************************************************

  Job Started  at 12:14.23  7th October    2025                               

  Number of CPUs =     1


  Total number of configurations input =      1

********************************************************************************
*  Input for Configuration =   1 : c00264.vasp                                 *
********************************************************************************

  Formula = Ge3Si21O48                                                  

  Number of irreducible atoms/shells =     120


  Total number atoms/shells =     120

  Dimensionality = 3               :  Bulk   



  Cartesian lattice vectors (Angstroms) :

       17.182800    0.000000    0.000000
        0.000000    7.513760    0.000000
        0.000000    0.000000   10.447700

  Cell parameters (Angstroms/Degrees):

  a =      17.1828    alpha =  90.0000
  b =       7.5138    beta  =  90.0000
  c =      10.4477    gamma =  90.0000

  Initial cell volume =        1348.875752 Angs**3

  Temperature of configuration =   0.00     K 

  Pressure of configuration =         0.000 GPa 

  Fractional coordinates of asymmetric unit :

--------------------------------------------------------------------------------
   No.  Atomic       x           y          z         Charge      Occupancy
        Label      (Frac)      (Frac)     (Frac)        (e)         (Frac)  
--------------------------------------------------------------------------------
      1 Ge    c    0.660660    0.294090    0.017440     4.00000    1.000000    
      2 Ge    c    0.839340 *  0.705910 *  0.017440 *   4.00000    1.000000    
      3 Ge    c    0.660660 *  0.705910 *  0.017440 *   4.00000    1.000000    
      4 Si    c    0.052090 *  0.000000 *  0.372270 *   4.00000    1.000000    
      5 Si    c    0.447910 *  0.000000 *  0.372270 *   4.00000    1.000000    
      6 Si    c    0.947910 *  0.000000 *  0.627730 *   4.00000    1.000000    
      7 Si    c    0.552090 *  0.000000 *  0.627730 *   4.00000    1.000000    
      8 Si    c    0.556730 *  0.000000 *  0.122130 *   4.00000    1.000000    
      9 Si    c    0.943270 *  0.000000 *  0.122130 *   4.00000    1.000000    
     10 Si    c    0.443270 *  0.000000 *  0.877870 *   4.00000    1.000000    
     11 Si    c    0.056730 *  0.000000 *  0.877870 *   4.00000    1.000000    
     12 Si    c    0.160190 *  0.293910 *  0.273440 *   4.00000    1.000000    
     13 Si    c    0.339810 *  0.706090 *  0.273440 *   4.00000    1.000000    
     14 Si    c    0.839810 *  0.293910 *  0.726560 *   4.00000    1.000000    
     15 Si    c    0.660190 *  0.706090 *  0.726560 *   4.00000    1.000000    
     16 Si    c    0.839810 *  0.706090 *  0.726560 *   4.00000    1.000000    
     17 Si    c    0.660190 *  0.293910 *  0.726560 *   4.00000    1.000000    
     18 Si    c    0.160190 *  0.706090 *  0.273440 *   4.00000    1.000000    
     19 Si    c    0.339810 *  0.293910 *  0.273440 *   4.00000    1.000000    
     20 Si    c    0.339340 *  0.294090 *  0.982560 *   4.00000    1.000000    
     21 Si    c    0.160660 *  0.705910 *  0.982560 *   4.00000    1.000000    
     22 Si    c    0.339340 *  0.705910 *  0.982560 *   4.00000    1.000000    
     23 Si    c    0.160660 *  0.294090 *  0.982560 *   4.00000    1.000000    
     24 Si    c    0.839340 *  0.294090 *  0.017440 *   4.00000    1.000000    
     25 O2    c    0.106570 *  0.174340 *  0.366200 *   0.87073    1.000000    
     26 O2    c    0.393430 *  0.825660 *  0.366200 *   0.87073    1.000000    
     27 O2    c    0.893430 *  0.174340 *  0.633800 *   0.87073    1.000000    
     28 O2    c    0.606570 *  0.825660 *  0.633800 *   0.87073    1.000000    
     29 O2    c    0.893430 *  0.825660 *  0.633800 *   0.87073    1.000000    
     30 O2    c    0.606570 *  0.174340 *  0.633800 *   0.87073    1.000000    
     31 O2    c    0.106570 *  0.825660 *  0.366200 *   0.87073    1.000000    
     32 O2    c    0.393430 *  0.174340 *  0.366200 *   0.87073    1.000000    
     33 O2    c    0.000000 *  0.000000 *  0.500000 *   0.87073    1.000000    
     34 O2    c    0.500000 *  0.000000 *  0.500000 *   0.87073    1.000000    
     35 O2    c    0.994520 *  0.000000 *  0.250840 *   0.87073    1.000000    
     36 O2    c    0.505480 *  0.000000 *  0.250840 *   0.87073    1.000000    
     37 O2    c    0.005480 *  0.000000 *  0.749160 *   0.87073    1.000000    
     38 O2    c    0.494520 *  0.000000 *  0.749160 *   0.87073    1.000000    
     39 O3    c    0.610230 *  0.175520 *  0.115390 *   1.33043    1.000000    
     40 O3    c    0.889770 *  0.824480 *  0.115390 *   1.33043    1.000000    
     41 O2    c    0.389770 *  0.175520 *  0.884610 *   0.87073    1.000000    
     42 O2    c    0.110230 *  0.824480 *  0.884610 *   0.87073    1.000000    
     43 O2    c    0.389770 *  0.824480 *  0.884610 *   0.87073    1.000000    
     44 O2    c    0.110230 *  0.175520 *  0.884610 *   0.87073    1.000000    
     45 O3    c    0.610230 *  0.824480 *  0.115390 *   1.33043    1.000000    
     46 O2    c    0.889770 *  0.175520 *  0.115390 *   0.87073    1.000000    
     47 O2    c    0.500000 *  0.000000 *  0.000000 *   0.87073    1.000000    
     48 O2    c    0.000000 *  0.000000 *  0.000000 *   0.87073    1.000000    
     49 O2    c    0.151750 *  0.500000 *  0.313330 *   0.87073    1.000000    
     50 O2    c    0.348250 *  0.500000 *  0.313330 *   0.87073    1.000000    
     51 O2    c    0.848250 *  0.500000 *  0.686670 *   0.87073    1.000000    
     52 O2    c    0.651750 *  0.500000 *  0.686670 *   0.87073    1.000000    
     53 O2    c    0.250000 *  0.234950 *  0.285720 *   0.87073    1.000000    
     54 O2    c    0.250000 *  0.765050 *  0.285720 *   0.87073    1.000000    
     55 O2    c    0.750000 *  0.234950 *  0.714280 *   0.87073    1.000000    
     56 O2    c    0.750000 *  0.765050 *  0.714280 *   0.87073    1.000000    
     57 O2    c    0.131410 *  0.268650 *  0.127790 *   0.87073    1.000000    
     58 O2    c    0.368590 *  0.731350 *  0.127790 *   0.87073    1.000000    
     59 O2    c    0.868590 *  0.268650 *  0.872210 *   0.87073    1.000000    
     60 O3    c    0.631410 *  0.731350 *  0.872210 *   1.33043    1.000000    
     61 O3    c    0.868590 *  0.731350 *  0.872210 *   1.33043    1.000000    
     62 O3    c    0.631410 *  0.268650 *  0.872210 *   1.33043    1.000000    
     63 O2    c    0.131410 *  0.731350 *  0.127790 *   0.87073    1.000000    
     64 O2    c    0.368590 *  0.268650 *  0.127790 *   0.87073    1.000000    
     65 O1    c    0.653920 *  0.500000 *  0.058200 *   1.73396    1.000000    
     66 O3    c    0.846080 *  0.500000 *  0.058200 *   1.33043    1.000000    
     67 O2    c    0.346080 *  0.500000 *  0.941800 *   0.87073    1.000000    
     68 O2    c    0.153920 *  0.500000 *  0.941800 *   0.87073    1.000000    
     69 O3    c    0.750000 *  0.231060 *  0.027050 *   1.33043    1.000000    
     70 O1    c    0.750000 *  0.768940 *  0.027050 *   1.73396    1.000000    
     71 O2    c    0.250000 *  0.231060 *  0.972950 *   0.87073    1.000000    
     72 O2    c    0.250000 *  0.768940 *  0.972950 *   0.87073    1.000000    
     73 O2    s    0.106570 *  0.174340 *  0.366200 *  -2.87073    1.000000    
     74 O2    s    0.393430 *  0.825660 *  0.366200 *  -2.87073    1.000000    
     75 O2    s    0.893430 *  0.174340 *  0.633800 *  -2.87073    1.000000    
     76 O2    s    0.606570 *  0.825660 *  0.633800 *  -2.87073    1.000000    
     77 O2    s    0.893430 *  0.825660 *  0.633800 *  -2.87073    1.000000    
     78 O2    s    0.606570 *  0.174340 *  0.633800 *  -2.87073    1.000000    
     79 O2    s    0.106570 *  0.825660 *  0.366200 *  -2.87073    1.000000    
     80 O2    s    0.393430 *  0.174340 *  0.366200 *  -2.87073    1.000000    
     81 O2    s    0.000000 *  0.000000 *  0.500000 *  -2.87073    1.000000    
     82 O2    s    0.500000 *  0.000000 *  0.500000 *  -2.87073    1.000000    
     83 O2    s    0.994520 *  0.000000 *  0.250840 *  -2.87073    1.000000    
     84 O2    s    0.505480 *  0.000000 *  0.250840 *  -2.87073    1.000000    
     85 O2    s    0.005480 *  0.000000 *  0.749160 *  -2.87073    1.000000    
     86 O2    s    0.494520 *  0.000000 *  0.749160 *  -2.87073    1.000000    
     87 O3    s    0.610230 *  0.175520 *  0.115390 *  -3.33043    1.000000    
     88 O3    s    0.889770 *  0.824480 *  0.115390 *  -3.33043    1.000000    
     89 O2    s    0.389770 *  0.175520 *  0.884610 *  -2.87073    1.000000    
     90 O2    s    0.110230 *  0.824480 *  0.884610 *  -2.87073    1.000000    
     91 O2    s    0.389770 *  0.824480 *  0.884610 *  -2.87073    1.000000    
     92 O2    s    0.110230 *  0.175520 *  0.884610 *  -2.87073    1.000000    
     93 O3    s    0.610230 *  0.824480 *  0.115390 *  -3.33043    1.000000    
     94 O2    s    0.889770 *  0.175520 *  0.115390 *  -2.87073    1.000000    
     95 O2    s    0.500000 *  0.000000 *  0.000000 *  -2.87073    1.000000    
     96 O2    s    0.000000 *  0.000000 *  0.000000 *  -2.87073    1.000000    
     97 O2    s    0.151750 *  0.500000 *  0.313330 *  -2.87073    1.000000    
     98 O2    s    0.348250 *  0.500000 *  0.313330 *  -2.87073    1.000000    
     99 O2    s    0.848250 *  0.500000 *  0.686670 *  -2.87073    1.000000    
    100 O2    s    0.651750 *  0.500000 *  0.686670 *  -2.87073    1.000000    
    101 O2    s    0.250000 *  0.234950 *  0.285720 *  -2.87073    1.000000    
    102 O2    s    0.250000 *  0.765050 *  0.285720 *  -2.87073    1.000000    
    103 O2    s    0.750000 *  0.234950 *  0.714280 *  -2.87073    1.000000    
    104 O2    s    0.750000 *  0.765050 *  0.714280 *  -2.87073    1.000000    
    105 O2    s    0.131410 *  0.268650 *  0.127790 *  -2.87073    1.000000    
    106 O2    s    0.368590 *  0.731350 *  0.127790 *  -2.87073    1.000000    
    107 O2    s    0.868590 *  0.268650 *  0.872210 *  -2.87073    1.000000    
    108 O3    s    0.631410 *  0.731350 *  0.872210 *  -3.33043    1.000000    
    109 O3    s    0.868590 *  0.731350 *  0.872210 *  -3.33043    1.000000    
    110 O3    s    0.631410 *  0.268650 *  0.872210 *  -3.33043    1.000000    
    111 O2    s    0.131410 *  0.731350 *  0.127790 *  -2.87073    1.000000    
    112 O2    s    0.368590 *  0.268650 *  0.127790 *  -2.87073    1.000000    
    113 O1    s    0.653920 *  0.500000 *  0.058200 *  -3.73396    1.000000    
    114 O3    s    0.846080 *  0.500000 *  0.058200 *  -3.33043    1.000000    
    115 O2    s    0.346080 *  0.500000 *  0.941800 *  -2.87073    1.000000    
    116 O2    s    0.153920 *  0.500000 *  0.941800 *  -2.87073    1.000000    
    117 O3    s    0.750000 *  0.231060 *  0.027050 *  -3.33043    1.000000    
    118 O1    s    0.750000 *  0.768940 *  0.027050 *  -3.73396    1.000000    
    119 O2    s    0.250000 *  0.231060 *  0.972950 *  -2.87073    1.000000    
    120 O2    s    0.250000 *  0.768940 *  0.972950 *  -2.87073    1.000000    
--------------------------------------------------------------------------------



********************************************************************************
*  General input information                                                   *
********************************************************************************

  Species output for all configurations : 

--------------------------------------------------------------------------------
  Species    Type    Atomic    Atomic    Charge       Radii (Angs)     Library
                     Number     Mass       (e)     Cova   Ionic  VDW   Symbol
--------------------------------------------------------------------------------
    Ge       Core       32      72.61   4.000000   1.170  0.000  1.750 Ge       
    Si       Core       14      28.09   4.000000   1.200  0.000  2.100 Si       
    O1       Core        8      16.00   1.733957   0.730  0.000  1.360 O1       
    O2       Core        8      16.00   0.870733   0.730  0.000  1.360 O2       
    O3       Core        8      16.00   1.330431   0.730  0.000  1.360 O3       
    O1       Shell       8       0.00  -3.733957   0.730  0.000  0.000 O1       
    O2       Shell       8       0.00  -2.870733   0.730  0.000  0.000 O2       
    O3       Shell       8       0.00  -3.330431   0.730  0.000  0.000 O3       
--------------------------------------------------------------------------------


  Lattice summation method               =    Ewald          (3-D)
                                         =    Parry          (2-D)
                                         =    Saunders et al (1-D)
  Accuracy factor for lattice sums       =   12.000


  Analytic derivatives to be used

  Time limit = Infinity

  Maximum range for interatomic potentials =    100000.000000 Angstroms

  General interatomic potentials :

--------------------------------------------------------------------------------
Atom  Types   Potential      Parameter       Value         Units   Cutoffs(Ang)
  1     2                                                            Min /  Max 
--------------------------------------------------------------------------------
Si   c O1   s Buckingham    Buckingham A     1315.2478    eV        0.000 16.000
                            Buckingham rho  0.31775900    Ang       
                            Buckingham C     10.141118    eV*Ang^6  
--------------------------------------------------------------------------------
Si   c O2   s Buckingham    Buckingham A     1315.2478    eV        0.000 16.000
                            Buckingham rho  0.31775900    Ang       
                            Buckingham C     10.141118    eV*Ang^6  
--------------------------------------------------------------------------------
Si   c O3   s Buckingham    Buckingham A     1315.2478    eV        0.000 16.000
                            Buckingham rho  0.31775900    Ang       
                            Buckingham C     10.141118    eV*Ang^6  
--------------------------------------------------------------------------------
Ge   c O1   s Buckingham    Buckingham A     1497.3996    eV        0.000 16.000
                            Buckingham rho  0.32564600    Ang       
                            Buckingham C     16.808599    eV*Ang^6  
--------------------------------------------------------------------------------
Ge   c O2   s Buckingham    Buckingham A     1497.3996    eV        0.000 16.000
                            Buckingham rho  0.32564600    Ang       
                            Buckingham C     16.808599    eV*Ang^6  
--------------------------------------------------------------------------------
Ge   c O3   s Buckingham    Buckingham A     1497.3996    eV        0.000 16.000
                            Buckingham rho  0.32564600    Ang       
                            Buckingham C     16.808599    eV*Ang^6  
--------------------------------------------------------------------------------
O1   s O1   s Buckingham    Buckingham A     22764.000    eV        0.000 16.000
                            Buckingham rho  0.14900000    Ang       
                            Buckingham C     10.937044    eV*Ang^6  
--------------------------------------------------------------------------------
O1   s O2   s Buckingham    Buckingham A     22764.000    eV        0.000 16.000
                            Buckingham rho  0.14900000    Ang       
                            Buckingham C     10.937044    eV*Ang^6  
--------------------------------------------------------------------------------
O1   s O3   s Buckingham    Buckingham A     22764.000    eV        0.000 16.000
                            Buckingham rho  0.14900000    Ang       
                            Buckingham C     10.937044    eV*Ang^6  
--------------------------------------------------------------------------------
O2   s O2   s Buckingham    Buckingham A     22764.000    eV        0.000 16.000
                            Buckingham rho  0.14900000    Ang       
                            Buckingham C     10.937044    eV*Ang^6  
--------------------------------------------------------------------------------
O2   s O3   s Buckingham    Buckingham A     22764.000    eV        0.000 16.000
                            Buckingham rho  0.14900000    Ang       
                            Buckingham C     10.937044    eV*Ang^6  
--------------------------------------------------------------------------------
O3   s O3   s Buckingham    Buckingham A     22764.000    eV        0.000 16.000
                            Buckingham rho  0.14900000    Ang       
                            Buckingham C     10.937044    eV*Ang^6  
--------------------------------------------------------------------------------
O1   c O1   s Spring (c-s)  Spring k 2       180.31577    eV*Ang^-2 0.000  0.800
                            Spring k 4       0.0000000    eV*Ang^-4 
--------------------------------------------------------------------------------
O2   c O2   s Spring (c-s)  Spring k 2       75.969800    eV*Ang^-2 0.000  0.800
                            Spring k 4       0.0000000    eV*Ang^-4 
--------------------------------------------------------------------------------
O3   c O3   s Spring (c-s)  Spring k 2       128.14270    eV*Ang^-2 0.000  0.800
                            Spring k 4       0.0000000    eV*Ang^-4 
--------------------------------------------------------------------------------

  General Three-body potentials :

--------------------------------------------------------------------------------
  Atoms       Potential      Parameter       Value         Units   Cutoffs(Ang)
  1 / 2 / 3                                                          Min /  Max 
--------------------------------------------------------------------------------
Si    core    Harmonic      Three-body cnst  1.2614000    eV*rad^-2 0.000  1.900
O1    shel                  Three-body angl  109.47000    degrees   0.000  1.900
O1    shel                  Three-body k4    0.0000000    eV*rad^-4 0.000  3.500
                            Three-body k3    0.0000000    eV*rad^-3 
--------------------------------------------------------------------------------
Si    core    Harmonic      Three-body cnst  1.2614000    eV*rad^-2 0.000  1.900
O1    shel                  Three-body angl  109.47000    degrees   0.000  1.900
õ(1   shel                  Three-body k4    0.0000000    eV*rad^-4 0.000  3.500
                            Three-body k3    0.0000000    eV*rad^-3 
--------------------------------------------------------------------------------
Si    core    Harmonic      Three-body cnst  1.2614000    eV*rad^-2 0.000  1.900
õ(1   shel                  Three-body angl  109.47000    degrees   0.000  1.900
õ(1   shel                  Three-body k4    0.0000000    eV*rad^-4 0.000  3.500
                            Three-body k3    0.0000000    eV*rad^-3 
--------------------------------------------------------------------------------
Si    core    Harmonic      Three-body cnst  1.2614000    eV*rad^-2 0.000  1.900
O1    shel                  Three-body angl  109.47000    degrees   0.000  1.900
O2    shel                  Three-body k4    0.0000000    eV*rad^-4 0.000  3.500
                            Three-body k3    0.0000000    eV*rad^-3 
--------------------------------------------------------------------------------
Si    core    Harmonic      Three-body cnst  1.2614000    eV*rad^-2 0.000  1.900
O1    shel                  Three-body angl  109.47000    degrees   0.000  1.900
õ(2   shel                  Three-body k4    0.0000000    eV*rad^-4 0.000  3.500
                            Three-body k3    0.0000000    eV*rad^-3 
--------------------------------------------------------------------------------
Si    core    Harmonic      Three-body cnst  1.2614000    eV*rad^-2 0.000  1.900
O2    shel                  Three-body angl  109.47000    degrees   0.000  1.900
õ(1   shel                  Three-body k4    0.0000000    eV*rad^-4 0.000  3.500
                            Three-body k3    0.0000000    eV*rad^-3 
--------------------------------------------------------------------------------
Si    core    Harmonic      Three-body cnst  1.2614000    eV*rad^-2 0.000  1.900
õ(1   shel                  Three-body angl  109.47000    degrees   0.000  1.900
õ(2   shel                  Three-body k4    0.0000000    eV*rad^-4 0.000  3.500
                            Three-body k3    0.0000000    eV*rad^-3 
--------------------------------------------------------------------------------
Si    core    Harmonic      Three-body cnst  1.2614000    eV*rad^-2 0.000  1.900
O2    shel                  Three-body angl  109.47000    degrees   0.000  1.900
O2    shel                  Three-body k4    0.0000000    eV*rad^-4 0.000  3.500
                            Three-body k3    0.0000000    eV*rad^-3 
--------------------------------------------------------------------------------
Si    core    Harmonic      Three-body cnst  1.2614000    eV*rad^-2 0.000  1.900
O2    shel                  Three-body angl  109.47000    degrees   0.000  1.900
õ(2   shel                  Three-body k4    0.0000000    eV*rad^-4 0.000  3.500
                            Three-body k3    0.0000000    eV*rad^-3 
--------------------------------------------------------------------------------
Si    core    Harmonic      Three-body cnst  1.2614000    eV*rad^-2 0.000  1.900
õ(2   shel                  Three-body angl  109.47000    degrees   0.000  1.900
õ(2   shel                  Three-body k4    0.0000000    eV*rad^-4 0.000  3.500
                            Three-body k3    0.0000000    eV*rad^-3 
--------------------------------------------------------------------------------

********************************************************************************
*  Output for configuration   1 : c00264.vasp                                  *
********************************************************************************


  Components of energy : 

--------------------------------------------------------------------------------
  Interatomic potentials     =         760.34465326 eV    
  Three-body potentials      =           0.01487359 eV    
  Monopole - monopole (real) =       -2676.00317478 eV    
  Monopole - monopole (recip)=       -1115.35404472 eV    
  Monopole - monopole (total)=       -3791.35721950 eV    
--------------------------------------------------------------------------------
  Total lattice energy       =       -3030.99769266 eV    
--------------------------------------------------------------------------------
  Total lattice energy       =         -292444.9443 kJ/(mole unit cells)
--------------------------------------------------------------------------------


  Number of variables =      363

  Maximum number of calculations  =          1000
  Maximum Hessian update interval =            10
  Maximum step size               =   0.100000000
  Maximum parameter tolerance     =   0.000010000
  Maximum function  tolerance     =   0.000010000
  Maximum gradient  tolerance     =   0.001000000
  Maximum gradient  component     =   0.010000000

  Symmetry not applied to optimisation

  Cell parameters to be optimised using strains

  Newton-Raphson optimiser to be used

  BFGS hessian update to be used

  Lower half triangular hessian to be used

  Minimiser to switch to RFO
  When gradient norm is less than     0.050000

  Dumpfile to be written after every cycle

  Start of bulk optimisation :

  Cycle:      0 Energy:     -3030.997693  Gnorm:      4.449016  CPU:    0.122
  ** Hessian calculated **
  Cycle:      1 Energy:     -3043.766177  Gnorm:      3.578670  CPU:    0.330
  ** Hessian calculated **
  Cycle:      2 Energy:     -3063.446998  Gnorm:      0.745981  CPU:    0.551
  ** Hessian calculated **
  Cycle:      3 Energy:     -3065.016146  Gnorm:      0.414635  CPU:    0.772
  Cycle:      4 Energy:     -3065.534843  Gnorm:      0.261521  CPU:    0.887
  Cycle:      5 Energy:     -3065.930245  Gnorm:      0.201915  CPU:    1.024
  Cycle:      6 Energy:     -3066.282872  Gnorm:      0.165969  CPU:    1.159
  Cycle:      7 Energy:     -3066.539053  Gnorm:      0.154539  CPU:    1.273
  Cycle:      8 Energy:     -3066.716828  Gnorm:      0.116764  CPU:    1.387
  Cycle:      9 Energy:     -3066.816921  Gnorm:      0.085797  CPU:    1.502
  Cycle:     10 Energy:     -3066.877059  Gnorm:      0.067911  CPU:    1.636
  Cycle:     11 Energy:     -3066.920065  Gnorm:      0.062280  CPU:    1.771
  Cycle:     12 Energy:     -3066.955087  Gnorm:      0.060642  CPU:    1.884
  ** Hessian calculated **
  Cycle:     13 Energy:     -3066.967978  Gnorm:      0.052537  CPU:    2.122
  Cycle:     14 Energy:     -3066.988267  Gnorm:      0.047812  CPU:    2.278
  ** Hessian has required structure
  Cycle:     15 Energy:     -3067.000339  Gnorm:      0.080090  CPU:    2.441
  ** Hessian has required structure
  Cycle:     16 Energy:     -3067.021713  Gnorm:      0.090318  CPU:    2.644
  ** Hessian has required structure
  Cycle:     17 Energy:     -3067.041206  Gnorm:      0.093074  CPU:    2.826
  ** Hessian has required structure
  Cycle:     18 Energy:     -3067.049012  Gnorm:      0.098164  CPU:    2.987
  ** Hessian has required structure
  Cycle:     19 Energy:     -3067.056713  Gnorm:      0.119747  CPU:    3.147
  ** Hessian has required structure
  Cycle:     20 Energy:     -3067.063514  Gnorm:      0.102533  CPU:    3.306
  ** Hessian has required structure
  Cycle:     21 Energy:     -3067.072027  Gnorm:      0.084690  CPU:    3.466
  ** Hessian has required structure
  Cycle:     22 Energy:     -3067.081190  Gnorm:      0.071107  CPU:    3.625
  ** Hessian has wrong structure
  ** Imaginary eigenvectors =   2
  Cycle:     23 Energy:     -3067.100547  Gnorm:      0.072483  CPU:    4.153
  ** Hessian has wrong structure
  ** Imaginary eigenvectors =   2
  ** Hessian has wrong structure
  ** Imaginary eigenvectors =   1
  Cycle:     24 Energy:     -3067.127234  Gnorm:      0.078379  CPU:    4.738
  ** Hessian has wrong structure
  ** Imaginary eigenvectors =   1
  ** Hessian has required structure
  Cycle:     25 Energy:     -3067.457139  Gnorm:      0.058234  CPU:    5.355
  ** Hessian has required structure
  Cycle:     26 Energy:     -3067.636028  Gnorm:      0.043266  CPU:    5.561
  ** Hessian has required structure
  Cycle:     27 Energy:     -3067.698867  Gnorm:      0.022753  CPU:    5.748
  ** Hessian has required structure
  Cycle:     28 Energy:     -3067.731241  Gnorm:      0.027405  CPU:    5.958
  ** Hessian has required structure
  Cycle:     29 Energy:     -3067.752090  Gnorm:      0.016238  CPU:    6.146
  ** Hessian has required structure
  Cycle:     30 Energy:     -3067.762991  Gnorm:      0.009721  CPU:    6.350
  ** Hessian has required structure
  Cycle:     31 Energy:     -3067.768770  Gnorm:      0.010549  CPU:    6.532
  ** Hessian has required structure
  Cycle:     32 Energy:     -3067.773445  Gnorm:      0.005980  CPU:    6.715
  ** Hessian has required structure
  Cycle:     33 Energy:     -3067.776330  Gnorm:      0.005852  CPU:    6.918
  ** Hessian has required structure
  Cycle:     34 Energy:     -3067.777925  Gnorm:      0.004386  CPU:    7.101
  ** Hessian has required structure
  Cycle:     35 Energy:     -3067.779480  Gnorm:      0.002315  CPU:    7.400
  ** Hessian has required structure
  Cycle:     36 Energy:     -3067.779824  Gnorm:      0.001410  CPU:    7.582
  ** Hessian has required structure
  Cycle:     37 Energy:     -3067.779937  Gnorm:      0.000846  CPU:    7.766
  ** Hessian has required structure
  Cycle:     38 Energy:     -3067.779980  Gnorm:      0.000515  CPU:    7.950
  ** Hessian has required structure
  Cycle:     39 Energy:     -3067.779996  Gnorm:      0.000307  CPU:    8.134
  ** Hessian has required structure
  Cycle:     40 Energy:     -3067.780002  Gnorm:      0.000187  CPU:    8.322
  ** Hessian has required structure
  Cycle:     41 Energy:     -3067.780004  Gnorm:      0.000129  CPU:    8.488
  ** Hessian has required structure


  **** Optimisation achieved ****


  Final energy =   -3067.78000478 eV      
  Final Gnorm  =       0.00009160

  Components of energy : 

--------------------------------------------------------------------------------
  Interatomic potentials     =         814.56725808 eV    
  Three-body potentials      =           0.25567128 eV    
  Monopole - monopole (real) =       -2202.23272529 eV    
  Monopole - monopole (recip)=       -1680.37020885 eV    
  Monopole - monopole (total)=       -3882.60293414 eV    
--------------------------------------------------------------------------------
  Total lattice energy       =       -3067.78000478 eV    
--------------------------------------------------------------------------------
  Total lattice energy       =         -295993.8751 kJ/(mole unit cells)
--------------------------------------------------------------------------------

  Final fractional coordinates of atoms :

--------------------------------------------------------------------------------
   No.  Atomic        x           y          z          Radius
        Label       (Frac)      (Frac)     (Frac)       (Angs) 
--------------------------------------------------------------------------------
     1  Ge    c     0.660660    0.294090    0.017440    0.000000
     2  Ge    c     0.819913    0.776077    0.023217    0.000000
     3  Ge    c     0.632610    0.710031    0.024423    0.000000
     4  Si    c     0.040819    0.057264    0.369096    0.000000
     5  Si    c     0.437503    0.052677    0.368365    0.000000
     6  Si    c     0.940371    0.064250    0.627584    0.000000
     7  Si    c     0.541256    0.042541    0.622231    0.000000
     8  Si    c     0.541459    0.021929    0.119045    0.000000
     9  Si    c     0.936945    0.059075    0.117324    0.000000
    10  Si    c     0.436971    0.056189    0.875095    0.000000
    11  Si    c     0.046796    0.043472    0.878046    0.000000
    12  Si    c     0.146158    0.359653    0.278931    0.000000
    13  Si    c     0.333305    0.749129    0.276512    0.000000
    14  Si    c     0.838616    0.374657    0.709416    0.000000
    15  Si    c     0.640747    0.732102    0.716555    0.000000
    16  Si    c     0.824380    0.774307    0.716408    0.000000
    17  Si    c     0.657172    0.330476    0.707835    0.000000
    18  Si    c     0.151820    0.764056    0.273022    0.000000
    19  Si    c     0.327592    0.344499    0.278512    0.000000
    20  Si    c     0.327485    0.342227    0.976869    0.000000
    21  Si    c     0.155554    0.757543    0.971113    0.000000
    22  Si    c     0.337433    0.744264    0.975504    0.000000
    23  Si    c     0.145424    0.356040    0.977615    0.000000
    24  Si    c     0.841946    0.365940    0.013977    0.000000
    25  O2    c     0.091434    0.237737    0.369168    0.000000
    26  O2    c     0.387856    0.871114    0.365176    0.000000
    27  O2    c     0.899016    0.254967    0.629323    0.000000
    28  O2    c     0.585579    0.856026    0.629191    0.000000
    29  O2    c     0.872273    0.915191    0.629084    0.000000
    30  O2    c     0.606626    0.197555    0.619594    0.000000
    31  O2    c     0.099250    0.892210    0.358861    0.000000
    32  O2    c     0.378325    0.217376    0.369315    0.000000
    33  O2    c     0.991675    0.043417    0.499758    0.000000
    34  O2    c     0.491953    0.053121    0.492158    0.000000
    35  O2    c     0.980618    0.057327    0.252293    0.000000
    36  O2    c     0.492708    0.073067    0.244039    0.000000
    37  O2    c     0.999092    0.041563    0.746592    0.000000
    38  O2    c     0.479557    0.066940    0.738044    0.000000
    39  O3    c     0.622272    0.130678    0.113523    0.000000
    40  O3    c     0.866948    0.919365    0.124997    0.000000
    41  O2    c     0.373268    0.211093    0.883447    0.000000
    42  O2    c     0.111236    0.888991    0.875138    0.000000
    43  O2    c     0.393991    0.866348    0.888793    0.000000
    44  O2    c     0.089912    0.232499    0.892174    0.000000
    45  O3    c     0.560779    0.817327    0.112668    0.000000
    46  O2    c     0.908347    0.257011    0.088706    0.000000
    47  O2    c     0.498733    0.089504    0.988516    0.000000
    48  O2    c     0.991392    0.996399    0.999022    0.000000
    49  O2    c     0.126099    0.563285    0.303664    0.000000
    50  O2    c     0.353173    0.545929    0.304756    0.000000
    51  O2    c     0.845210    0.578526    0.665157    0.000000
    52  O2    c     0.636005    0.530476    0.667544    0.000000
    53  O2    c     0.236207    0.320730    0.313803    0.000000
    54  O2    c     0.242950    0.789752    0.309315    0.000000
    55  O2    c     0.750295    0.302382    0.687087    0.000000
    56  O2    c     0.730621    0.802058    0.707776    0.000000
    57  O2    c     0.130394    0.311907    0.128889    0.000000
    58  O2    c     0.351199    0.793910    0.125866    0.000000
    59  O2    c     0.860869    0.365629    0.860223    0.000000
    60  O3    c     0.609757    0.738421    0.862048    0.000000
    61  O3    c     0.848949    0.804188    0.863711    0.000000
    62  O3    c     0.635334    0.290141    0.855606    0.000000
    63  O2    c     0.140558    0.808221    0.121125    0.000000
    64  O2    c     0.341053    0.294671    0.127936    0.000000
    65  O1    c     0.633390    0.497145    0.073020    0.000000
    66  O3    c     0.839021    0.560391    0.068146    0.000000
    67  O2    c     0.358587    0.540861    0.950499    0.000000
    68  O2    c     0.125012    0.558736    0.947028    0.000000
    69  O3    c     0.759957    0.265850    0.032479    0.000000
    70  O1    c     0.722381    0.808435    0.043023    0.000000
    71  O2    c     0.236044    0.323190    0.943079    0.000000
    72  O2    c     0.247428    0.775461    0.938475    0.000000
    73  O2    s     0.092134    0.232028    0.359097    0.000000
    74  O2    s     0.387094    0.877018    0.355618    0.000000
    75  O2    s     0.896804    0.247884    0.637806    0.000000
    76  O2    s     0.586785    0.862607    0.637777    0.000000
    77  O2    s     0.874315    0.915811    0.638387    0.000000
    78  O2    s     0.605144    0.195406    0.629401    0.000000
    79  O2    s     0.098896    0.895540    0.350257    0.000000
    80  O2    s     0.379032    0.213840    0.359194    0.000000
    81  O2    s     0.991468    0.047511    0.499312    0.000000
    82  O2    s     0.491212    0.051812    0.492599    0.000000
    83  O2    s     0.982500    0.057522    0.249911    0.000000
    84  O2    s     0.492146    0.064655    0.243473    0.000000
    85  O2    s     0.998055    0.044376    0.748663    0.000000
    86  O2    s     0.481505    0.062941    0.741123    0.000000
    87  O3    s     0.617511    0.133707    0.105897    0.000000
    88  O3    s     0.870165    0.921563    0.115641    0.000000
    89  O2    s     0.374955    0.209210    0.893129    0.000000
    90  O2    s     0.109341    0.890729    0.886154    0.000000
    91  O2    s     0.392203    0.872734    0.897108    0.000000
    92  O2    s     0.091561    0.226242    0.900313    0.000000
    93  O3    s     0.564405    0.829396    0.106474    0.000000
    94  O2    s     0.904229    0.247775    0.083619    0.000000
    95  O2    s     0.496365    0.078967    0.989473    0.000000
    96  O2    s     0.991640    0.008334    0.998373    0.000000
    97  O2    s     0.131049    0.562745    0.297678    0.000000
    98  O2    s     0.348256    0.546305    0.298857    0.000000
    99  O2    s     0.842331    0.577106    0.675074    0.000000
   100  O2    s     0.638767    0.530755    0.676838    0.000000
   101  O2    s     0.236422    0.327616    0.306138    0.000000
   102  O2    s     0.242906    0.782527    0.301821    0.000000
   103  O2    s     0.749826    0.313002    0.691608    0.000000
   104  O2    s     0.731085    0.791782    0.709595    0.000000
   105  O2    s     0.133629    0.321502    0.128677    0.000000
   106  O2    s     0.347920    0.784145    0.125891    0.000000
   107  O2    s     0.856473    0.366655    0.859898    0.000000
   108  O3    s     0.614711    0.735601    0.860000    0.000000
   109  O3    s     0.844137    0.798993    0.861737    0.000000
   110  O3    s     0.639600    0.294471    0.853780    0.000000
   111  O2    s     0.143333    0.798289    0.121463    0.000000
   112  O2    s     0.338214    0.304814    0.127865    0.000000
   113  O1    s     0.635387    0.499058    0.064843    0.000000
   114  O3    s     0.837825    0.557110    0.058959    0.000000
   115  O2    s     0.353048    0.541655    0.955989    0.000000
   116  O2    s     0.130451    0.558189    0.952893    0.000000
   117  O3    s     0.759988    0.278182    0.029328    0.000000
   118  O1    s     0.723276    0.798169    0.039961    0.000000
   119  O2    s     0.236172    0.328955    0.950617    0.000000
   120  O2    s     0.247301    0.769953    0.946199    0.000000
--------------------------------------------------------------------------------

  Final Cartesian lattice vectors (Angstroms) :

       17.051113   -0.083460    0.042076
       -0.036432    7.597845    0.018993
        0.025427    0.028199   10.313601


  Final cell parameters and derivatives :

--------------------------------------------------------------------------------
       a           17.051369 Angstrom     dE/de1(xx)     0.003940 eV/strain
       b            7.597956 Angstrom     dE/de2(yy)     0.002491 eV/strain
       c           10.313671 Angstrom     dE/de3(zz)     0.004610 eV/strain
       alpha       89.700797 Degrees      dE/de4(yz)    -0.000214 eV/strain
       beta        89.718130 Degrees      dE/de5(xz)    -0.000256 eV/strain
       gamma       90.554820 Degrees      dE/de6(xy)    -0.000409 eV/strain
--------------------------------------------------------------------------------

  Primitive cell volume =          1336.095909 Angs**3

  Density of cell =      1.958382 g/cm**3

  Non-primitive cell volume =          1336.095909 Angs**3


  Final internal derivatives :

--------------------------------------------------------------------------------
   No.  Atomic          a             b             c           Radius
        Label          (eV)          (eV)          (eV)        (eV/Angs)
--------------------------------------------------------------------------------
      1 Ge    c       0.000000      0.000000      0.000000      0.000000
      2 Ge    c      -0.000089      0.002291      0.000698      0.000000
      3 Ge    c       0.000239      0.001382      0.002401      0.000000
      4 Si    c       0.005032      0.000602     -0.001098      0.000000
      5 Si    c      -0.000430      0.000630      0.000296      0.000000
      6 Si    c      -0.001864      0.000257      0.001270      0.000000
      7 Si    c       0.000305     -0.000109      0.001459      0.000000
      8 Si    c       0.000542      0.000286     -0.000416      0.000000
      9 Si    c      -0.004544     -0.000479     -0.000758      0.000000
     10 Si    c       0.000102      0.000782      0.000550      0.000000
     11 Si    c       0.003110      0.000251      0.000384      0.000000
     12 Si    c       0.000172     -0.000364      0.001179      0.000000
     13 Si    c       0.000930     -0.000423      0.000425      0.000000
     14 Si    c       0.000678      0.000116      0.000029      0.000000
     15 Si    c      -0.001959      0.000113      0.001897      0.000000
     16 Si    c       0.000494     -0.000632      0.001121      0.000000
     17 Si    c      -0.000357      0.000634     -0.001497      0.000000
     18 Si    c      -0.000888      0.000447      0.001355      0.000000
     19 Si    c       0.000732     -0.000446      0.000788      0.000000
     20 Si    c       0.001438     -0.000105     -0.000841      0.000000
     21 Si    c      -0.003025      0.000721     -0.001672      0.000000
     22 Si    c       0.002137      0.000368     -0.000971      0.000000
     23 Si    c      -0.001712     -0.000160     -0.000819      0.000000
     24 Si    c      -0.002406      0.000731      0.000046      0.000000
     25 O2    c      -0.000321     -0.000112     -0.000171      0.000000
     26 O2    c      -0.000690     -0.000142     -0.000025      0.000000
     27 O2    c       0.000013      0.000048      0.000463      0.000000
     28 O2    c      -0.000647      0.000689      0.000099      0.000000
     29 O2    c      -0.000555     -0.000311     -0.000041      0.000000
     30 O2    c      -0.000269      0.000025      0.000236      0.000000
     31 O2    c       0.000966     -0.000580     -0.000224      0.000000
     32 O2    c      -0.000509      0.000114     -0.000107      0.000000
     33 O2    c      -0.001517     -0.000475      0.000765      0.000000
     34 O2    c      -0.002542     -0.000038     -0.002524      0.000000
     35 O2    c      -0.001183      0.000465     -0.000252      0.000000
     36 O2    c       0.002731     -0.000079     -0.004605      0.000000
     37 O2    c      -0.001083     -0.000220     -0.002439      0.000000
     38 O2    c       0.001718      0.000077     -0.001644      0.000000
     39 O3    c      -0.008549     -0.001349     -0.004922      0.000000
     40 O3    c      -0.002337     -0.001552     -0.003360      0.000000
     41 O2    c      -0.000223      0.000013      0.000536      0.000000
     42 O2    c       0.000984     -0.000298      0.000216      0.000000
     43 O2    c      -0.000777     -0.000658      0.001018      0.000000
     44 O2    c       0.000087      0.000118      0.000758      0.000000
     45 O3    c       0.003680      0.002196     -0.003075      0.000000
     46 O2    c       0.000786      0.001024     -0.000531      0.000000
     47 O2    c       0.004217     -0.001811      0.006962      0.000000
     48 O2    c       0.001308     -0.001592     -0.000870      0.000000
     49 O2    c      -0.001334     -0.000616      0.001356      0.000000
     50 O2    c       0.001031      0.001676      0.001254      0.000000
     51 O2    c       0.000003      0.000827      0.000203      0.000000
     52 O2    c       0.000296      0.000054     -0.000134      0.000000
     53 O2    c      -0.003525     -0.000749      0.000225      0.000000
     54 O2    c       0.001099      0.000900      0.000882      0.000000
     55 O2    c       0.001404      0.000039     -0.000599      0.000000
     56 O2    c       0.002089     -0.000368     -0.000490      0.000000
     57 O2    c      -0.001825     -0.000228     -0.000452      0.000000
     58 O2    c       0.002944      0.000471      0.000521      0.000000
     59 O2    c       0.000388      0.000699     -0.000225      0.000000
     60 O3    c       0.003337     -0.001377     -0.005882      0.000000
     61 O3    c      -0.002066     -0.000253      0.000187      0.000000
     62 O3    c      -0.001635     -0.000678      0.005548      0.000000
     63 O2    c      -0.003083      0.000516      0.000544      0.000000
     64 O2    c       0.002539     -0.000223     -0.000020      0.000000
     65 O1    c       0.000933      0.002222      0.000201      0.000000
     66 O3    c      -0.001791     -0.001067     -0.000012      0.000000
     67 O2    c       0.002021      0.000357     -0.001232      0.000000
     68 O2    c      -0.001921     -0.002049     -0.001504      0.000000
     69 O3    c       0.003193      0.001484      0.000415      0.000000
     70 O1    c      -0.002957     -0.002460      0.000149      0.000000
     71 O2    c      -0.000767     -0.001122     -0.000058      0.000000
     72 O2    c       0.004548      0.001179     -0.000638      0.000000
     73 O2    s       0.000850      0.000012      0.000763      0.000000
     74 O2    s       0.001144      0.000398      0.001242      0.000000
     75 O2    s       0.000323     -0.000160      0.000093      0.000000
     76 O2    s       0.000298     -0.000100      0.000284      0.000000
     77 O2    s      -0.000465      0.000237     -0.000259      0.000000
     78 O2    s      -0.000572     -0.000777     -0.001224      0.000000
     79 O2    s       0.000185      0.000469      0.000892      0.000000
     80 O2    s       0.001704     -0.000770      0.000920      0.000000
     81 O2    s      -0.000105      0.000234      0.000173      0.000000
     82 O2    s       0.001281     -0.000172      0.000831      0.000000
     83 O2    s       0.000156     -0.000064      0.000864      0.000000
     84 O2    s       0.003660     -0.000062     -0.000179      0.000000
     85 O2    s       0.000980      0.000373     -0.000184      0.000000
     86 O2    s      -0.000917     -0.000110      0.000282      0.000000
     87 O3    s      -0.003839     -0.002744      0.002460      0.000000
     88 O3    s       0.001828     -0.000067      0.003240      0.000000
     89 O2    s       0.001018     -0.000751     -0.000371      0.000000
     90 O2    s      -0.000371      0.000867     -0.000926      0.000000
     91 O2    s       0.001341      0.000863     -0.000906      0.000000
     92 O2    s      -0.000004     -0.000018     -0.000590      0.000000
     93 O3    s      -0.002445      0.003730     -0.000120      0.000000
     94 O2    s      -0.001292      0.001131      0.000206      0.000000
     95 O2    s       0.007425      0.000804     -0.001229      0.000000
     96 O2    s       0.001089     -0.000475     -0.000659      0.000000
     97 O2    s      -0.002509     -0.000148      0.002538      0.000000
     98 O2    s       0.002412      0.000105      0.002285      0.000000
     99 O2    s      -0.000010     -0.000171     -0.000771      0.000000
    100 O2    s      -0.001437      0.001513     -0.001204      0.000000
    101 O2    s      -0.000033     -0.001420      0.002054      0.000000
    102 O2    s       0.000938      0.001201      0.002029      0.000000
    103 O2    s       0.000846     -0.000430     -0.000552      0.000000
    104 O2    s      -0.002121     -0.000034      0.000304      0.000000
    105 O2    s      -0.003461     -0.001113      0.000238      0.000000
    106 O2    s       0.002089      0.000903     -0.000027      0.000000
    107 O2    s       0.000097     -0.000137      0.000573      0.000000
    108 O3    s       0.000055      0.000901      0.003310      0.000000
    109 O3    s       0.002528      0.001464     -0.000861      0.000000
    110 O3    s      -0.001773     -0.001563     -0.001881      0.000000
    111 O2    s      -0.006115      0.001943      0.000576      0.000000
    112 O2    s       0.004627     -0.001523     -0.000005      0.000000
    113 O1    s      -0.002513     -0.000739      0.001780      0.000000
    114 O3    s       0.003958      0.000230      0.001119      0.000000
    115 O2    s       0.001284      0.000292     -0.002659      0.000000
    116 O2    s      -0.002885     -0.000216     -0.002779      0.000000
    117 O3    s      -0.002864     -0.001787     -0.000758      0.000000
    118 O1    s      -0.000824      0.002230     -0.001352      0.000000
    119 O2    s      -0.000429     -0.001250     -0.002405      0.000000
    120 O2    s       0.000802      0.001505     -0.002568      0.000000
--------------------------------------------------------------------------------
  Maximum abs         0.008549      0.003730      0.006962      0.000000
--------------------------------------------------------------------------------


  Born effective charge tensors : 

-------------------------------------------------------------------------------
  Atom             x           y             z
-------------------------------------------------------------------------------
    1 Ge    x       4.0630      0.2727     -0.3481
            y       0.1115      4.1996     -0.1039
            z      -0.0791     -0.1530      3.4130
-------------------------------------------------------------------------------
    2 Ge    x       4.1466      0.2471      0.3222
            y       0.1705      4.2036      0.1905
            z       0.0253      0.1875      3.3803
-------------------------------------------------------------------------------
    3 Ge    x       4.1177     -0.0439     -0.2815
            y      -0.3858      4.2645      0.0657
            z      -0.1734      0.0591      3.3728
-------------------------------------------------------------------------------
    4 Si    x       3.4312      0.0299     -0.2426
            y      -0.0722      3.2433      0.0233
            z      -0.5173     -0.0593      3.7907
-------------------------------------------------------------------------------
    5 Si    x       3.4061      0.0393      0.2167
            y      -0.0900      3.2333      0.0284
            z       0.6097     -0.0236      3.7335
-------------------------------------------------------------------------------
    6 Si    x       3.5080     -0.1845     -0.1630
            y       0.1084      3.2157      0.0045
            z      -0.4692      0.0742      3.7980
-------------------------------------------------------------------------------
    7 Si    x       3.5164     -0.1220      0.2090
            y       0.0916      3.2000     -0.0227
            z       0.4369     -0.0032      3.7943
-------------------------------------------------------------------------------
    8 Si    x       3.7614     -0.2094     -0.2066
            y       0.3291      3.5601      0.0242
            z      -0.5452      0.1367      3.1795
-------------------------------------------------------------------------------
    9 Si    x       3.6668      0.0160      0.2198
            y       0.3720      3.3469     -0.0905
            z       0.4761      0.0331      3.1719
-------------------------------------------------------------------------------
   10 Si    x       3.4731      0.0930     -0.3008
            y      -0.1399      3.2713     -0.0059
            z      -0.5164     -0.0099      3.1393
-------------------------------------------------------------------------------
   11 Si    x       3.4823      0.1111      0.2500
            y      -0.1308      3.2664      0.0336
            z       0.5705     -0.0299      3.1224
-------------------------------------------------------------------------------
   12 Si    x       3.1676      0.2391     -0.0981
            y       0.2351      3.4277     -0.1880
            z      -0.0917     -0.0738      2.8189
-------------------------------------------------------------------------------
   13 Si    x       3.1770      0.2367      0.0888
            y       0.2353      3.4232      0.1797
            z       0.0927      0.0858      2.8271
-------------------------------------------------------------------------------
   14 Si    x       3.2530     -0.1659     -0.0871
            y      -0.3519      3.4376      0.1120
            z      -0.0438      0.1543      2.7824
-------------------------------------------------------------------------------
   15 Si    x       3.3769     -0.1978      0.0208
            y      -0.3618      3.5164     -0.0877
            z      -0.0898     -0.1354      3.1013
-------------------------------------------------------------------------------
   16 Si    x       3.3550      0.3108     -0.0972
            y       0.2436      3.5553     -0.0126
            z       0.0643     -0.0636      3.0864
-------------------------------------------------------------------------------
   17 Si    x       3.3724      0.2936      0.1025
            y       0.2638      3.5204      0.0152
            z      -0.0119      0.0217      3.0934
-------------------------------------------------------------------------------
   18 Si    x       3.1840     -0.2854     -0.1252
            y      -0.2097      3.4626      0.1719
            z      -0.1167      0.0832      2.8298
-------------------------------------------------------------------------------
   19 Si    x       3.1694     -0.2877      0.1427
            y      -0.2056      3.4654     -0.1940
            z       0.1092     -0.0693      2.8221
-------------------------------------------------------------------------------
   20 Si    x       3.2186     -0.2837     -0.1949
            y      -0.1257      3.4558      0.2058
            z      -0.1250      0.0798      2.7623
-------------------------------------------------------------------------------
   21 Si    x       3.2286     -0.3023      0.1988
            y      -0.1341      3.4450     -0.1987
            z       0.1141     -0.0642      2.7418
-------------------------------------------------------------------------------
   22 Si    x       3.2639      0.2685     -0.1387
            y       0.2541      3.4099     -0.1747
            z      -0.1509     -0.0578      2.7322
-------------------------------------------------------------------------------
   23 Si    x       3.2698      0.2695      0.1548
            y       0.2507      3.4190      0.1722
            z       0.1567      0.0754      2.7411
-------------------------------------------------------------------------------
   24 Si    x       3.6215      0.0965      0.2108
            y      -0.2015      3.8264      0.0418
            z       0.1432     -0.0692      2.8909
-------------------------------------------------------------------------------
   25 O2    x      -1.6410     -0.6949      0.3262
            y      -0.6687     -1.9663      0.3327
            z       0.3525      0.3231     -1.3725
-------------------------------------------------------------------------------
   26 O2    x      -1.6339     -0.6922     -0.3253
            y      -0.6629     -1.9701     -0.3573
            z      -0.3732     -0.3457     -1.3756
-------------------------------------------------------------------------------
   27 O2    x      -1.6773      0.7240      0.3067
            y       0.6785     -2.0316     -0.3007
            z       0.3425     -0.3242     -1.3295
-------------------------------------------------------------------------------
   28 O2    x      -1.6718      0.7125     -0.3172
            y       0.6787     -2.0349      0.3298
            z      -0.3343      0.3397     -1.3479
-------------------------------------------------------------------------------
   29 O2    x      -1.7788     -0.7037      0.2909
            y      -0.7550     -1.9473      0.3033
            z       0.3272      0.3184     -1.3344
-------------------------------------------------------------------------------
   30 O2    x      -1.7852     -0.7120     -0.3012
            y      -0.7508     -1.9240     -0.2874
            z      -0.3366     -0.3134     -1.3456
-------------------------------------------------------------------------------
   31 O2    x      -1.7128      0.7298      0.3571
            y       0.7414     -1.9810     -0.3824
            z       0.3816     -0.3464     -1.3657
-------------------------------------------------------------------------------
   32 O2    x      -1.6947      0.7144     -0.3290
            y       0.7313     -1.9620      0.3507
            z      -0.3632      0.3237     -1.3699
-------------------------------------------------------------------------------
   33 O2    x      -1.6589      0.0396      0.8435
            y       0.0020     -1.0858     -0.0185
            z       1.0919     -0.0434     -2.7523
-------------------------------------------------------------------------------
   34 O2    x      -1.6996      0.0342     -0.8572
            y       0.0032     -1.0777      0.0092
            z      -1.1244      0.0464     -2.7087
-------------------------------------------------------------------------------
   35 O2    x      -1.6815      0.0364     -0.7132
            y      -0.0106     -1.1080      0.0261
            z      -0.6600      0.0365     -2.2250
-------------------------------------------------------------------------------
   36 O2    x      -1.6447      0.0835      0.6577
            y       0.0218     -1.1398     -0.0797
            z       0.6143     -0.1082     -2.1564
-------------------------------------------------------------------------------
   37 O2    x      -1.7447      0.0444     -0.7647
            y       0.0260     -1.1124      0.0274
            z      -0.7770      0.0503     -2.2653
-------------------------------------------------------------------------------
   38 O2    x      -1.7198      0.0282      0.7433
            y       0.0270     -1.1128     -0.0205
            z       0.7463     -0.0362     -2.2798
-------------------------------------------------------------------------------
   39 O3    x      -2.3651     -0.8610      0.4122
            y      -0.8474     -2.0601      0.3950
            z       0.3770      0.3625     -1.4323
-------------------------------------------------------------------------------
   40 O3    x      -2.2188     -0.9482     -0.3881
            y      -0.9290     -2.2208     -0.3627
            z      -0.3692     -0.3766     -1.4418
-------------------------------------------------------------------------------
   41 O2    x      -1.7384      0.7111      0.3838
            y       0.6983     -1.9366     -0.3956
            z       0.3609     -0.3458     -1.2800
-------------------------------------------------------------------------------
   42 O2    x      -1.7377      0.7052     -0.3353
            y       0.6905     -1.9162      0.3506
            z      -0.3334      0.3210     -1.2747
-------------------------------------------------------------------------------
   43 O2    x      -1.6729     -0.6959      0.3604
            y      -0.6290     -2.0112      0.3781
            z       0.3768      0.3591     -1.2617
-------------------------------------------------------------------------------
   44 O2    x      -1.6692     -0.7049     -0.3600
            y      -0.6351     -2.0215     -0.3931
            z      -0.3864     -0.3725     -1.2576
-------------------------------------------------------------------------------
   45 O3    x      -1.8849      0.7500      0.3990
            y       0.6515     -2.4723     -0.3798
            z       0.4178     -0.3791     -1.3941
-------------------------------------------------------------------------------
   46 O2    x      -1.7143      0.6212     -0.3847
            y       0.5390     -1.9128      0.3658
            z      -0.3653      0.3483     -1.2575
-------------------------------------------------------------------------------
   47 O2    x      -1.7235      0.0261     -0.5334
            y      -0.0068     -1.2182      0.0753
            z      -0.2745      0.0642     -1.7613
-------------------------------------------------------------------------------
   48 O2    x      -1.7475      0.0514      0.5616
            y       0.0279     -1.2210     -0.0485
            z       0.2955     -0.0429     -1.7128
-------------------------------------------------------------------------------
   49 O2    x      -1.1546     -0.0230      0.0640
            y      -0.0385     -2.5560      0.0266
            z       0.0733      0.0064     -1.0641
-------------------------------------------------------------------------------
   50 O2    x      -1.1543     -0.0325     -0.0639
            y      -0.0414     -2.5556      0.0060
            z      -0.0718      0.0076     -1.0637
-------------------------------------------------------------------------------
   51 O2    x      -1.1678      0.0543      0.0708
            y       0.1314     -2.5467     -0.0089
            z       0.0478      0.0203     -1.1064
-------------------------------------------------------------------------------
   52 O2    x      -1.1906      0.0839     -0.0651
            y       0.1371     -2.5538     -0.0372
            z      -0.0445     -0.0354     -1.0921
-------------------------------------------------------------------------------
   53 O2    x      -2.3885      0.0581     -0.0045
            y       0.0220     -1.2418      0.0695
            z       0.0031      0.0415     -1.0618
-------------------------------------------------------------------------------
   54 O2    x      -2.3972      0.0575     -0.0156
            y       0.0228     -1.2455     -0.0657
            z      -0.0200     -0.0454     -1.0613
-------------------------------------------------------------------------------
   55 O2    x      -2.4730     -0.1300     -0.0459
            y      -0.0668     -1.2861     -0.0357
            z      -0.0199     -0.0554     -1.0343
-------------------------------------------------------------------------------
   56 O2    x      -2.5086     -0.1244      0.0035
            y      -0.0567     -1.3109      0.0135
            z      -0.0250      0.0396     -1.0190
-------------------------------------------------------------------------------
   57 O2    x      -1.1982     -0.1340     -0.0263
            y      -0.1233     -1.2782     -0.0173
            z      -0.0306     -0.0103     -2.0663
-------------------------------------------------------------------------------
   58 O2    x      -1.2115     -0.1385      0.0442
            y      -0.1301     -1.2792     -0.0057
            z       0.0491     -0.0199     -2.0631
-------------------------------------------------------------------------------
   59 O2    x      -1.2332      0.0662     -0.0830
            y       0.1187     -1.2547      0.0582
            z      -0.0885      0.0236     -2.1025
-------------------------------------------------------------------------------
   60 O3    x      -1.4282      0.1003      0.2378
            y       0.1568     -1.3764     -0.0225
            z       0.1984      0.0581     -2.6301
-------------------------------------------------------------------------------
   61 O3    x      -1.3867     -0.1477     -0.1659
            y      -0.1382     -1.4184     -0.0584
            z      -0.0777     -0.0544     -2.6073
-------------------------------------------------------------------------------
   62 O3    x      -1.4024     -0.1441      0.0942
            y      -0.1303     -1.4016      0.1593
            z       0.0486      0.1667     -2.6366
-------------------------------------------------------------------------------
   63 O2    x      -1.1765      0.1316     -0.0171
            y       0.1006     -1.2914     -0.0247
            z      -0.0039     -0.0128     -2.0747
-------------------------------------------------------------------------------
   64 O2    x      -1.1708      0.1294      0.0193
            y       0.0979     -1.2965      0.0068
            z       0.0110     -0.0097     -2.0758
-------------------------------------------------------------------------------
   65 O1    x      -1.4414      0.2024      0.1487
            y       0.3193     -3.2902     -0.0253
            z       0.1088     -0.0503     -1.3282
-------------------------------------------------------------------------------
   66 O3    x      -1.3044      0.1225     -0.1002
            y       0.2403     -3.1566     -0.1718
            z      -0.0521     -0.1285     -1.2571
-------------------------------------------------------------------------------
   67 O2    x      -1.2192     -0.0346      0.0864
            y      -0.0876     -2.5365     -0.0010
            z       0.0969      0.0065     -1.0203
-------------------------------------------------------------------------------
   68 O2    x      -1.2126     -0.0348     -0.0897
            y      -0.0853     -2.5286      0.0280
            z      -0.0954      0.0059     -1.0225
-------------------------------------------------------------------------------
   69 O3    x      -3.0435     -0.3487      0.0265
            y      -0.2724     -1.4900      0.0692
            z       0.0286      0.0895     -1.1496
-------------------------------------------------------------------------------
   70 O1    x      -3.2787     -0.2385      0.0189
            y      -0.1160     -1.5566     -0.0714
            z       0.0207     -0.0771     -1.2153
-------------------------------------------------------------------------------
   71 O2    x      -2.4391      0.0427      0.0004
            y       0.0329     -1.2399     -0.0654
            z      -0.0056     -0.0376     -1.0352
-------------------------------------------------------------------------------
   72 O2    x      -2.4323      0.0414     -0.0241
            y       0.0279     -1.2336      0.0660
            z      -0.0063      0.0332     -1.0353
-------------------------------------------------------------------------------




  Elastic Constant Matrix: (Units=GPa)

-------------------------------------------------------------------------------
  Indices      1         2         3         4         5         6    
-------------------------------------------------------------------------------
       1     63.7890   40.2406   37.3254    0.4529    2.8402   -3.0942
       2     40.2406   85.2098   28.5035    0.9716    2.2409    0.7950
       3     37.3254   28.5035   60.4598    0.3025    4.0537   -0.2619
       4      0.4529    0.9716    0.3025   13.2447   -1.2456   -0.4402
       5      2.8402    2.2409    4.0537   -1.2456   26.3631    0.5165
       6     -3.0942    0.7950   -0.2619   -0.4402    0.5165   26.1638
-------------------------------------------------------------------------------


  Elastic Compliance Matrix: (Units=1/GPa)

-------------------------------------------------------------------------------
  Indices      1         2         3         4         5         6    
-------------------------------------------------------------------------------
       1    0.030119 -0.009549 -0.014054  0.000083 -0.000341  0.003720
       2   -0.009549  0.016979 -0.002105 -0.000936 -0.000102 -0.001680
       3   -0.014054 -0.002105  0.026361 -0.000231 -0.002346 -0.001292
       4    0.000083 -0.000936 -0.000231  0.075960  0.003671  0.001241
       5   -0.000341 -0.000102 -0.002346  0.003671  0.038526 -0.000759
       6    0.003720 -0.001680 -0.001292  0.001241 -0.000759  0.038735
-------------------------------------------------------------------------------

  Mechanical properties :

-------------------------------------------------------------------------------
  Convention :                    Reuss         Voigt         Hill
-------------------------------------------------------------------------------
  Bulk  Modulus (GPa)     =      45.36566      46.84417      46.10491
  Shear Modulus (GPa)     =      17.51659      20.04691      18.78175
-------------------------------------------------------------------------------
  Velocity S-wave (km/s)  =       2.99072       3.19945       3.09684
  Velocity P-wave (km/s)  =       5.92375       6.12931       6.02740
-------------------------------------------------------------------------------
  Compressibility (1/GPa) =    0.02204311
-------------------------------------------------------------------------------
  Stress axis :                     x             y             z
-------------------------------------------------------------------------------
  Youngs Moduli (GPa)     =      33.20130      58.89759      37.93440
-------------------------------------------------------------------------------
  Poissons Ratio (x)      =                     0.56244       0.53312
  Poissons Ratio (y)      =       0.31706                     0.07984
  Poissons Ratio (z)      =       0.46660       0.12397
-------------------------------------------------------------------------------


  Piezoelectric Strain Matrix: (Units=C/m**2)

-------------------------------------------------------------------------------
  Indices      1         2         3         4         5         6    
-------------------------------------------------------------------------------
       x     0.20945   0.07126  -0.00131  -0.33381  -0.19105   0.20024
       y     0.35909  -0.08797   0.69156   0.19645  -0.48427   0.18577
       z    -0.11257  -0.39293  -0.52567  -0.03281  -0.14430  -0.18989
-------------------------------------------------------------------------------


  Piezoelectric Stress Matrix: (Units=10**-11 C/N)

-------------------------------------------------------------------------------
  Indices      1         2         3         4         5         6    
-------------------------------------------------------------------------------
       x     0.64286  -0.07919  -0.28615  -2.58581  -0.88137   0.81479
       y     0.28092  -0.68249   1.42198   1.33280  -1.98131   0.83977
       z     0.70895  -0.41255  -1.08569  -0.27777  -0.42238  -0.63661
-------------------------------------------------------------------------------


  Static dielectric constant tensor : 

-------------------------------------------------------------------------------
              x         y         z
-------------------------------------------------------------------------------
       x     3.90993   0.07165   0.02886
       y     0.07165   4.17192   0.03919
       z     0.02886   0.03919   3.26611
--------------------------------------------------------------------------------

  High frequency dielectric constant tensor : 

-------------------------------------------------------------------------------
              x         y         z
-------------------------------------------------------------------------------
       x     1.68199  -0.00067   0.00083
       y    -0.00067   1.68727   0.00030
       z     0.00083   0.00030   1.62359
-------------------------------------------------------------------------------

  Static refractive indices : 

-------------------------------------------------------------------------------
    1 =    1.80648      2 =    1.97285      3 =    2.04754
-------------------------------------------------------------------------------

  High frequency refractive indices : 

-------------------------------------------------------------------------------
    1 =    1.27420      2 =    1.29689      3 =    1.29898
-------------------------------------------------------------------------------


  Time to end of optimisation =       8.8585 seconds


  Peak dynamic memory used =       5.01 MB 


  Timing analysis for GULP :

--------------------------------------------------------------------------------
  Task / Subroutine                                          Time (Seconds)
--------------------------------------------------------------------------------
  Calculation of reciprocal space energy and derivatives          0.5459
  Calculation of real space energy and derivatives                5.6108
  Calculation of three-body energy and derivatives                0.5865
  Calculation and manipulation of Hessian matrix                  2.4761
  Calculation of matrix inversion                                 0.0328
  Global summation overhead                                       0.0001
--------------------------------------------------------------------------------
  Total CPU time                                                  8.8585
--------------------------------------------------------------------------------


  Dump file written as c00264.vasp.grs
  CIF file written as c00264.vasp.cif


  Job Finished at 12:14.32  7th October    2025                               

