********************************************************************************
*                       GENERAL UTILITY LATTICE PROGRAM                        *
*                                 Julian Gale                                  *
*                       Curtin Institute for Computation                       *
*                    School of Molecular and Life Sciences                     *
*                    Curtin University, Western Australia                      *
********************************************************************************
* Version = 6.1.2 * Last modified =   3rd November 2022                        *
********************************************************************************
*  optimise     - perform optimisation run                                     *
*  conp         - constant pressure calculation                                *
*  property     - calculate properties for final geometry                      *
********************************************************************************

  Job Started  at 12:11.08  7th October    2025                               

  Number of CPUs =     1


  Total number of configurations input =      1

********************************************************************************
*  Input for Configuration =   1 : c00246.vasp                                 *
********************************************************************************

  Formula = Ge3Si21O48                                                  

  Number of irreducible atoms/shells =     120


  Total number atoms/shells =     120

  Dimensionality = 3               :  Bulk   



  Cartesian lattice vectors (Angstroms) :

       17.182800    0.000000    0.000000
        0.000000    7.513760    0.000000
        0.000000    0.000000   10.447700

  Cell parameters (Angstroms/Degrees):

  a =      17.1828    alpha =  90.0000
  b =       7.5138    beta  =  90.0000
  c =      10.4477    gamma =  90.0000

  Initial cell volume =        1348.875752 Angs**3

  Temperature of configuration =   0.00     K 

  Pressure of configuration =         0.000 GPa 

  Fractional coordinates of asymmetric unit :

--------------------------------------------------------------------------------
   No.  Atomic       x           y          z         Charge      Occupancy
        Label      (Frac)      (Frac)     (Frac)        (e)         (Frac)  
--------------------------------------------------------------------------------
      1 Ge    c    0.160190    0.293910    0.273440     4.00000    1.000000    
      2 Ge    c    0.839340 *  0.705910 *  0.017440 *   4.00000    1.000000    
      3 Ge    c    0.839340 *  0.294090 *  0.017440 *   4.00000    1.000000    
      4 Si    c    0.052090 *  0.000000 *  0.372270 *   4.00000    1.000000    
      5 Si    c    0.447910 *  0.000000 *  0.372270 *   4.00000    1.000000    
      6 Si    c    0.947910 *  0.000000 *  0.627730 *   4.00000    1.000000    
      7 Si    c    0.552090 *  0.000000 *  0.627730 *   4.00000    1.000000    
      8 Si    c    0.556730 *  0.000000 *  0.122130 *   4.00000    1.000000    
      9 Si    c    0.943270 *  0.000000 *  0.122130 *   4.00000    1.000000    
     10 Si    c    0.443270 *  0.000000 *  0.877870 *   4.00000    1.000000    
     11 Si    c    0.056730 *  0.000000 *  0.877870 *   4.00000    1.000000    
     12 Si    c    0.339810 *  0.706090 *  0.273440 *   4.00000    1.000000    
     13 Si    c    0.839810 *  0.293910 *  0.726560 *   4.00000    1.000000    
     14 Si    c    0.660190 *  0.706090 *  0.726560 *   4.00000    1.000000    
     15 Si    c    0.839810 *  0.706090 *  0.726560 *   4.00000    1.000000    
     16 Si    c    0.660190 *  0.293910 *  0.726560 *   4.00000    1.000000    
     17 Si    c    0.160190 *  0.706090 *  0.273440 *   4.00000    1.000000    
     18 Si    c    0.339810 *  0.293910 *  0.273440 *   4.00000    1.000000    
     19 Si    c    0.660660 *  0.294090 *  0.017440 *   4.00000    1.000000    
     20 Si    c    0.339340 *  0.294090 *  0.982560 *   4.00000    1.000000    
     21 Si    c    0.160660 *  0.705910 *  0.982560 *   4.00000    1.000000    
     22 Si    c    0.339340 *  0.705910 *  0.982560 *   4.00000    1.000000    
     23 Si    c    0.160660 *  0.294090 *  0.982560 *   4.00000    1.000000    
     24 Si    c    0.660660 *  0.705910 *  0.017440 *   4.00000    1.000000    
     25 O3    c    0.106570 *  0.174340 *  0.366200 *   1.33043    1.000000    
     26 O2    c    0.393430 *  0.825660 *  0.366200 *   0.87073    1.000000    
     27 O2    c    0.893430 *  0.174340 *  0.633800 *   0.87073    1.000000    
     28 O2    c    0.606570 *  0.825660 *  0.633800 *   0.87073    1.000000    
     29 O2    c    0.893430 *  0.825660 *  0.633800 *   0.87073    1.000000    
     30 O2    c    0.606570 *  0.174340 *  0.633800 *   0.87073    1.000000    
     31 O2    c    0.106570 *  0.825660 *  0.366200 *   0.87073    1.000000    
     32 O2    c    0.393430 *  0.174340 *  0.366200 *   0.87073    1.000000    
     33 O2    c    0.000000 *  0.000000 *  0.500000 *   0.87073    1.000000    
     34 O2    c    0.500000 *  0.000000 *  0.500000 *   0.87073    1.000000    
     35 O2    c    0.994520 *  0.000000 *  0.250840 *   0.87073    1.000000    
     36 O2    c    0.505480 *  0.000000 *  0.250840 *   0.87073    1.000000    
     37 O2    c    0.005480 *  0.000000 *  0.749160 *   0.87073    1.000000    
     38 O2    c    0.494520 *  0.000000 *  0.749160 *   0.87073    1.000000    
     39 O2    c    0.610230 *  0.175520 *  0.115390 *   0.87073    1.000000    
     40 O3    c    0.889770 *  0.824480 *  0.115390 *   1.33043    1.000000    
     41 O2    c    0.389770 *  0.175520 *  0.884610 *   0.87073    1.000000    
     42 O2    c    0.110230 *  0.824480 *  0.884610 *   0.87073    1.000000    
     43 O2    c    0.389770 *  0.824480 *  0.884610 *   0.87073    1.000000    
     44 O2    c    0.110230 *  0.175520 *  0.884610 *   0.87073    1.000000    
     45 O2    c    0.610230 *  0.824480 *  0.115390 *   0.87073    1.000000    
     46 O3    c    0.889770 *  0.175520 *  0.115390 *   1.33043    1.000000    
     47 O2    c    0.500000 *  0.000000 *  0.000000 *   0.87073    1.000000    
     48 O2    c    0.000000 *  0.000000 *  0.000000 *   0.87073    1.000000    
     49 O3    c    0.151750 *  0.500000 *  0.313330 *   1.33043    1.000000    
     50 O2    c    0.348250 *  0.500000 *  0.313330 *   0.87073    1.000000    
     51 O2    c    0.848250 *  0.500000 *  0.686670 *   0.87073    1.000000    
     52 O2    c    0.651750 *  0.500000 *  0.686670 *   0.87073    1.000000    
     53 O3    c    0.250000 *  0.234950 *  0.285720 *   1.33043    1.000000    
     54 O2    c    0.250000 *  0.765050 *  0.285720 *   0.87073    1.000000    
     55 O2    c    0.750000 *  0.234950 *  0.714280 *   0.87073    1.000000    
     56 O2    c    0.750000 *  0.765050 *  0.714280 *   0.87073    1.000000    
     57 O3    c    0.131410 *  0.268650 *  0.127790 *   1.33043    1.000000    
     58 O2    c    0.368590 *  0.731350 *  0.127790 *   0.87073    1.000000    
     59 O3    c    0.868590 *  0.268650 *  0.872210 *   1.33043    1.000000    
     60 O2    c    0.631410 *  0.731350 *  0.872210 *   0.87073    1.000000    
     61 O3    c    0.868590 *  0.731350 *  0.872210 *   1.33043    1.000000    
     62 O2    c    0.631410 *  0.268650 *  0.872210 *   0.87073    1.000000    
     63 O2    c    0.131410 *  0.731350 *  0.127790 *   0.87073    1.000000    
     64 O2    c    0.368590 *  0.268650 *  0.127790 *   0.87073    1.000000    
     65 O2    c    0.653920 *  0.500000 *  0.058200 *   0.87073    1.000000    
     66 O1    c    0.846080 *  0.500000 *  0.058200 *   1.73396    1.000000    
     67 O2    c    0.346080 *  0.500000 *  0.941800 *   0.87073    1.000000    
     68 O2    c    0.153920 *  0.500000 *  0.941800 *   0.87073    1.000000    
     69 O3    c    0.750000 *  0.231060 *  0.027050 *   1.33043    1.000000    
     70 O3    c    0.750000 *  0.768940 *  0.027050 *   1.33043    1.000000    
     71 O2    c    0.250000 *  0.231060 *  0.972950 *   0.87073    1.000000    
     72 O2    c    0.250000 *  0.768940 *  0.972950 *   0.87073    1.000000    
     73 O3    s    0.106570 *  0.174340 *  0.366200 *  -3.33043    1.000000    
     74 O2    s    0.393430 *  0.825660 *  0.366200 *  -2.87073    1.000000    
     75 O2    s    0.893430 *  0.174340 *  0.633800 *  -2.87073    1.000000    
     76 O2    s    0.606570 *  0.825660 *  0.633800 *  -2.87073    1.000000    
     77 O2    s    0.893430 *  0.825660 *  0.633800 *  -2.87073    1.000000    
     78 O2    s    0.606570 *  0.174340 *  0.633800 *  -2.87073    1.000000    
     79 O2    s    0.106570 *  0.825660 *  0.366200 *  -2.87073    1.000000    
     80 O2    s    0.393430 *  0.174340 *  0.366200 *  -2.87073    1.000000    
     81 O2    s    0.000000 *  0.000000 *  0.500000 *  -2.87073    1.000000    
     82 O2    s    0.500000 *  0.000000 *  0.500000 *  -2.87073    1.000000    
     83 O2    s    0.994520 *  0.000000 *  0.250840 *  -2.87073    1.000000    
     84 O2    s    0.505480 *  0.000000 *  0.250840 *  -2.87073    1.000000    
     85 O2    s    0.005480 *  0.000000 *  0.749160 *  -2.87073    1.000000    
     86 O2    s    0.494520 *  0.000000 *  0.749160 *  -2.87073    1.000000    
     87 O2    s    0.610230 *  0.175520 *  0.115390 *  -2.87073    1.000000    
     88 O3    s    0.889770 *  0.824480 *  0.115390 *  -3.33043    1.000000    
     89 O2    s    0.389770 *  0.175520 *  0.884610 *  -2.87073    1.000000    
     90 O2    s    0.110230 *  0.824480 *  0.884610 *  -2.87073    1.000000    
     91 O2    s    0.389770 *  0.824480 *  0.884610 *  -2.87073    1.000000    
     92 O2    s    0.110230 *  0.175520 *  0.884610 *  -2.87073    1.000000    
     93 O2    s    0.610230 *  0.824480 *  0.115390 *  -2.87073    1.000000    
     94 O3    s    0.889770 *  0.175520 *  0.115390 *  -3.33043    1.000000    
     95 O2    s    0.500000 *  0.000000 *  0.000000 *  -2.87073    1.000000    
     96 O2    s    0.000000 *  0.000000 *  0.000000 *  -2.87073    1.000000    
     97 O3    s    0.151750 *  0.500000 *  0.313330 *  -3.33043    1.000000    
     98 O2    s    0.348250 *  0.500000 *  0.313330 *  -2.87073    1.000000    
     99 O2    s    0.848250 *  0.500000 *  0.686670 *  -2.87073    1.000000    
    100 O2    s    0.651750 *  0.500000 *  0.686670 *  -2.87073    1.000000    
    101 O3    s    0.250000 *  0.234950 *  0.285720 *  -3.33043    1.000000    
    102 O2    s    0.250000 *  0.765050 *  0.285720 *  -2.87073    1.000000    
    103 O2    s    0.750000 *  0.234950 *  0.714280 *  -2.87073    1.000000    
    104 O2    s    0.750000 *  0.765050 *  0.714280 *  -2.87073    1.000000    
    105 O3    s    0.131410 *  0.268650 *  0.127790 *  -3.33043    1.000000    
    106 O2    s    0.368590 *  0.731350 *  0.127790 *  -2.87073    1.000000    
    107 O3    s    0.868590 *  0.268650 *  0.872210 *  -3.33043    1.000000    
    108 O2    s    0.631410 *  0.731350 *  0.872210 *  -2.87073    1.000000    
    109 O3    s    0.868590 *  0.731350 *  0.872210 *  -3.33043    1.000000    
    110 O2    s    0.631410 *  0.268650 *  0.872210 *  -2.87073    1.000000    
    111 O2    s    0.131410 *  0.731350 *  0.127790 *  -2.87073    1.000000    
    112 O2    s    0.368590 *  0.268650 *  0.127790 *  -2.87073    1.000000    
    113 O2    s    0.653920 *  0.500000 *  0.058200 *  -2.87073    1.000000    
    114 O1    s    0.846080 *  0.500000 *  0.058200 *  -3.73396    1.000000    
    115 O2    s    0.346080 *  0.500000 *  0.941800 *  -2.87073    1.000000    
    116 O2    s    0.153920 *  0.500000 *  0.941800 *  -2.87073    1.000000    
    117 O3    s    0.750000 *  0.231060 *  0.027050 *  -3.33043    1.000000    
    118 O3    s    0.750000 *  0.768940 *  0.027050 *  -3.33043    1.000000    
    119 O2    s    0.250000 *  0.231060 *  0.972950 *  -2.87073    1.000000    
    120 O2    s    0.250000 *  0.768940 *  0.972950 *  -2.87073    1.000000    
--------------------------------------------------------------------------------



********************************************************************************
*  General input information                                                   *
********************************************************************************

  Species output for all configurations : 

--------------------------------------------------------------------------------
  Species    Type    Atomic    Atomic    Charge       Radii (Angs)     Library
                     Number     Mass       (e)     Cova   Ionic  VDW   Symbol
--------------------------------------------------------------------------------
    Ge       Core       32      72.61   4.000000   1.170  0.000  1.750 Ge       
    Si       Core       14      28.09   4.000000   1.200  0.000  2.100 Si       
    O1       Core        8      16.00   1.733957   0.730  0.000  1.360 O1       
    O2       Core        8      16.00   0.870733   0.730  0.000  1.360 O2       
    O3       Core        8      16.00   1.330431   0.730  0.000  1.360 O3       
    O1       Shell       8       0.00  -3.733957   0.730  0.000  0.000 O1       
    O2       Shell       8       0.00  -2.870733   0.730  0.000  0.000 O2       
    O3       Shell       8       0.00  -3.330431   0.730  0.000  0.000 O3       
--------------------------------------------------------------------------------


  Lattice summation method               =    Ewald          (3-D)
                                         =    Parry          (2-D)
                                         =    Saunders et al (1-D)
  Accuracy factor for lattice sums       =   12.000


  Analytic derivatives to be used

  Time limit = Infinity

  Maximum range for interatomic potentials =    100000.000000 Angstroms

  General interatomic potentials :

--------------------------------------------------------------------------------
Atom  Types   Potential      Parameter       Value         Units   Cutoffs(Ang)
  1     2                                                            Min /  Max 
--------------------------------------------------------------------------------
Si   c O1   s Buckingham    Buckingham A     1315.2478    eV        0.000 16.000
                            Buckingham rho  0.31775900    Ang       
                            Buckingham C     10.141118    eV*Ang^6  
--------------------------------------------------------------------------------
Si   c O2   s Buckingham    Buckingham A     1315.2478    eV        0.000 16.000
                            Buckingham rho  0.31775900    Ang       
                            Buckingham C     10.141118    eV*Ang^6  
--------------------------------------------------------------------------------
Si   c O3   s Buckingham    Buckingham A     1315.2478    eV        0.000 16.000
                            Buckingham rho  0.31775900    Ang       
                            Buckingham C     10.141118    eV*Ang^6  
--------------------------------------------------------------------------------
Ge   c O1   s Buckingham    Buckingham A     1497.3996    eV        0.000 16.000
                            Buckingham rho  0.32564600    Ang       
                            Buckingham C     16.808599    eV*Ang^6  
--------------------------------------------------------------------------------
Ge   c O2   s Buckingham    Buckingham A     1497.3996    eV        0.000 16.000
                            Buckingham rho  0.32564600    Ang       
                            Buckingham C     16.808599    eV*Ang^6  
--------------------------------------------------------------------------------
Ge   c O3   s Buckingham    Buckingham A     1497.3996    eV        0.000 16.000
                            Buckingham rho  0.32564600    Ang       
                            Buckingham C     16.808599    eV*Ang^6  
--------------------------------------------------------------------------------
O1   s O1   s Buckingham    Buckingham A     22764.000    eV        0.000 16.000
                            Buckingham rho  0.14900000    Ang       
                            Buckingham C     10.937044    eV*Ang^6  
--------------------------------------------------------------------------------
O1   s O2   s Buckingham    Buckingham A     22764.000    eV        0.000 16.000
                            Buckingham rho  0.14900000    Ang       
                            Buckingham C     10.937044    eV*Ang^6  
--------------------------------------------------------------------------------
O1   s O3   s Buckingham    Buckingham A     22764.000    eV        0.000 16.000
                            Buckingham rho  0.14900000    Ang       
                            Buckingham C     10.937044    eV*Ang^6  
--------------------------------------------------------------------------------
O2   s O2   s Buckingham    Buckingham A     22764.000    eV        0.000 16.000
                            Buckingham rho  0.14900000    Ang       
                            Buckingham C     10.937044    eV*Ang^6  
--------------------------------------------------------------------------------
O2   s O3   s Buckingham    Buckingham A     22764.000    eV        0.000 16.000
                            Buckingham rho  0.14900000    Ang       
                            Buckingham C     10.937044    eV*Ang^6  
--------------------------------------------------------------------------------
O3   s O3   s Buckingham    Buckingham A     22764.000    eV        0.000 16.000
                            Buckingham rho  0.14900000    Ang       
                            Buckingham C     10.937044    eV*Ang^6  
--------------------------------------------------------------------------------
O1   c O1   s Spring (c-s)  Spring k 2       180.31577    eV*Ang^-2 0.000  0.800
                            Spring k 4       0.0000000    eV*Ang^-4 
--------------------------------------------------------------------------------
O2   c O2   s Spring (c-s)  Spring k 2       75.969800    eV*Ang^-2 0.000  0.800
                            Spring k 4       0.0000000    eV*Ang^-4 
--------------------------------------------------------------------------------
O3   c O3   s Spring (c-s)  Spring k 2       128.14270    eV*Ang^-2 0.000  0.800
                            Spring k 4       0.0000000    eV*Ang^-4 
--------------------------------------------------------------------------------

  General Three-body potentials :

--------------------------------------------------------------------------------
  Atoms       Potential      Parameter       Value         Units   Cutoffs(Ang)
  1 / 2 / 3                                                          Min /  Max 
--------------------------------------------------------------------------------
Si    core    Harmonic      Three-body cnst  1.2614000    eV*rad^-2 0.000  1.900
O1    shel                  Three-body angl  109.47000    degrees   0.000  1.900
O1    shel                  Three-body k4    0.0000000    eV*rad^-4 0.000  3.500
                            Three-body k3    0.0000000    eV*rad^-3 
--------------------------------------------------------------------------------
Si    core    Harmonic      Three-body cnst  1.2614000    eV*rad^-2 0.000  1.900
O1    shel                  Three-body angl  109.47000    degrees   0.000  1.900
õ(1   shel                  Three-body k4    0.0000000    eV*rad^-4 0.000  3.500
                            Three-body k3    0.0000000    eV*rad^-3 
--------------------------------------------------------------------------------
Si    core    Harmonic      Three-body cnst  1.2614000    eV*rad^-2 0.000  1.900
õ(1   shel                  Three-body angl  109.47000    degrees   0.000  1.900
õ(1   shel                  Three-body k4    0.0000000    eV*rad^-4 0.000  3.500
                            Three-body k3    0.0000000    eV*rad^-3 
--------------------------------------------------------------------------------
Si    core    Harmonic      Three-body cnst  1.2614000    eV*rad^-2 0.000  1.900
O1    shel                  Three-body angl  109.47000    degrees   0.000  1.900
O2    shel                  Three-body k4    0.0000000    eV*rad^-4 0.000  3.500
                            Three-body k3    0.0000000    eV*rad^-3 
--------------------------------------------------------------------------------
Si    core    Harmonic      Three-body cnst  1.2614000    eV*rad^-2 0.000  1.900
O1    shel                  Three-body angl  109.47000    degrees   0.000  1.900
õ(2   shel                  Three-body k4    0.0000000    eV*rad^-4 0.000  3.500
                            Three-body k3    0.0000000    eV*rad^-3 
--------------------------------------------------------------------------------
Si    core    Harmonic      Three-body cnst  1.2614000    eV*rad^-2 0.000  1.900
O2    shel                  Three-body angl  109.47000    degrees   0.000  1.900
õ(1   shel                  Three-body k4    0.0000000    eV*rad^-4 0.000  3.500
                            Three-body k3    0.0000000    eV*rad^-3 
--------------------------------------------------------------------------------
Si    core    Harmonic      Three-body cnst  1.2614000    eV*rad^-2 0.000  1.900
õ(1   shel                  Three-body angl  109.47000    degrees   0.000  1.900
õ(2   shel                  Three-body k4    0.0000000    eV*rad^-4 0.000  3.500
                            Three-body k3    0.0000000    eV*rad^-3 
--------------------------------------------------------------------------------
Si    core    Harmonic      Three-body cnst  1.2614000    eV*rad^-2 0.000  1.900
O2    shel                  Three-body angl  109.47000    degrees   0.000  1.900
O2    shel                  Three-body k4    0.0000000    eV*rad^-4 0.000  3.500
                            Three-body k3    0.0000000    eV*rad^-3 
--------------------------------------------------------------------------------
Si    core    Harmonic      Three-body cnst  1.2614000    eV*rad^-2 0.000  1.900
O2    shel                  Three-body angl  109.47000    degrees   0.000  1.900
õ(2   shel                  Three-body k4    0.0000000    eV*rad^-4 0.000  3.500
                            Three-body k3    0.0000000    eV*rad^-3 
--------------------------------------------------------------------------------
Si    core    Harmonic      Three-body cnst  1.2614000    eV*rad^-2 0.000  1.900
õ(2   shel                  Three-body angl  109.47000    degrees   0.000  1.900
õ(2   shel                  Three-body k4    0.0000000    eV*rad^-4 0.000  3.500
                            Three-body k3    0.0000000    eV*rad^-3 
--------------------------------------------------------------------------------

********************************************************************************
*  Output for configuration   1 : c00246.vasp                                  *
********************************************************************************


  Components of energy : 

--------------------------------------------------------------------------------
  Interatomic potentials     =         760.31794850 eV    
  Three-body potentials      =           0.01467312 eV    
  Monopole - monopole (real) =       -2676.00317478 eV    
  Monopole - monopole (recip)=       -1115.35404472 eV    
  Monopole - monopole (total)=       -3791.35721950 eV    
--------------------------------------------------------------------------------
  Total lattice energy       =       -3031.02459788 eV    
--------------------------------------------------------------------------------
  Total lattice energy       =         -292447.5402 kJ/(mole unit cells)
--------------------------------------------------------------------------------


  Number of variables =      363

  Maximum number of calculations  =          1000
  Maximum Hessian update interval =            10
  Maximum step size               =   0.100000000
  Maximum parameter tolerance     =   0.000010000
  Maximum function  tolerance     =   0.000010000
  Maximum gradient  tolerance     =   0.001000000
  Maximum gradient  component     =   0.010000000

  Symmetry not applied to optimisation

  Cell parameters to be optimised using strains

  Newton-Raphson optimiser to be used

  BFGS hessian update to be used

  Lower half triangular hessian to be used

  Minimiser to switch to RFO
  When gradient norm is less than     0.050000

  Dumpfile to be written after every cycle

  Start of bulk optimisation :

  Cycle:      0 Energy:     -3031.024598  Gnorm:      4.457178  CPU:    0.130
  ** Hessian calculated **
  Cycle:      1 Energy:     -3044.820969  Gnorm:      3.519825  CPU:    0.351
  ** Hessian calculated **
  Cycle:      2 Energy:     -3063.878040  Gnorm:      0.767081  CPU:    0.569
  ** Hessian calculated **
  Cycle:      3 Energy:     -3066.343415  Gnorm:      0.424599  CPU:    0.814
  ** Hessian calculated **
  Cycle:      4 Energy:     -3066.825527  Gnorm:      0.248016  CPU:    1.038
  Cycle:      5 Energy:     -3066.994764  Gnorm:      0.167157  CPU:    1.155
  Cycle:      6 Energy:     -3067.134136  Gnorm:      0.128350  CPU:    1.292
  Cycle:      7 Energy:     -3067.262195  Gnorm:      0.105207  CPU:    1.431
  Cycle:      8 Energy:     -3067.350765  Gnorm:      0.088134  CPU:    1.545
  Cycle:      9 Energy:     -3067.407281  Gnorm:      0.068834  CPU:    1.663
  Cycle:     10 Energy:     -3067.434991  Gnorm:      0.043909  CPU:    1.780
  ** Hessian has required structure
  Cycle:     11 Energy:     -3067.442396  Gnorm:      0.066108  CPU:    1.939
  ** Hessian has required structure
  Cycle:     12 Energy:     -3067.448993  Gnorm:      0.064015  CPU:    2.117
  ** Hessian has required structure
  Cycle:     13 Energy:     -3067.456642  Gnorm:      0.075822  CPU:    2.298
  ** Hessian has wrong structure
  ** Imaginary eigenvectors =   2
  Cycle:     14 Energy:     -3067.488887  Gnorm:      0.074992  CPU:    2.851
  ** Hessian has wrong structure
  ** Imaginary eigenvectors =   1
  Cycle:     15 Energy:     -3067.512697  Gnorm:      0.076624  CPU:    3.337
  ** Hessian has required structure
  Cycle:     16 Energy:     -3067.597600  Gnorm:      0.070428  CPU:    3.642
  ** Hessian has required structure
  Cycle:     17 Energy:     -3067.768029  Gnorm:      0.043221  CPU:    3.850
  ** Hessian has required structure
  Cycle:     18 Energy:     -3067.819320  Gnorm:      0.047114  CPU:    4.036
  ** Hessian has required structure
  Cycle:     19 Energy:     -3067.891577  Gnorm:      0.037667  CPU:    4.223
  ** Hessian has required structure
  Cycle:     20 Energy:     -3067.918522  Gnorm:      0.029835  CPU:    4.411
  ** Hessian has required structure
  Cycle:     21 Energy:     -3067.936005  Gnorm:      0.029195  CPU:    4.621
  ** Hessian has required structure
  Cycle:     22 Energy:     -3067.959241  Gnorm:      0.021809  CPU:    4.808
  ** Hessian has required structure
  Cycle:     23 Energy:     -3067.973285  Gnorm:      0.025074  CPU:    4.996
  ** Hessian has required structure
  Cycle:     24 Energy:     -3067.990874  Gnorm:      0.032816  CPU:    5.182
  ** Hessian has required structure
  Cycle:     25 Energy:     -3068.008142  Gnorm:      0.031011  CPU:    5.346
  ** Hessian has required structure
  Cycle:     26 Energy:     -3068.046199  Gnorm:      0.033763  CPU:    5.647
  ** Hessian has required structure
  Cycle:     27 Energy:     -3068.076129  Gnorm:      0.029564  CPU:    5.848
  ** Hessian has required structure
  Cycle:     28 Energy:     -3068.094819  Gnorm:      0.015416  CPU:    6.049
  ** Hessian has required structure
  Cycle:     29 Energy:     -3068.103634  Gnorm:      0.010427  CPU:    6.250
  ** Hessian has required structure
  Cycle:     30 Energy:     -3068.107488  Gnorm:      0.009831  CPU:    6.450
  ** Hessian has required structure
  Cycle:     31 Energy:     -3068.109371  Gnorm:      0.004846  CPU:    6.652
  ** Hessian has required structure
  Cycle:     32 Energy:     -3068.110206  Gnorm:      0.003363  CPU:    6.855
  ** Hessian has required structure
  Cycle:     33 Energy:     -3068.110729  Gnorm:      0.002933  CPU:    7.056
  ** Hessian has required structure
  Cycle:     34 Energy:     -3068.111102  Gnorm:      0.001926  CPU:    7.257
  ** Hessian has required structure
  Cycle:     35 Energy:     -3068.111399  Gnorm:      0.002295  CPU:    7.477
  ** Hessian has required structure
  Cycle:     36 Energy:     -3068.111997  Gnorm:      0.001504  CPU:    7.778
  ** Hessian has required structure
  Cycle:     37 Energy:     -3068.112223  Gnorm:      0.001152  CPU:    7.984
  ** Hessian has required structure
  Cycle:     38 Energy:     -3068.112336  Gnorm:      0.000707  CPU:    8.192
  ** Hessian has required structure
  Cycle:     39 Energy:     -3068.112380  Gnorm:      0.000456  CPU:    8.394
  ** Hessian has required structure
  Cycle:     40 Energy:     -3068.112397  Gnorm:      0.000237  CPU:    8.595
  ** Hessian has required structure
  Cycle:     41 Energy:     -3068.112400  Gnorm:      0.000194  CPU:    8.754
  ** Hessian has required structure
  Cycle:     42 Energy:     -3068.112402  Gnorm:      0.000137  CPU:    8.912
  ** Hessian has required structure
  Cycle:     43 Energy:     -3068.112404  Gnorm:      0.000100  CPU:    9.091
  ** Hessian has required structure


  **** Optimisation achieved ****


  Final energy =   -3068.11240470 eV      
  Final Gnorm  =       0.00006317

  Components of energy : 

--------------------------------------------------------------------------------
  Interatomic potentials     =         816.03525150 eV    
  Three-body potentials      =           0.22011955 eV    
  Monopole - monopole (real) =       -2203.46805430 eV    
  Monopole - monopole (recip)=       -1680.89972144 eV    
  Monopole - monopole (total)=       -3884.36777574 eV    
--------------------------------------------------------------------------------
  Total lattice energy       =       -3068.11240470 eV    
--------------------------------------------------------------------------------
  Total lattice energy       =         -296025.9467 kJ/(mole unit cells)
--------------------------------------------------------------------------------

  Final fractional coordinates of atoms :

--------------------------------------------------------------------------------
   No.  Atomic        x           y          z          Radius
        Label       (Frac)      (Frac)     (Frac)       (Angs) 
--------------------------------------------------------------------------------
     1  Ge    c     0.160190    0.293910    0.273440    0.000000
     2  Ge    c     0.850807    0.664854    0.013726    0.000000
     3  Ge    c     0.826554    0.254281    0.005725    0.000000
     4  Si    c     0.045962    0.007119    0.360244    0.000000
     5  Si    c     0.450648    0.009917    0.348873    0.000000
     6  Si    c     0.940624    0.989616    0.609156    0.000000
     7  Si    c     0.542693    0.013439    0.617262    0.000000
     8  Si    c     0.551894    0.005150    0.096864    0.000000
     9  Si    c     0.942705    0.980065    0.107039    0.000000
    10  Si    c     0.434311    0.000227    0.862311    0.000000
    11  Si    c     0.045646    0.007161    0.861963    0.000000
    12  Si    c     0.334242    0.722236    0.259094    0.000000
    13  Si    c     0.825272    0.277836    0.698048    0.000000
    14  Si    c     0.661283    0.720984    0.707361    0.000000
    15  Si    c     0.840381    0.686364    0.706925    0.000000
    16  Si    c     0.646790    0.320435    0.700525    0.000000
    17  Si    c     0.152592    0.706413    0.267765    0.000000
    18  Si    c     0.343832    0.317415    0.266174    0.000000
    19  Si    c     0.644873    0.321559    0.006151    0.000000
    20  Si    c     0.336878    0.314510    0.961153    0.000000
    21  Si    c     0.145035    0.695813    0.965915    0.000000
    22  Si    c     0.326104    0.714299    0.956241    0.000000
    23  Si    c     0.156343    0.291348    0.964630    0.000000
    24  Si    c     0.666386    0.715049    0.012514    0.000000
    25  O3    c     0.103060    0.170835    0.373907    0.000000
    26  O2    c     0.386095    0.856903    0.341828    0.000000
    27  O2    c     0.877554    0.149851    0.608286    0.000000
    28  O2    c     0.608857    0.861953    0.629807    0.000000
    29  O2    c     0.898063    0.801849    0.619509    0.000000
    30  O2    c     0.584039    0.203176    0.622814    0.000000
    31  O2    c     0.100087    0.832366    0.356515    0.000000
    32  O2    c     0.407797    0.199827    0.343221    0.000000
    33  O2    c     0.984352    0.992295    0.473590    0.000000
    34  O2    c     0.498556    0.991817    0.481538    0.000000
    35  O2    c     0.997695    0.032679    0.226251    0.000000
    36  O2    c     0.511586    0.987356    0.234010    0.000000
    37  O2    c     0.005470    0.015861    0.721559    0.000000
    38  O2    c     0.478389    0.994598    0.727585    0.000000
    39  O2    c     0.582105    0.203843    0.080173    0.000000
    40  O3    c     0.920077    0.777011    0.105065    0.000000
    41  O2    c     0.393468    0.191146    0.877316    0.000000
    42  O2    c     0.086326    0.815198    0.879792    0.000000
    43  O2    c     0.369090    0.848292    0.861825    0.000000
    44  O2    c     0.109180    0.161924    0.869334    0.000000
    45  O2    c     0.623469    0.865866    0.094831    0.000000
    46  O3    c     0.862095    0.090275    0.104916    0.000000
    47  O2    c     0.492967    0.956514    0.980503    0.000000
    48  O2    c     0.982119    0.043003    0.972410    0.000000
    49  O3    c     0.131141    0.508797    0.296668    0.000000
    50  O2    c     0.362466    0.523056    0.288698    0.000000
    51  O2    c     0.857549    0.477209    0.691629    0.000000
    52  O2    c     0.627460    0.526662    0.678506    0.000000
    53  O3    c     0.258046    0.273733    0.315463    0.000000
    54  O2    c     0.243845    0.743771    0.299741    0.000000
    55  O2    c     0.734346    0.276726    0.650486    0.000000
    56  O2    c     0.751088    0.729244    0.660949    0.000000
    57  O3    c     0.148122    0.232186    0.112797    0.000000
    58  O2    c     0.341416    0.766246    0.106462    0.000000
    59  O3    c     0.829864    0.202905    0.842655    0.000000
    60  O2    c     0.661853    0.765450    0.860173    0.000000
    61  O3    c     0.855737    0.739202    0.855011    0.000000
    62  O2    c     0.641752    0.274940    0.852771    0.000000
    63  O2    c     0.134751    0.750930    0.116079    0.000000
    64  O2    c     0.348858    0.271361    0.113155    0.000000
    65  O2    c     0.624060    0.526887    0.031306    0.000000
    66  O1    c     0.874338    0.448994    0.029532    0.000000
    67  O2    c     0.357802    0.516518    0.931023    0.000000
    68  O2    c     0.123489    0.491162    0.947640    0.000000
    69  O3    c     0.731507    0.282942    0.056897    0.000000
    70  O3    c     0.755157    0.701835    0.061373    0.000000
    71  O2    c     0.246752    0.280800    0.922497    0.000000
    72  O2    c     0.233869    0.727194    0.922941    0.000000
    73  O3    s     0.102033    0.164498    0.364213    0.000000
    74  O2    s     0.387174    0.858199    0.333195    0.000000
    75  O2    s     0.878588    0.146700    0.618038    0.000000
    76  O2    s     0.607590    0.862523    0.637316    0.000000
    77  O2    s     0.896392    0.809408    0.627794    0.000000
    78  O2    s     0.586546    0.195836    0.630793    0.000000
    79  O2    s     0.100116    0.837089    0.346978    0.000000
    80  O2    s     0.405333    0.192367    0.335341    0.000000
    81  O2    s     0.986546    0.993773    0.475972    0.000000
    82  O2    s     0.498105    0.996542    0.481912    0.000000
    83  O2    s     0.996577    0.023770    0.227008    0.000000
    84  O2    s     0.509303    0.992057    0.231015    0.000000
    85  O2    s     0.002885    0.011932    0.725293    0.000000
    86  O2    s     0.480517    0.997400    0.730947    0.000000
    87  O2    s     0.585726    0.195492    0.073817    0.000000
    88  O3    s     0.916878    0.788402    0.098107    0.000000
    89  O2    s     0.391531    0.184398    0.885139    0.000000
    90  O2    s     0.088529    0.822123    0.887500    0.000000
    91  O2    s     0.371275    0.849632    0.872426    0.000000
    92  O2    s     0.107535    0.159513    0.879120    0.000000
    93  O2    s     0.620468    0.864345    0.085848    0.000000
    94  O3    s     0.867035    0.093033    0.096797    0.000000
    95  O2    s     0.492981    0.966845    0.980240    0.000000
    96  O2    s     0.984963    0.032954    0.974037    0.000000
    97  O3    s     0.135849    0.511887    0.291663    0.000000
    98  O2    s     0.357449    0.522547    0.283110    0.000000
    99  O2    s     0.852380    0.478191    0.693880    0.000000
   100  O2    s     0.633080    0.525138    0.683886    0.000000
   101  O3    s     0.258705    0.279754    0.307078    0.000000
   102  O2    s     0.243895    0.737476    0.291942    0.000000
   103  O2    s     0.734660    0.281503    0.660615    0.000000
   104  O2    s     0.750886    0.723806    0.670669    0.000000
   105  O3    s     0.149903    0.242960    0.111003    0.000000
   106  O2    s     0.339018    0.756115    0.106700    0.000000
   107  O3    s     0.829134    0.214584    0.841380    0.000000
   108  O2    s     0.662277    0.755335    0.859743    0.000000
   109  O3    s     0.853828    0.728088    0.852653    0.000000
   110  O2    s     0.642611    0.284664    0.852447    0.000000
   111  O2    s     0.137654    0.740642    0.115753    0.000000
   112  O2    s     0.347052    0.280807    0.112873    0.000000
   113  O2    s     0.630533    0.524771    0.026727    0.000000
   114  O1    s     0.868816    0.451566    0.026479    0.000000
   115  O2    s     0.352190    0.515967    0.936940    0.000000
   116  O2    s     0.129185    0.492292    0.951353    0.000000
   117  O3    s     0.730216    0.284662    0.047406    0.000000
   118  O3    s     0.753761    0.700227    0.052587    0.000000
   119  O2    s     0.246837    0.285709    0.931271    0.000000
   120  O2    s     0.234178    0.722272    0.931294    0.000000
--------------------------------------------------------------------------------

  Final Cartesian lattice vectors (Angstroms) :

       17.060253    0.100446   -0.126160
        0.044168    7.602813   -0.006134
       -0.076531   -0.010661   10.284332


  Final cell parameters and derivatives :

--------------------------------------------------------------------------------
       a           17.061015 Angstrom     dE/de1(xx)     0.004372 eV/strain
       b            7.602943 Angstrom     dE/de2(yy)     0.001684 eV/strain
       c           10.284622 Angstrom     dE/de3(zz)     0.007441 eV/strain
       alpha       90.108092 Degrees      dE/de4(yz)    -0.000039 eV/strain
       beta        90.850385 Degrees      dE/de5(xz)     0.000100 eV/strain
       gamma       89.329488 Degrees      dE/de6(xy)     0.000093 eV/strain
--------------------------------------------------------------------------------

  Primitive cell volume =          1333.818539 Angs**3

  Density of cell =      1.961726 g/cm**3

  Non-primitive cell volume =          1333.818539 Angs**3


  Final internal derivatives :

--------------------------------------------------------------------------------
   No.  Atomic          a             b             c           Radius
        Label          (eV)          (eV)          (eV)        (eV/Angs)
--------------------------------------------------------------------------------
      1 Ge    c       0.000000      0.000000      0.000000      0.000000
      2 Ge    c       0.000021     -0.000218      0.000058      0.000000
      3 Ge    c      -0.000226      0.000202      0.000042      0.000000
      4 Si    c       0.000038      0.000003     -0.000000      0.000000
      5 Si    c      -0.009408      0.000953     -0.001497      0.000000
      6 Si    c       0.000015     -0.000001      0.000001      0.000000
      7 Si    c       0.008130      0.001163      0.001354      0.000000
      8 Si    c       0.005937      0.001095     -0.000961      0.000000
      9 Si    c      -0.000014     -0.000005     -0.000028      0.000000
     10 Si    c      -0.005226      0.000893     -0.000489      0.000000
     11 Si    c       0.000041      0.000005      0.000022      0.000000
     12 Si    c       0.000219     -0.000462      0.000378      0.000000
     13 Si    c       0.000052      0.000021      0.000110      0.000000
     14 Si    c      -0.000401     -0.000413     -0.000354      0.000000
     15 Si    c       0.000019     -0.000042      0.000008      0.000000
     16 Si    c      -0.000918      0.000111     -0.000172      0.000000
     17 Si    c       0.000015     -0.000052      0.000019      0.000000
     18 Si    c       0.000928      0.000094      0.000180      0.000000
     19 Si    c      -0.000489      0.000192      0.000283      0.000000
     20 Si    c       0.000934      0.000141     -0.000153      0.000000
     21 Si    c      -0.000065     -0.000052     -0.000062      0.000000
     22 Si    c       0.000813     -0.000168     -0.000327      0.000000
     23 Si    c       0.000060      0.000025     -0.000021      0.000000
     24 Si    c      -0.000495     -0.000202      0.000453      0.000000
     25 O3    c      -0.000009      0.000005      0.000023      0.000000
     26 O2    c      -0.000786     -0.000769      0.000489      0.000000
     27 O2    c       0.000016     -0.000010     -0.000006      0.000000
     28 O2    c       0.001126     -0.000872     -0.000491      0.000000
     29 O2    c       0.000014      0.000003     -0.000007      0.000000
     30 O2    c      -0.000368      0.000240     -0.000022      0.000000
     31 O2    c       0.000008     -0.000016      0.000011      0.000000
     32 O2    c       0.000427      0.000194     -0.000013      0.000000
     33 O2    c      -0.000056     -0.000006      0.000027      0.000000
     34 O2    c      -0.001135     -0.001290      0.000303      0.000000
     35 O2    c      -0.000037      0.000015     -0.000065      0.000000
     36 O2    c       0.007110     -0.000775      0.001674      0.000000
     37 O2    c       0.000026      0.000004      0.000002      0.000000
     38 O2    c      -0.003761     -0.000739     -0.000174      0.000000
     39 O2    c       0.000010      0.001069     -0.000205      0.000000
     40 O3    c       0.000010      0.000023     -0.000003      0.000000
     41 O2    c      -0.000271      0.000956      0.000059      0.000000
     42 O2    c      -0.000024      0.000017     -0.000014      0.000000
     43 O2    c      -0.000732     -0.000733     -0.000104      0.000000
     44 O2    c       0.000002      0.000005      0.000002      0.000000
     45 O2    c       0.000918     -0.000709      0.000053      0.000000
     46 O3    c      -0.000001     -0.000045     -0.000002      0.000000
     47 O2    c      -0.002217     -0.002734      0.000868      0.000000
     48 O2    c      -0.000004     -0.000001      0.000013      0.000000
     49 O3    c       0.000007      0.000023     -0.000029      0.000000
     50 O2    c       0.000160     -0.000017      0.000019      0.000000
     51 O2    c      -0.000100      0.000006      0.000026      0.000000
     52 O2    c      -0.000124      0.000034      0.000019      0.000000
     53 O3    c       0.000165      0.000056     -0.000009      0.000000
     54 O2    c      -0.000193      0.000004      0.000069      0.000000
     55 O2    c      -0.000078      0.000030      0.000006      0.000000
     56 O2    c       0.000229     -0.000003     -0.000050      0.000000
     57 O3    c      -0.000008      0.000005     -0.000059      0.000000
     58 O2    c      -0.000249     -0.000128     -0.000273      0.000000
     59 O3    c      -0.000123      0.000052     -0.000057      0.000000
     60 O2    c       0.000115     -0.000027      0.000356      0.000000
     61 O3    c       0.000003     -0.000021     -0.000016      0.000000
     62 O2    c      -0.000009      0.000131     -0.000005      0.000000
     63 O2    c      -0.000050      0.000025      0.000090      0.000000
     64 O2    c       0.000063      0.000141      0.000003      0.000000
     65 O2    c      -0.000077     -0.000014     -0.000065      0.000000
     66 O1    c      -0.000617      0.000031     -0.000274      0.000000
     67 O2    c       0.000201      0.000036     -0.000025      0.000000
     68 O2    c       0.000010     -0.000011      0.000005      0.000000
     69 O3    c       0.000010      0.000172     -0.000202      0.000000
     70 O3    c      -0.000858     -0.000067     -0.000044      0.000000
     71 O2    c      -0.000018      0.000021     -0.000012      0.000000
     72 O2    c       0.000274     -0.000001     -0.000076      0.000000
     73 O3    s       0.000038      0.000006     -0.000008      0.000000
     74 O2    s      -0.004119     -0.000307     -0.000645      0.000000
     75 O2    s      -0.000032      0.000020      0.000034      0.000000
     76 O2    s       0.003847     -0.000176      0.000285      0.000000
     77 O2    s      -0.000047     -0.000014      0.000025      0.000000
     78 O2    s       0.003226      0.000771     -0.000047      0.000000
     79 O2    s       0.000048     -0.000012      0.000013      0.000000
     80 O2    s      -0.003330      0.000815      0.000024      0.000000
     81 O2    s      -0.000022      0.000004      0.000006      0.000000
     82 O2    s       0.000033      0.000460     -0.000081      0.000000
     83 O2    s      -0.000045     -0.000007      0.000009      0.000000
     84 O2    s       0.000008      0.000142      0.000845      0.000000
     85 O2    s      -0.000051     -0.000003     -0.000004      0.000000
     86 O2    s       0.000527      0.000205     -0.000640      0.000000
     87 O2    s       0.003876      0.000889     -0.000243      0.000000
     88 O3    s       0.000018     -0.000036      0.000003      0.000000
     89 O2    s      -0.003496      0.000592     -0.000066      0.000000
     90 O2    s      -0.000073      0.000008     -0.000031      0.000000
     91 O2    s      -0.003714     -0.000309     -0.000186      0.000000
     92 O2    s       0.000012     -0.000010     -0.000005      0.000000
     93 O2    s       0.003971     -0.000271     -0.000301      0.000000
     94 O3    s      -0.000016      0.000075     -0.000006      0.000000
     95 O2    s      -0.000657     -0.000303     -0.000137      0.000000
     96 O2    s      -0.000030      0.000003      0.000003      0.000000
     97 O3    s      -0.000009      0.000002      0.000005      0.000000
     98 O2    s      -0.000539      0.000017     -0.000112      0.000000
     99 O2    s      -0.000123     -0.000002      0.000099      0.000000
    100 O2    s       0.000615     -0.000051      0.000129      0.000000
    101 O3    s      -0.000256     -0.000078     -0.000009      0.000000
    102 O2    s      -0.000148      0.000035      0.000005      0.000000
    103 O2    s       0.000277      0.000004      0.000079      0.000000
    104 O2    s       0.000258     -0.000046      0.000028      0.000000
    105 O3    s       0.000026     -0.000016      0.000044      0.000000
    106 O2    s       0.001085      0.000573      0.000287      0.000000
    107 O3    s      -0.000090      0.000077      0.000068      0.000000
    108 O2    s      -0.000583      0.000355     -0.000103      0.000000
    109 O3    s      -0.000255     -0.000054     -0.000016      0.000000
    110 O2    s       0.000262     -0.000358      0.000094      0.000000
    111 O2    s       0.000036      0.000012      0.000054      0.000000
    112 O2    s      -0.000226     -0.000412      0.000074      0.000000
    113 O2    s       0.000740     -0.000055     -0.000196      0.000000
    114 O1    s       0.000137     -0.000058      0.000029      0.000000
    115 O2    s      -0.000603     -0.000002      0.000107      0.000000
    116 O2    s      -0.000085     -0.000035     -0.000007      0.000000
    117 O3    s       0.000176     -0.000061     -0.000101      0.000000
    118 O3    s       0.000599      0.000007     -0.000139      0.000000
    119 O2    s      -0.000179     -0.000073      0.000043      0.000000
    120 O2    s      -0.000156      0.000049      0.000023      0.000000
--------------------------------------------------------------------------------
  Maximum abs         0.009408      0.002734      0.001674      0.000000
--------------------------------------------------------------------------------


  Born effective charge tensors : 

-------------------------------------------------------------------------------
  Atom             x           y             z
-------------------------------------------------------------------------------
    1 Ge    x       3.9542      0.3438     -0.1827
            y       0.2547      4.1808     -0.2693
            z      -0.1872     -0.0543      3.4580
-------------------------------------------------------------------------------
    2 Ge    x       4.1095      0.2454      0.1640
            y       0.2803      4.2271      0.2371
            z       0.2965     -0.0346      3.3211
-------------------------------------------------------------------------------
    3 Ge    x       4.0200     -0.4704      0.1573
            y      -0.0133      4.1962     -0.2274
            z       0.1951     -0.0572      3.3637
-------------------------------------------------------------------------------
    4 Si    x       3.6163      0.1612     -0.1220
            y       0.2427      3.4128      0.0801
            z      -0.6863     -0.0901      3.7496
-------------------------------------------------------------------------------
    5 Si    x       3.4209     -0.0984      0.2029
            y       0.1242      3.2242      0.0051
            z       0.4518     -0.0362      3.8262
-------------------------------------------------------------------------------
    6 Si    x       3.4667      0.1089     -0.2343
            y      -0.0905      3.2137     -0.0287
            z      -0.3726      0.0205      3.7835
-------------------------------------------------------------------------------
    7 Si    x       3.4725      0.1512      0.2089
            y      -0.1183      3.2364     -0.0154
            z       0.3831      0.0695      3.8314
-------------------------------------------------------------------------------
    8 Si    x       3.4313      0.1903     -0.2255
            y      -0.2029      3.2177     -0.0352
            z      -0.4638     -0.0449      3.1208
-------------------------------------------------------------------------------
    9 Si    x       3.7618      0.2340      0.1311
            y      -0.3055      3.5676     -0.0010
            z       0.5961      0.1331      3.1647
-------------------------------------------------------------------------------
   10 Si    x       3.4817     -0.1239     -0.2408
            y       0.1351      3.2609      0.0186
            z      -0.5130     -0.0233      3.1269
-------------------------------------------------------------------------------
   11 Si    x       3.4731     -0.1083      0.3017
            y       0.1401      3.2555     -0.0220
            z       0.4422     -0.0288      3.1290
-------------------------------------------------------------------------------
   12 Si    x       3.2001      0.2941      0.1121
            y       0.1727      3.4427      0.1584
            z       0.1103      0.0714      2.8289
-------------------------------------------------------------------------------
   13 Si    x       3.3055     -0.3701     -0.0846
            y      -0.1871      3.5739      0.0904
            z      -0.1550     -0.0902      3.0461
-------------------------------------------------------------------------------
   14 Si    x       3.1973     -0.3388      0.0623
            y      -0.1502      3.4769     -0.1455
            z       0.1472     -0.0760      2.7889
-------------------------------------------------------------------------------
   15 Si    x       3.3046      0.2971      0.0180
            y       0.3127      3.5559     -0.1396
            z      -0.0767      0.0308      3.0943
-------------------------------------------------------------------------------
   16 Si    x       3.1995      0.2569      0.0071
            y       0.2890      3.4539      0.1845
            z       0.1338      0.0695      2.7903
-------------------------------------------------------------------------------
   17 Si    x       3.2856     -0.1730     -0.1234
            y      -0.1069      3.7313      0.0930
            z      -0.1342      0.0054      2.9121
-------------------------------------------------------------------------------
   18 Si    x       3.5071     -0.1593     -0.0596
            y      -0.2264      3.5257     -0.2046
            z       0.0460     -0.0988      2.8992
-------------------------------------------------------------------------------
   19 Si    x       3.5982      0.2097      0.0007
            y       0.2028      3.4717     -0.2072
            z      -0.1399     -0.0710      2.8181
-------------------------------------------------------------------------------
   20 Si    x       3.2606     -0.2725     -0.1178
            y      -0.2437      3.4219      0.1721
            z      -0.1621      0.0731      2.7263
-------------------------------------------------------------------------------
   21 Si    x       3.3045     -0.2664      0.1159
            y      -0.2556      3.4039     -0.1844
            z       0.1643     -0.0336      2.7088
-------------------------------------------------------------------------------
   22 Si    x       3.2523      0.3240     -0.1804
            y       0.1225      3.4394     -0.1907
            z      -0.1094     -0.0646      2.7374
-------------------------------------------------------------------------------
   23 Si    x       3.3162      0.3348      0.1320
            y       0.1499      3.5661      0.1216
            z       0.1169     -0.0316      3.0202
-------------------------------------------------------------------------------
   24 Si    x       3.5853     -0.4039     -0.0123
            y      -0.0687      3.4937      0.1884
            z      -0.0562      0.0757      2.8235
-------------------------------------------------------------------------------
   25 O3    x      -2.0797     -0.9472      0.3465
            y      -1.0145     -2.3769      0.3549
            z       0.4242      0.3174     -1.5628
-------------------------------------------------------------------------------
   26 O2    x      -1.7640     -0.7352     -0.3289
            y      -0.7543     -1.9424     -0.3414
            z      -0.3610     -0.3271     -1.3463
-------------------------------------------------------------------------------
   27 O2    x      -1.7645      0.7312      0.3075
            y       0.7269     -1.9295     -0.3024
            z       0.3511     -0.3072     -1.3499
-------------------------------------------------------------------------------
   28 O2    x      -1.7719      0.7342     -0.3194
            y       0.7664     -1.9691      0.3471
            z      -0.3662      0.3348     -1.3244
-------------------------------------------------------------------------------
   29 O2    x      -1.6681     -0.7256      0.3257
            y      -0.6555     -2.0062      0.3453
            z       0.3582      0.3335     -1.3570
-------------------------------------------------------------------------------
   30 O2    x      -1.6697     -0.7193     -0.2989
            y      -0.6784     -2.0217     -0.3043
            z      -0.3557     -0.3139     -1.3269
-------------------------------------------------------------------------------
   31 O2    x      -1.6960      0.6562      0.3235
            y       0.6637     -1.8706     -0.3488
            z       0.3949     -0.3150     -1.4003
-------------------------------------------------------------------------------
   32 O2    x      -1.6397      0.6924     -0.3004
            y       0.6564     -2.0119      0.3136
            z      -0.3413      0.3101     -1.3449
-------------------------------------------------------------------------------
   33 O2    x      -1.7053     -0.0427      0.8285
            y      -0.0065     -1.0743      0.0121
            z       1.0808      0.0507     -2.6500
-------------------------------------------------------------------------------
   34 O2    x      -1.5749     -0.0135     -0.8245
            y      -0.0024     -1.0910     -0.0060
            z      -0.9977     -0.0235     -2.8318
-------------------------------------------------------------------------------
   35 O2    x      -1.6294     -0.0741     -0.6285
            y      -0.0156     -1.1525     -0.0544
            z      -0.5987     -0.0661     -2.1900
-------------------------------------------------------------------------------
   36 O2    x      -1.6784     -0.0134      0.7283
            y       0.0197     -1.1124      0.0008
            z       0.7026      0.0128     -2.2507
-------------------------------------------------------------------------------
   37 O2    x      -1.7265     -0.0338     -0.7434
            y      -0.0348     -1.1123     -0.0236
            z      -0.7091     -0.0418     -2.2459
-------------------------------------------------------------------------------
   38 O2    x      -1.7611     -0.0307      0.7544
            y      -0.0216     -1.1086      0.0174
            z       0.7685      0.0321     -2.2267
-------------------------------------------------------------------------------
   39 O2    x      -1.6396     -0.6861      0.3293
            y      -0.5525     -2.0395      0.3614
            z       0.3526      0.3454     -1.2235
-------------------------------------------------------------------------------
   40 O3    x      -1.8955     -0.7959     -0.3645
            y      -0.6934     -2.4836     -0.3769
            z      -0.4348     -0.3505     -1.3951
-------------------------------------------------------------------------------
   41 O2    x      -1.6626      0.7039      0.3502
            y       0.6231     -2.0266     -0.3859
            z       0.3753     -0.3616     -1.2457
-------------------------------------------------------------------------------
   42 O2    x      -1.6945      0.7060     -0.3713
            y       0.6193     -2.0056      0.3856
            z      -0.3745      0.3608     -1.2592
-------------------------------------------------------------------------------
   43 O2    x      -1.7472     -0.7118      0.3385
            y      -0.6840     -1.9162      0.3596
            z       0.3360      0.3340     -1.2749
-------------------------------------------------------------------------------
   44 O2    x      -1.7669     -0.7214     -0.3608
            y      -0.6929     -1.9321     -0.3554
            z      -0.3473     -0.3230     -1.2551
-------------------------------------------------------------------------------
   45 O2    x      -1.7635      0.7034      0.2995
            y       0.6657     -1.9173     -0.3307
            z       0.3223     -0.3277     -1.2433
-------------------------------------------------------------------------------
   46 O3    x      -2.2997      0.8472     -0.3473
            y       0.8317     -2.0736      0.4062
            z      -0.3772      0.3458     -1.4405
-------------------------------------------------------------------------------
   47 O2    x      -1.8183     -0.0244     -0.6047
            y      -0.0096     -1.1860     -0.0150
            z      -0.3488     -0.0006     -1.6831
-------------------------------------------------------------------------------
   48 O2    x      -1.7383      0.0006      0.5495
            y       0.0280     -1.2258      0.0678
            z       0.2786      0.0594     -1.7710
-------------------------------------------------------------------------------
   49 O3    x      -1.3171     -0.0356      0.0869
            y      -0.0074     -3.2087      0.0921
            z       0.1007      0.1005     -1.1995
-------------------------------------------------------------------------------
   50 O2    x      -1.1623      0.0654     -0.0553
            y       0.1016     -2.5630      0.0287
            z      -0.0723      0.0197     -1.0770
-------------------------------------------------------------------------------
   51 O2    x      -1.2171     -0.0664      0.0216
            y      -0.1274     -2.6051     -0.0341
            z       0.0551     -0.0381     -1.0428
-------------------------------------------------------------------------------
   52 O2    x      -1.1803     -0.0591     -0.0421
            y      -0.1247     -2.5499     -0.0351
            z      -0.0802     -0.0050     -1.0588
-------------------------------------------------------------------------------
   53 O3    x      -2.9847     -0.1446      0.1343
            y      -0.1038     -1.3959      0.1101
            z       0.1316      0.0731     -1.2466
-------------------------------------------------------------------------------
   54 O2    x      -2.4369     -0.0345      0.0419
            y       0.0010     -1.2321     -0.0609
            z       0.0508     -0.0346     -1.0875
-------------------------------------------------------------------------------
   55 O2    x      -2.3889      0.1179      0.0553
            y       0.0743     -1.2513     -0.0714
            z       0.0354     -0.0346     -1.0945
-------------------------------------------------------------------------------
   56 O2    x      -2.3985      0.1062      0.0435
            y       0.0369     -1.2566      0.0645
            z       0.0578      0.0319     -1.0816
-------------------------------------------------------------------------------
   57 O3    x      -1.3187     -0.1550     -0.0064
            y      -0.1106     -1.4849      0.1141
            z      -0.0106      0.0660     -2.5906
-------------------------------------------------------------------------------
   58 O2    x      -1.1833     -0.1312     -0.0106
            y      -0.0899     -1.2838     -0.0234
            z      -0.0208     -0.0092     -2.0748
-------------------------------------------------------------------------------
   59 O3    x      -1.3352      0.1623     -0.0537
            y       0.0850     -1.4804      0.1801
            z      -0.0133      0.1621     -2.5681
-------------------------------------------------------------------------------
   60 O2    x      -1.1736      0.1147      0.0609
            y       0.0483     -1.2964      0.0153
            z       0.0152      0.0074     -2.0842
-------------------------------------------------------------------------------
   61 O3    x      -1.3643     -0.1631     -0.1411
            y      -0.1472     -1.4501     -0.0828
            z      -0.1383     -0.0091     -2.5999
-------------------------------------------------------------------------------
   62 O2    x      -1.1886     -0.1077      0.0692
            y      -0.0987     -1.2875      0.0142
            z       0.0751     -0.0085     -2.0958
-------------------------------------------------------------------------------
   63 O2    x      -1.2355      0.1314     -0.0487
            y       0.1190     -1.2711     -0.0417
            z      -0.0659     -0.0545     -2.0683
-------------------------------------------------------------------------------
   64 O2    x      -1.1876      0.1150     -0.0413
            y       0.1060     -1.2905     -0.0094
            z      -0.0346     -0.0123     -2.0871
-------------------------------------------------------------------------------
   65 O2    x      -1.2415     -0.0851      0.0719
            y      -0.1762     -2.4768     -0.0339
            z       0.1022     -0.0094     -1.0431
-------------------------------------------------------------------------------
   66 O1    x      -1.5786     -0.1220     -0.1077
            y      -0.2286     -3.2654     -0.0392
            z      -0.1604     -0.0366     -1.2009
-------------------------------------------------------------------------------
   67 O2    x      -1.2203      0.0421      0.0813
            y       0.0862     -2.5165      0.0244
            z       0.0945      0.0013     -1.0227
-------------------------------------------------------------------------------
   68 O2    x      -1.2537      0.0373     -0.0622
            y       0.0938     -2.5614     -0.0333
            z      -0.0881     -0.0290     -1.0018
-------------------------------------------------------------------------------
   69 O3    x      -3.0174      0.2913     -0.0668
            y       0.2243     -1.3973      0.0829
            z      -0.1011      0.0451     -1.2319
-------------------------------------------------------------------------------
   70 O3    x      -3.0972      0.1865     -0.0968
            y       0.0753     -1.3565     -0.0674
            z      -0.0997     -0.0152     -1.2303
-------------------------------------------------------------------------------
   71 O2    x      -2.4361     -0.0698     -0.0035
            y      -0.0536     -1.2524     -0.0654
            z      -0.0114     -0.0335     -1.0408
-------------------------------------------------------------------------------
   72 O2    x      -2.4523     -0.0623      0.0502
            y      -0.0264     -1.2311      0.0662
            z       0.0183      0.0299     -1.0412
-------------------------------------------------------------------------------




  Elastic Constant Matrix: (Units=GPa)

-------------------------------------------------------------------------------
  Indices      1         2         3         4         5         6    
-------------------------------------------------------------------------------
       1     56.4528   30.6958   28.7478    0.9237   -6.9779   -0.8581
       2     30.6958   80.6465   20.9044    1.2753   -6.1274    0.2512
       3     28.7478   20.9044   55.8354   -0.0080   -4.7329   -0.9541
       4      0.9237    1.2753   -0.0080   12.6236    1.0790   -0.2087
       5     -6.9779   -6.1274   -4.7329    1.0790   25.3089   -0.4038
       6     -0.8581    0.2512   -0.9541   -0.2087   -0.4038   25.0555
-------------------------------------------------------------------------------


  Elastic Compliance Matrix: (Units=1/GPa)

-------------------------------------------------------------------------------
  Indices      1         2         3         4         5         6    
-------------------------------------------------------------------------------
       1    0.028024 -0.007415 -0.011311 -0.001631  0.003896  0.000653
       2   -0.007415  0.015875 -0.002010 -0.001196  0.001467 -0.000476
       3   -0.011311 -0.002010  0.024578  0.000974  0.000959  0.000592
       4   -0.001631 -0.001196  0.000974  0.079805 -0.003950  0.000594
       5    0.003896  0.001467  0.000959 -0.003950  0.041301  0.000788
       6    0.000653 -0.000476  0.000592  0.000594  0.000788  0.039979
-------------------------------------------------------------------------------

  Mechanical properties :

-------------------------------------------------------------------------------
  Convention :                    Reuss         Voigt         Hill
-------------------------------------------------------------------------------
  Bulk  Modulus (GPa)     =      37.03087      39.29230      38.16158
  Shear Modulus (GPa)     =      17.85491      20.10337      18.97914
-------------------------------------------------------------------------------
  Velocity S-wave (km/s)  =       3.01689       3.20122       3.11042
  Velocity P-wave (km/s)  =       5.56886       5.80458       5.68794
-------------------------------------------------------------------------------
  Compressibility (1/GPa) =    0.02700450
-------------------------------------------------------------------------------
  Stress axis :                     x             y             z
-------------------------------------------------------------------------------
  Youngs Moduli (GPa)     =      35.68374      62.99303      40.68737
-------------------------------------------------------------------------------
  Poissons Ratio (x)      =                     0.46708       0.46023
  Poissons Ratio (y)      =       0.26458                     0.08177
  Poissons Ratio (z)      =       0.40363       0.12660
-------------------------------------------------------------------------------


  Piezoelectric Strain Matrix: (Units=C/m**2)

-------------------------------------------------------------------------------
  Indices      1         2         3         4         5         6    
-------------------------------------------------------------------------------
       x    -0.08692  -0.08757   0.54303   0.43667   0.25230  -0.06863
       y     0.50593   0.50449  -0.12268  -0.18622   0.46257  -0.24293
       z    -0.71423  -0.55647  -1.42822  -0.17313  -0.11361   0.13969
-------------------------------------------------------------------------------


  Piezoelectric Stress Matrix: (Units=10**-11 C/N)

-------------------------------------------------------------------------------
  Indices      1         2         3         4         5         6    
-------------------------------------------------------------------------------
       x    -0.77031  -0.19565   1.51323   3.45870   0.86948  -0.19789
       y     1.37726   0.55206  -0.96337  -1.83810   2.22421  -0.94409
       z     0.01965  -0.06936  -2.60997  -1.28462  -0.88666   0.43451
-------------------------------------------------------------------------------


  Static dielectric constant tensor : 

-------------------------------------------------------------------------------
              x         y         z
-------------------------------------------------------------------------------
       x     4.01057   0.02935  -0.06078
       y     0.02935   4.20815   0.00973
       z    -0.06078   0.00973   3.18120
--------------------------------------------------------------------------------

  High frequency dielectric constant tensor : 

-------------------------------------------------------------------------------
              x         y         z
-------------------------------------------------------------------------------
       x     1.68254   0.00052  -0.00164
       y     0.00052   1.68809  -0.00028
       z    -0.00164  -0.00028   1.62350
-------------------------------------------------------------------------------

  Static refractive indices : 

-------------------------------------------------------------------------------
    1 =    1.78231      2 =    2.00271      3 =    2.05242
-------------------------------------------------------------------------------

  High frequency refractive indices : 

-------------------------------------------------------------------------------
    1 =    1.27415      2 =    1.29712      3 =    1.29928
-------------------------------------------------------------------------------


  Time to end of optimisation =       9.4502 seconds


  Peak dynamic memory used =       5.01 MB 


  Timing analysis for GULP :

--------------------------------------------------------------------------------
  Task / Subroutine                                          Time (Seconds)
--------------------------------------------------------------------------------
  Calculation of reciprocal space energy and derivatives          0.5433
  Calculation of real space energy and derivatives                5.8800
  Calculation of three-body energy and derivatives                0.5754
  Calculation and manipulation of Hessian matrix                  2.7244
  Calculation of matrix inversion                                 0.0339
  Global summation overhead                                       0.0002
--------------------------------------------------------------------------------
  Total CPU time                                                  9.4503
--------------------------------------------------------------------------------


  Dump file written as c00246.vasp.grs
  CIF file written as c00246.vasp.cif


  Job Finished at 12:11.18  7th October    2025                               

