********************************************************************************
*                       GENERAL UTILITY LATTICE PROGRAM                        *
*                                 Julian Gale                                  *
*                       Curtin Institute for Computation                       *
*                    School of Molecular and Life Sciences                     *
*                    Curtin University, Western Australia                      *
********************************************************************************
* Version = 6.1.2 * Last modified =   3rd November 2022                        *
********************************************************************************
*  optimise     - perform optimisation run                                     *
*  conp         - constant pressure calculation                                *
*  property     - calculate properties for final geometry                      *
********************************************************************************

  Job Started  at 12:05.44  7th October    2025                               

  Number of CPUs =     1


  Total number of configurations input =      1

********************************************************************************
*  Input for Configuration =   1 : c00219.vasp                                 *
********************************************************************************

  Formula = Ge3Si21O48                                                  

  Number of irreducible atoms/shells =     120


  Total number atoms/shells =     120

  Dimensionality = 3               :  Bulk   



  Cartesian lattice vectors (Angstroms) :

       17.182800    0.000000    0.000000
        0.000000    7.513760    0.000000
        0.000000    0.000000   10.447700

  Cell parameters (Angstroms/Degrees):

  a =      17.1828    alpha =  90.0000
  b =       7.5138    beta  =  90.0000
  c =      10.4477    gamma =  90.0000

  Initial cell volume =        1348.875752 Angs**3

  Temperature of configuration =   0.00     K 

  Pressure of configuration =         0.000 GPa 

  Fractional coordinates of asymmetric unit :

--------------------------------------------------------------------------------
   No.  Atomic       x           y          z         Charge      Occupancy
        Label      (Frac)      (Frac)     (Frac)        (e)         (Frac)  
--------------------------------------------------------------------------------
      1 Ge    c    0.160190    0.293910    0.273440     4.00000    1.000000    
      2 Ge    c    0.839810 *  0.706090 *  0.726560 *   4.00000    1.000000    
      3 Ge    c    0.839340 *  0.705910 *  0.017440 *   4.00000    1.000000    
      4 Si    c    0.052090 *  0.000000 *  0.372270 *   4.00000    1.000000    
      5 Si    c    0.447910 *  0.000000 *  0.372270 *   4.00000    1.000000    
      6 Si    c    0.947910 *  0.000000 *  0.627730 *   4.00000    1.000000    
      7 Si    c    0.552090 *  0.000000 *  0.627730 *   4.00000    1.000000    
      8 Si    c    0.556730 *  0.000000 *  0.122130 *   4.00000    1.000000    
      9 Si    c    0.943270 *  0.000000 *  0.122130 *   4.00000    1.000000    
     10 Si    c    0.443270 *  0.000000 *  0.877870 *   4.00000    1.000000    
     11 Si    c    0.056730 *  0.000000 *  0.877870 *   4.00000    1.000000    
     12 Si    c    0.339810 *  0.706090 *  0.273440 *   4.00000    1.000000    
     13 Si    c    0.839810 *  0.293910 *  0.726560 *   4.00000    1.000000    
     14 Si    c    0.660190 *  0.706090 *  0.726560 *   4.00000    1.000000    
     15 Si    c    0.660190 *  0.293910 *  0.726560 *   4.00000    1.000000    
     16 Si    c    0.160190 *  0.706090 *  0.273440 *   4.00000    1.000000    
     17 Si    c    0.339810 *  0.293910 *  0.273440 *   4.00000    1.000000    
     18 Si    c    0.660660 *  0.294090 *  0.017440 *   4.00000    1.000000    
     19 Si    c    0.339340 *  0.294090 *  0.982560 *   4.00000    1.000000    
     20 Si    c    0.160660 *  0.705910 *  0.982560 *   4.00000    1.000000    
     21 Si    c    0.339340 *  0.705910 *  0.982560 *   4.00000    1.000000    
     22 Si    c    0.160660 *  0.294090 *  0.982560 *   4.00000    1.000000    
     23 Si    c    0.660660 *  0.705910 *  0.017440 *   4.00000    1.000000    
     24 Si    c    0.839340 *  0.294090 *  0.017440 *   4.00000    1.000000    
     25 O3    c    0.106570 *  0.174340 *  0.366200 *   1.33043    1.000000    
     26 O2    c    0.393430 *  0.825660 *  0.366200 *   0.87073    1.000000    
     27 O2    c    0.893430 *  0.174340 *  0.633800 *   0.87073    1.000000    
     28 O2    c    0.606570 *  0.825660 *  0.633800 *   0.87073    1.000000    
     29 O3    c    0.893430 *  0.825660 *  0.633800 *   1.33043    1.000000    
     30 O2    c    0.606570 *  0.174340 *  0.633800 *   0.87073    1.000000    
     31 O2    c    0.106570 *  0.825660 *  0.366200 *   0.87073    1.000000    
     32 O2    c    0.393430 *  0.174340 *  0.366200 *   0.87073    1.000000    
     33 O2    c    0.000000 *  0.000000 *  0.500000 *   0.87073    1.000000    
     34 O2    c    0.500000 *  0.000000 *  0.500000 *   0.87073    1.000000    
     35 O2    c    0.994520 *  0.000000 *  0.250840 *   0.87073    1.000000    
     36 O2    c    0.505480 *  0.000000 *  0.250840 *   0.87073    1.000000    
     37 O2    c    0.005480 *  0.000000 *  0.749160 *   0.87073    1.000000    
     38 O2    c    0.494520 *  0.000000 *  0.749160 *   0.87073    1.000000    
     39 O2    c    0.610230 *  0.175520 *  0.115390 *   0.87073    1.000000    
     40 O3    c    0.889770 *  0.824480 *  0.115390 *   1.33043    1.000000    
     41 O2    c    0.389770 *  0.175520 *  0.884610 *   0.87073    1.000000    
     42 O2    c    0.110230 *  0.824480 *  0.884610 *   0.87073    1.000000    
     43 O2    c    0.389770 *  0.824480 *  0.884610 *   0.87073    1.000000    
     44 O2    c    0.110230 *  0.175520 *  0.884610 *   0.87073    1.000000    
     45 O2    c    0.610230 *  0.824480 *  0.115390 *   0.87073    1.000000    
     46 O2    c    0.889770 *  0.175520 *  0.115390 *   0.87073    1.000000    
     47 O2    c    0.500000 *  0.000000 *  0.000000 *   0.87073    1.000000    
     48 O2    c    0.000000 *  0.000000 *  0.000000 *   0.87073    1.000000    
     49 O3    c    0.151750 *  0.500000 *  0.313330 *   1.33043    1.000000    
     50 O2    c    0.348250 *  0.500000 *  0.313330 *   0.87073    1.000000    
     51 O3    c    0.848250 *  0.500000 *  0.686670 *   1.33043    1.000000    
     52 O2    c    0.651750 *  0.500000 *  0.686670 *   0.87073    1.000000    
     53 O3    c    0.250000 *  0.234950 *  0.285720 *   1.33043    1.000000    
     54 O2    c    0.250000 *  0.765050 *  0.285720 *   0.87073    1.000000    
     55 O2    c    0.750000 *  0.234950 *  0.714280 *   0.87073    1.000000    
     56 O3    c    0.750000 *  0.765050 *  0.714280 *   1.33043    1.000000    
     57 O3    c    0.131410 *  0.268650 *  0.127790 *   1.33043    1.000000    
     58 O2    c    0.368590 *  0.731350 *  0.127790 *   0.87073    1.000000    
     59 O2    c    0.868590 *  0.268650 *  0.872210 *   0.87073    1.000000    
     60 O2    c    0.631410 *  0.731350 *  0.872210 *   0.87073    1.000000    
     61 O1    c    0.868590 *  0.731350 *  0.872210 *   1.73396    1.000000    
     62 O2    c    0.631410 *  0.268650 *  0.872210 *   0.87073    1.000000    
     63 O2    c    0.131410 *  0.731350 *  0.127790 *   0.87073    1.000000    
     64 O2    c    0.368590 *  0.268650 *  0.127790 *   0.87073    1.000000    
     65 O2    c    0.653920 *  0.500000 *  0.058200 *   0.87073    1.000000    
     66 O3    c    0.846080 *  0.500000 *  0.058200 *   1.33043    1.000000    
     67 O2    c    0.346080 *  0.500000 *  0.941800 *   0.87073    1.000000    
     68 O2    c    0.153920 *  0.500000 *  0.941800 *   0.87073    1.000000    
     69 O2    c    0.750000 *  0.231060 *  0.027050 *   0.87073    1.000000    
     70 O3    c    0.750000 *  0.768940 *  0.027050 *   1.33043    1.000000    
     71 O2    c    0.250000 *  0.231060 *  0.972950 *   0.87073    1.000000    
     72 O2    c    0.250000 *  0.768940 *  0.972950 *   0.87073    1.000000    
     73 O3    s    0.106570 *  0.174340 *  0.366200 *  -3.33043    1.000000    
     74 O2    s    0.393430 *  0.825660 *  0.366200 *  -2.87073    1.000000    
     75 O2    s    0.893430 *  0.174340 *  0.633800 *  -2.87073    1.000000    
     76 O2    s    0.606570 *  0.825660 *  0.633800 *  -2.87073    1.000000    
     77 O3    s    0.893430 *  0.825660 *  0.633800 *  -3.33043    1.000000    
     78 O2    s    0.606570 *  0.174340 *  0.633800 *  -2.87073    1.000000    
     79 O2    s    0.106570 *  0.825660 *  0.366200 *  -2.87073    1.000000    
     80 O2    s    0.393430 *  0.174340 *  0.366200 *  -2.87073    1.000000    
     81 O2    s    0.000000 *  0.000000 *  0.500000 *  -2.87073    1.000000    
     82 O2    s    0.500000 *  0.000000 *  0.500000 *  -2.87073    1.000000    
     83 O2    s    0.994520 *  0.000000 *  0.250840 *  -2.87073    1.000000    
     84 O2    s    0.505480 *  0.000000 *  0.250840 *  -2.87073    1.000000    
     85 O2    s    0.005480 *  0.000000 *  0.749160 *  -2.87073    1.000000    
     86 O2    s    0.494520 *  0.000000 *  0.749160 *  -2.87073    1.000000    
     87 O2    s    0.610230 *  0.175520 *  0.115390 *  -2.87073    1.000000    
     88 O3    s    0.889770 *  0.824480 *  0.115390 *  -3.33043    1.000000    
     89 O2    s    0.389770 *  0.175520 *  0.884610 *  -2.87073    1.000000    
     90 O2    s    0.110230 *  0.824480 *  0.884610 *  -2.87073    1.000000    
     91 O2    s    0.389770 *  0.824480 *  0.884610 *  -2.87073    1.000000    
     92 O2    s    0.110230 *  0.175520 *  0.884610 *  -2.87073    1.000000    
     93 O2    s    0.610230 *  0.824480 *  0.115390 *  -2.87073    1.000000    
     94 O2    s    0.889770 *  0.175520 *  0.115390 *  -2.87073    1.000000    
     95 O2    s    0.500000 *  0.000000 *  0.000000 *  -2.87073    1.000000    
     96 O2    s    0.000000 *  0.000000 *  0.000000 *  -2.87073    1.000000    
     97 O3    s    0.151750 *  0.500000 *  0.313330 *  -3.33043    1.000000    
     98 O2    s    0.348250 *  0.500000 *  0.313330 *  -2.87073    1.000000    
     99 O3    s    0.848250 *  0.500000 *  0.686670 *  -3.33043    1.000000    
    100 O2    s    0.651750 *  0.500000 *  0.686670 *  -2.87073    1.000000    
    101 O3    s    0.250000 *  0.234950 *  0.285720 *  -3.33043    1.000000    
    102 O2    s    0.250000 *  0.765050 *  0.285720 *  -2.87073    1.000000    
    103 O2    s    0.750000 *  0.234950 *  0.714280 *  -2.87073    1.000000    
    104 O3    s    0.750000 *  0.765050 *  0.714280 *  -3.33043    1.000000    
    105 O3    s    0.131410 *  0.268650 *  0.127790 *  -3.33043    1.000000    
    106 O2    s    0.368590 *  0.731350 *  0.127790 *  -2.87073    1.000000    
    107 O2    s    0.868590 *  0.268650 *  0.872210 *  -2.87073    1.000000    
    108 O2    s    0.631410 *  0.731350 *  0.872210 *  -2.87073    1.000000    
    109 O1    s    0.868590 *  0.731350 *  0.872210 *  -3.73396    1.000000    
    110 O2    s    0.631410 *  0.268650 *  0.872210 *  -2.87073    1.000000    
    111 O2    s    0.131410 *  0.731350 *  0.127790 *  -2.87073    1.000000    
    112 O2    s    0.368590 *  0.268650 *  0.127790 *  -2.87073    1.000000    
    113 O2    s    0.653920 *  0.500000 *  0.058200 *  -2.87073    1.000000    
    114 O3    s    0.846080 *  0.500000 *  0.058200 *  -3.33043    1.000000    
    115 O2    s    0.346080 *  0.500000 *  0.941800 *  -2.87073    1.000000    
    116 O2    s    0.153920 *  0.500000 *  0.941800 *  -2.87073    1.000000    
    117 O2    s    0.750000 *  0.231060 *  0.027050 *  -2.87073    1.000000    
    118 O3    s    0.750000 *  0.768940 *  0.027050 *  -3.33043    1.000000    
    119 O2    s    0.250000 *  0.231060 *  0.972950 *  -2.87073    1.000000    
    120 O2    s    0.250000 *  0.768940 *  0.972950 *  -2.87073    1.000000    
--------------------------------------------------------------------------------



********************************************************************************
*  General input information                                                   *
********************************************************************************

  Species output for all configurations : 

--------------------------------------------------------------------------------
  Species    Type    Atomic    Atomic    Charge       Radii (Angs)     Library
                     Number     Mass       (e)     Cova   Ionic  VDW   Symbol
--------------------------------------------------------------------------------
    Ge       Core       32      72.61   4.000000   1.170  0.000  1.750 Ge       
    Si       Core       14      28.09   4.000000   1.200  0.000  2.100 Si       
    O1       Core        8      16.00   1.733957   0.730  0.000  1.360 O1       
    O2       Core        8      16.00   0.870733   0.730  0.000  1.360 O2       
    O3       Core        8      16.00   1.330431   0.730  0.000  1.360 O3       
    O1       Shell       8       0.00  -3.733957   0.730  0.000  0.000 O1       
    O2       Shell       8       0.00  -2.870733   0.730  0.000  0.000 O2       
    O3       Shell       8       0.00  -3.330431   0.730  0.000  0.000 O3       
--------------------------------------------------------------------------------


  Lattice summation method               =    Ewald          (3-D)
                                         =    Parry          (2-D)
                                         =    Saunders et al (1-D)
  Accuracy factor for lattice sums       =   12.000


  Analytic derivatives to be used

  Time limit = Infinity

  Maximum range for interatomic potentials =    100000.000000 Angstroms

  General interatomic potentials :

--------------------------------------------------------------------------------
Atom  Types   Potential      Parameter       Value         Units   Cutoffs(Ang)
  1     2                                                            Min /  Max 
--------------------------------------------------------------------------------
Si   c O1   s Buckingham    Buckingham A     1315.2478    eV        0.000 16.000
                            Buckingham rho  0.31775900    Ang       
                            Buckingham C     10.141118    eV*Ang^6  
--------------------------------------------------------------------------------
Si   c O2   s Buckingham    Buckingham A     1315.2478    eV        0.000 16.000
                            Buckingham rho  0.31775900    Ang       
                            Buckingham C     10.141118    eV*Ang^6  
--------------------------------------------------------------------------------
Si   c O3   s Buckingham    Buckingham A     1315.2478    eV        0.000 16.000
                            Buckingham rho  0.31775900    Ang       
                            Buckingham C     10.141118    eV*Ang^6  
--------------------------------------------------------------------------------
Ge   c O1   s Buckingham    Buckingham A     1497.3996    eV        0.000 16.000
                            Buckingham rho  0.32564600    Ang       
                            Buckingham C     16.808599    eV*Ang^6  
--------------------------------------------------------------------------------
Ge   c O2   s Buckingham    Buckingham A     1497.3996    eV        0.000 16.000
                            Buckingham rho  0.32564600    Ang       
                            Buckingham C     16.808599    eV*Ang^6  
--------------------------------------------------------------------------------
Ge   c O3   s Buckingham    Buckingham A     1497.3996    eV        0.000 16.000
                            Buckingham rho  0.32564600    Ang       
                            Buckingham C     16.808599    eV*Ang^6  
--------------------------------------------------------------------------------
O1   s O1   s Buckingham    Buckingham A     22764.000    eV        0.000 16.000
                            Buckingham rho  0.14900000    Ang       
                            Buckingham C     10.937044    eV*Ang^6  
--------------------------------------------------------------------------------
O1   s O2   s Buckingham    Buckingham A     22764.000    eV        0.000 16.000
                            Buckingham rho  0.14900000    Ang       
                            Buckingham C     10.937044    eV*Ang^6  
--------------------------------------------------------------------------------
O1   s O3   s Buckingham    Buckingham A     22764.000    eV        0.000 16.000
                            Buckingham rho  0.14900000    Ang       
                            Buckingham C     10.937044    eV*Ang^6  
--------------------------------------------------------------------------------
O2   s O2   s Buckingham    Buckingham A     22764.000    eV        0.000 16.000
                            Buckingham rho  0.14900000    Ang       
                            Buckingham C     10.937044    eV*Ang^6  
--------------------------------------------------------------------------------
O2   s O3   s Buckingham    Buckingham A     22764.000    eV        0.000 16.000
                            Buckingham rho  0.14900000    Ang       
                            Buckingham C     10.937044    eV*Ang^6  
--------------------------------------------------------------------------------
O3   s O3   s Buckingham    Buckingham A     22764.000    eV        0.000 16.000
                            Buckingham rho  0.14900000    Ang       
                            Buckingham C     10.937044    eV*Ang^6  
--------------------------------------------------------------------------------
O1   c O1   s Spring (c-s)  Spring k 2       180.31577    eV*Ang^-2 0.000  0.800
                            Spring k 4       0.0000000    eV*Ang^-4 
--------------------------------------------------------------------------------
O2   c O2   s Spring (c-s)  Spring k 2       75.969800    eV*Ang^-2 0.000  0.800
                            Spring k 4       0.0000000    eV*Ang^-4 
--------------------------------------------------------------------------------
O3   c O3   s Spring (c-s)  Spring k 2       128.14270    eV*Ang^-2 0.000  0.800
                            Spring k 4       0.0000000    eV*Ang^-4 
--------------------------------------------------------------------------------

  General Three-body potentials :

--------------------------------------------------------------------------------
  Atoms       Potential      Parameter       Value         Units   Cutoffs(Ang)
  1 / 2 / 3                                                          Min /  Max 
--------------------------------------------------------------------------------
Si    core    Harmonic      Three-body cnst  1.2614000    eV*rad^-2 0.000  1.900
O1    shel                  Three-body angl  109.47000    degrees   0.000  1.900
O1    shel                  Three-body k4    0.0000000    eV*rad^-4 0.000  3.500
                            Three-body k3    0.0000000    eV*rad^-3 
--------------------------------------------------------------------------------
Si    core    Harmonic      Three-body cnst  1.2614000    eV*rad^-2 0.000  1.900
O1    shel                  Three-body angl  109.47000    degrees   0.000  1.900
õ(1   shel                  Three-body k4    0.0000000    eV*rad^-4 0.000  3.500
                            Three-body k3    0.0000000    eV*rad^-3 
--------------------------------------------------------------------------------
Si    core    Harmonic      Three-body cnst  1.2614000    eV*rad^-2 0.000  1.900
õ(1   shel                  Three-body angl  109.47000    degrees   0.000  1.900
õ(1   shel                  Three-body k4    0.0000000    eV*rad^-4 0.000  3.500
                            Three-body k3    0.0000000    eV*rad^-3 
--------------------------------------------------------------------------------
Si    core    Harmonic      Three-body cnst  1.2614000    eV*rad^-2 0.000  1.900
O1    shel                  Three-body angl  109.47000    degrees   0.000  1.900
O2    shel                  Three-body k4    0.0000000    eV*rad^-4 0.000  3.500
                            Three-body k3    0.0000000    eV*rad^-3 
--------------------------------------------------------------------------------
Si    core    Harmonic      Three-body cnst  1.2614000    eV*rad^-2 0.000  1.900
O1    shel                  Three-body angl  109.47000    degrees   0.000  1.900
õ(2   shel                  Three-body k4    0.0000000    eV*rad^-4 0.000  3.500
                            Three-body k3    0.0000000    eV*rad^-3 
--------------------------------------------------------------------------------
Si    core    Harmonic      Three-body cnst  1.2614000    eV*rad^-2 0.000  1.900
O2    shel                  Three-body angl  109.47000    degrees   0.000  1.900
õ(1   shel                  Three-body k4    0.0000000    eV*rad^-4 0.000  3.500
                            Three-body k3    0.0000000    eV*rad^-3 
--------------------------------------------------------------------------------
Si    core    Harmonic      Three-body cnst  1.2614000    eV*rad^-2 0.000  1.900
õ(1   shel                  Three-body angl  109.47000    degrees   0.000  1.900
õ(2   shel                  Three-body k4    0.0000000    eV*rad^-4 0.000  3.500
                            Three-body k3    0.0000000    eV*rad^-3 
--------------------------------------------------------------------------------
Si    core    Harmonic      Three-body cnst  1.2614000    eV*rad^-2 0.000  1.900
O2    shel                  Three-body angl  109.47000    degrees   0.000  1.900
O2    shel                  Three-body k4    0.0000000    eV*rad^-4 0.000  3.500
                            Three-body k3    0.0000000    eV*rad^-3 
--------------------------------------------------------------------------------
Si    core    Harmonic      Three-body cnst  1.2614000    eV*rad^-2 0.000  1.900
O2    shel                  Three-body angl  109.47000    degrees   0.000  1.900
õ(2   shel                  Three-body k4    0.0000000    eV*rad^-4 0.000  3.500
                            Three-body k3    0.0000000    eV*rad^-3 
--------------------------------------------------------------------------------
Si    core    Harmonic      Three-body cnst  1.2614000    eV*rad^-2 0.000  1.900
õ(2   shel                  Three-body angl  109.47000    degrees   0.000  1.900
õ(2   shel                  Three-body k4    0.0000000    eV*rad^-4 0.000  3.500
                            Three-body k3    0.0000000    eV*rad^-3 
--------------------------------------------------------------------------------

********************************************************************************
*  Output for configuration   1 : c00219.vasp                                  *
********************************************************************************


  Components of energy : 

--------------------------------------------------------------------------------
  Interatomic potentials     =         760.29124375 eV    
  Three-body potentials      =           0.01604829 eV    
  Monopole - monopole (real) =       -2676.00317478 eV    
  Monopole - monopole (recip)=       -1115.35404472 eV    
  Monopole - monopole (total)=       -3791.35721950 eV    
--------------------------------------------------------------------------------
  Total lattice energy       =       -3031.04992747 eV    
--------------------------------------------------------------------------------
  Total lattice energy       =         -292449.9842 kJ/(mole unit cells)
--------------------------------------------------------------------------------


  Number of variables =      363

  Maximum number of calculations  =          1000
  Maximum Hessian update interval =            10
  Maximum step size               =   0.100000000
  Maximum parameter tolerance     =   0.000010000
  Maximum function  tolerance     =   0.000010000
  Maximum gradient  tolerance     =   0.001000000
  Maximum gradient  component     =   0.010000000

  Symmetry not applied to optimisation

  Cell parameters to be optimised using strains

  Newton-Raphson optimiser to be used

  BFGS hessian update to be used

  Lower half triangular hessian to be used

  Minimiser to switch to RFO
  When gradient norm is less than     0.050000

  Dumpfile to be written after every cycle

  Start of bulk optimisation :

  Cycle:      0 Energy:     -3031.049927  Gnorm:      4.457181  CPU:    0.123
  ** Hessian calculated **
  Cycle:      1 Energy:     -3049.466022  Gnorm:      3.140524  CPU:    0.328
  ** Hessian calculated **
  Cycle:      2 Energy:     -3060.587971  Gnorm:      1.938698  CPU:    0.630
  ** Hessian calculated **
  Cycle:      3 Energy:     -3066.390156  Gnorm:      0.424557  CPU:    0.848
  Cycle:      4 Energy:     -3066.915290  Gnorm:      0.216457  CPU:    0.963
  Cycle:      5 Energy:     -3067.090000  Gnorm:      0.155103  CPU:    1.097
  Cycle:      6 Energy:     -3067.217290  Gnorm:      0.124456  CPU:    1.209
  Cycle:      7 Energy:     -3067.339402  Gnorm:      0.105977  CPU:    1.342
  Cycle:      8 Energy:     -3067.411238  Gnorm:      0.086524  CPU:    1.455
  Cycle:      9 Energy:     -3067.468408  Gnorm:      0.064952  CPU:    1.587
  Cycle:     10 Energy:     -3067.495657  Gnorm:      0.050514  CPU:    1.699
  Cycle:     11 Energy:     -3067.513301  Gnorm:      0.038390  CPU:    1.812
  ** Hessian has required structure
  Cycle:     12 Energy:     -3067.520989  Gnorm:      0.067139  CPU:    1.969
  ** Hessian has wrong structure
  ** Imaginary eigenvectors =   2
  ** Hessian has wrong structure
  ** Imaginary eigenvectors =   2
  Cycle:     13 Energy:     -3067.526888  Gnorm:      0.067141  CPU:    2.606
  ** Hessian has wrong structure
  ** Imaginary eigenvectors =   2
  ** Hessian has wrong structure
  ** Imaginary eigenvectors =   2
  Cycle:     14 Energy:     -3067.537323  Gnorm:      0.067161  CPU:    3.244
  ** Hessian has wrong structure
  ** Imaginary eigenvectors =   2
  ** Hessian has wrong structure
  ** Imaginary eigenvectors =   1
  Cycle:     15 Energy:     -3067.554684  Gnorm:      0.067144  CPU:    3.773
  ** Hessian has wrong structure
  ** Imaginary eigenvectors =   1
  ** Hessian has wrong structure
  ** Imaginary eigenvectors =   1
  Cycle:     16 Energy:     -3067.593899  Gnorm:      0.066096  CPU:    4.304
  ** Hessian has wrong structure
  ** Imaginary eigenvectors =   1
  Cycle:     17 Energy:     -3067.854389  Gnorm:      0.030468  CPU:    4.661
  ** Hessian has wrong structure
  ** Imaginary eigenvectors =   3
  ** Hessian has wrong structure
  ** Imaginary eigenvectors =   2
  Cycle:     18 Energy:     -3067.861995  Gnorm:      0.029758  CPU:    5.280
  ** Hessian has wrong structure
  ** Imaginary eigenvectors =   1
  ** Hessian has required structure
  Cycle:     19 Energy:     -3067.983347  Gnorm:      0.023148  CPU:    5.889
  ** Hessian has required structure
  Cycle:     20 Energy:     -3068.082732  Gnorm:      0.029075  CPU:    6.094
  ** Hessian has required structure
  Cycle:     21 Energy:     -3068.130382  Gnorm:      0.025380  CPU:    6.280
  ** Hessian has required structure
  Cycle:     22 Energy:     -3068.159559  Gnorm:      0.039057  CPU:    6.464
  ** Hessian has required structure
  Cycle:     23 Energy:     -3068.187780  Gnorm:      0.024332  CPU:    6.670
  ** Hessian has required structure
  Cycle:     24 Energy:     -3068.205619  Gnorm:      0.020661  CPU:    6.878
  ** Hessian has required structure
  Cycle:     25 Energy:     -3068.222573  Gnorm:      0.015931  CPU:    7.060
  ** Hessian has required structure
  Cycle:     26 Energy:     -3068.230726  Gnorm:      0.015569  CPU:    7.224
  ** Hessian has required structure
  Cycle:     27 Energy:     -3068.237712  Gnorm:      0.013772  CPU:    7.408
  ** Hessian has required structure
  Cycle:     28 Energy:     -3068.240958  Gnorm:      0.013578  CPU:    7.571
  ** Hessian has required structure
  Cycle:     29 Energy:     -3068.247758  Gnorm:      0.009038  CPU:    7.874
  ** Hessian has required structure
  Cycle:     30 Energy:     -3068.250388  Gnorm:      0.005597  CPU:    8.058
  ** Hessian has required structure
  Cycle:     31 Energy:     -3068.251485  Gnorm:      0.002523  CPU:    8.265
  ** Hessian has required structure
  Cycle:     32 Energy:     -3068.251747  Gnorm:      0.001813  CPU:    8.464
  ** Hessian has required structure
  Cycle:     33 Energy:     -3068.251857  Gnorm:      0.000735  CPU:    8.664
  ** Hessian has required structure
  Cycle:     34 Energy:     -3068.251889  Gnorm:      0.000488  CPU:    8.862
  ** Hessian has required structure
  Cycle:     35 Energy:     -3068.251900  Gnorm:      0.000222  CPU:    9.083
  ** Hessian has required structure
  Cycle:     36 Energy:     -3068.251903  Gnorm:      0.000159  CPU:    9.280
  ** Hessian has required structure
  Cycle:     37 Energy:     -3068.228733  Gnorm:      0.047557  CPU:    9.521
  ** Hessian has required structure
  Cycle:     38 Energy:     -3068.232812  Gnorm:      0.043156  CPU:    9.842
  ** Hessian has required structure
  Cycle:     39 Energy:     -3068.238847  Gnorm:      0.035669  CPU:   10.082
  ** Hessian has required structure
  Cycle:     40 Energy:     -3068.244961  Gnorm:      0.025978  CPU:   10.301
  ** Hessian has required structure
  Cycle:     41 Energy:     -3068.250065  Gnorm:      0.013324  CPU:   10.503
  ** Hessian has required structure
  Cycle:     42 Energy:     -3068.251441  Gnorm:      0.006646  CPU:   10.707
  ** Hessian has required structure
  Cycle:     43 Energy:     -3068.251787  Gnorm:      0.003318  CPU:   10.913
  ** Hessian has required structure
  Cycle:     44 Energy:     -3068.251862  Gnorm:      0.001990  CPU:   11.097
  ** Hessian has required structure
  Cycle:     45 Energy:     -3068.251893  Gnorm:      0.000995  CPU:   11.299
  ** Hessian has required structure
  Cycle:     46 Energy:     -3068.251900  Gnorm:      0.000497  CPU:   11.498
  ** Hessian has required structure
  Cycle:     47 Energy:     -3068.251902  Gnorm:      0.000348  CPU:   11.654
  ** Hessian has required structure
  Cycle:     48 Energy:     -3068.251902  Gnorm:      0.000244  CPU:   11.907
  ** Hessian has required structure
  Cycle:     49 Energy:     -3068.251902  Gnorm:      0.000171  CPU:   12.064
  ** Hessian has required structure
  Cycle:     50 Energy:     -3068.251903  Gnorm:      0.000136  CPU:   12.221
  ** Hessian has required structure
  Cycle:     51 Energy:     -3068.251903  Gnorm:      0.000128  CPU:   12.380
  ** Hessian has required structure
  Cycle:     52 Energy:     -3068.251903  Gnorm:      0.000124  CPU:   12.547
  ** Hessian has required structure
  Cycle:     53 Energy:     -3068.251903  Gnorm:      0.000123  CPU:   12.705
  ** Hessian has required structure
  Cycle:     54 Energy:     -3068.251903  Gnorm:      0.000122  CPU:   12.863
  ** Hessian has required structure
  Cycle:     55 Energy:     -3068.251903  Gnorm:      0.000122  CPU:   13.021
  ** Hessian has required structure
  Cycle:     56 Energy:     -3068.251902  Gnorm:      0.000100  CPU:   13.238
  ** Hessian has required structure
  Cycle:     57 Energy:     -3068.251902  Gnorm:      0.000070  CPU:   13.489
  ** Hessian has required structure


  **** Optimisation achieved ****


  Final energy =   -3068.25190216 eV      
  Final Gnorm  =       0.00004910

  Components of energy : 

--------------------------------------------------------------------------------
  Interatomic potentials     =         815.02795430 eV    
  Three-body potentials      =           0.20090901 eV    
  Monopole - monopole (real) =       -2204.25557834 eV    
  Monopole - monopole (recip)=       -1679.22518714 eV    
  Monopole - monopole (total)=       -3883.48076548 eV    
--------------------------------------------------------------------------------
  Total lattice energy       =       -3068.25190216 eV    
--------------------------------------------------------------------------------
  Total lattice energy       =         -296039.4060 kJ/(mole unit cells)
--------------------------------------------------------------------------------

  Final fractional coordinates of atoms :

--------------------------------------------------------------------------------
   No.  Atomic        x           y          z          Radius
        Label       (Frac)      (Frac)     (Frac)       (Angs) 
--------------------------------------------------------------------------------
     1  Ge    c     0.160190    0.293910    0.273440    0.000000
     2  Ge    c     0.840246    0.670285    0.698362    0.000000
     3  Ge    c     0.847392    0.665401    0.018080    0.000000
     4  Si    c     0.045070    0.009882    0.355246    0.000000
     5  Si    c     0.448828    0.003363    0.346276    0.000000
     6  Si    c     0.943468    0.973162    0.606504    0.000000
     7  Si    c     0.540777    0.996808    0.614278    0.000000
     8  Si    c     0.552339    0.995752    0.093749    0.000000
     9  Si    c     0.942568    0.982992    0.100836    0.000000
    10  Si    c     0.434516    0.994497    0.857248    0.000000
    11  Si    c     0.050251    0.995172    0.856991    0.000000
    12  Si    c     0.333099    0.716361    0.263022    0.000000
    13  Si    c     0.825669    0.259485    0.703969    0.000000
    14  Si    c     0.659550    0.701100    0.705626    0.000000
    15  Si    c     0.646501    0.298717    0.705761    0.000000
    16  Si    c     0.151902    0.705259    0.265862    0.000000
    17  Si    c     0.342920    0.312405    0.270013    0.000000
    18  Si    c     0.647715    0.307096    0.010070    0.000000
    19  Si    c     0.337240    0.306853    0.962906    0.000000
    20  Si    c     0.148634    0.687677    0.962101    0.000000
    21  Si    c     0.328986    0.705047    0.958536    0.000000
    22  Si    c     0.157662    0.285079    0.962749    0.000000
    23  Si    c     0.666004    0.700595    0.015158    0.000000
    24  Si    c     0.827383    0.262920    0.011440    0.000000
    25  O3    c     0.103032    0.170545    0.372134    0.000000
    26  O2    c     0.383846    0.852124    0.347423    0.000000
    27  O2    c     0.872037    0.110774    0.624367    0.000000
    28  O2    c     0.599595    0.834591    0.637546    0.000000
    29  O3    c     0.907048    0.782427    0.607992    0.000000
    30  O2    c     0.586585    0.179592    0.624096    0.000000
    31  O2    c     0.098006    0.833385    0.351267    0.000000
    32  O2    c     0.406236    0.193621    0.347251    0.000000
    33  O2    c     0.982976    0.003043    0.468566    0.000000
    34  O2    c     0.504624    0.982176    0.470531    0.000000
    35  O2    c     0.997241    0.037369    0.220865    0.000000
    36  O2    c     0.501120    0.978510    0.220046    0.000000
    37  O2    c     0.010327    0.002261    0.715744    0.000000
    38  O2    c     0.469788    0.991436    0.714092    0.000000
    39  O2    c     0.591491    0.187290    0.094432    0.000000
    40  O3    c     0.913834    0.785303    0.109948    0.000000
    41  O2    c     0.392584    0.181865    0.878593    0.000000
    42  O2    c     0.093407    0.806523    0.870812    0.000000
    43  O2    c     0.373006    0.837470    0.865829    0.000000
    44  O2    c     0.110864    0.154382    0.867353    0.000000
    45  O2    c     0.618420    0.845388    0.095973    0.000000
    46  O2    c     0.865699    0.108179    0.096709    0.000000
    47  O2    c     0.501942    0.963227    0.963490    0.000000
    48  O2    c     0.986272    0.019841    0.966788    0.000000
    49  O3    c     0.130910    0.508465    0.296221    0.000000
    50  O2    c     0.360822    0.517940    0.294067    0.000000
    51  O3    c     0.858561    0.448912    0.674555    0.000000
    52  O2    c     0.628450    0.503580    0.680689    0.000000
    53  O3    c     0.257115    0.271374    0.317889    0.000000
    54  O2    c     0.242676    0.740750    0.300228    0.000000
    55  O2    c     0.734391    0.252828    0.662062    0.000000
    56  O3    c     0.745243    0.717429    0.648890    0.000000
    57  O3    c     0.148881    0.229997    0.111874    0.000000
    58  O2    c     0.342937    0.757882    0.109845    0.000000
    59  O2    c     0.832963    0.219026    0.857649    0.000000
    60  O2    c     0.668174    0.741414    0.860550    0.000000
    61  O1    c     0.856179    0.725467    0.858654    0.000000
    62  O2    c     0.635918    0.255109    0.858169    0.000000
    63  O2    c     0.136062    0.745099    0.112397    0.000000
    64  O2    c     0.348364    0.265911    0.115962    0.000000
    65  O2    c     0.626167    0.510836    0.035330    0.000000
    66  O3    c     0.869225    0.445664    0.039291    0.000000
    67  O2    c     0.360083    0.507108    0.933468    0.000000
    68  O2    c     0.125672    0.484373    0.943366    0.000000
    69  O2    c     0.737299    0.275685    0.052517    0.000000
    70  O3    c     0.753152    0.700196    0.069805    0.000000
    71  O2    c     0.247855    0.274371    0.922147    0.000000
    72  O2    c     0.237643    0.716732    0.922843    0.000000
    73  O3    s     0.101962    0.164633    0.362180    0.000000
    74  O2    s     0.385075    0.853072    0.337810    0.000000
    75  O2    s     0.874469    0.112700    0.631383    0.000000
    76  O2    s     0.599930    0.837428    0.642756    0.000000
    77  O3    s     0.905313    0.792746    0.615172    0.000000
    78  O2    s     0.588335    0.173128    0.632182    0.000000
    79  O2    s     0.098368    0.837818    0.342180    0.000000
    80  O2    s     0.403859    0.186371    0.338783    0.000000
    81  O2    s     0.985715    0.000438    0.471154    0.000000
    82  O2    s     0.502276    0.986375    0.472688    0.000000
    83  O2    s     0.996204    0.028055    0.221746    0.000000
    84  O2    s     0.501181    0.983457    0.219490    0.000000
    85  O2    s     0.007563    0.998248    0.720032    0.000000
    86  O2    s     0.473634    0.992384    0.719440    0.000000
    87  O2    s     0.593504    0.180178    0.085066    0.000000
    88  O3    s     0.911458    0.795445    0.101823    0.000000
    89  O2    s     0.390868    0.175563    0.885926    0.000000
    90  O2    s     0.094990    0.813186    0.879574    0.000000
    91  O2    s     0.374690    0.839537    0.875413    0.000000
    92  O2    s     0.109501    0.151652    0.876842    0.000000
    93  O2    s     0.616465    0.845754    0.086572    0.000000
    94  O2    s     0.869507    0.112056    0.087706    0.000000
    95  O2    s     0.499929    0.970425    0.966015    0.000000
    96  O2    s     0.988766    0.013025    0.969014    0.000000
    97  O3    s     0.135563    0.511420    0.291136    0.000000
    98  O2    s     0.355966    0.517385    0.288197    0.000000
    99  O3    s     0.853732    0.447347    0.679438    0.000000
   100  O2    s     0.633628    0.502126    0.686001    0.000000
   101  O3    s     0.257882    0.277331    0.309451    0.000000
   102  O2    s     0.242811    0.734381    0.292584    0.000000
   103  O2    s     0.734575    0.258435    0.671101    0.000000
   104  O3    s     0.744161    0.712126    0.658423    0.000000
   105  O3    s     0.150667    0.240589    0.109929    0.000000
   106  O2    s     0.340402    0.747905    0.109879    0.000000
   107  O2    s     0.831536    0.228039    0.857580    0.000000
   108  O2    s     0.667052    0.732843    0.860545    0.000000
   109  O1    s     0.854263    0.716544    0.858591    0.000000
   110  O2    s     0.638298    0.265213    0.858156    0.000000
   111  O2    s     0.139011    0.735028    0.112284    0.000000
   112  O2    s     0.346606    0.275168    0.115632    0.000000
   113  O2    s     0.632526    0.508518    0.030537    0.000000
   114  O3    s     0.863345    0.445075    0.034865    0.000000
   115  O2    s     0.354347    0.506855    0.939285    0.000000
   116  O2    s     0.131416    0.485393    0.947372    0.000000
   117  O2    s     0.737250    0.277834    0.043423    0.000000
   118  O3    s     0.751844    0.697417    0.060006    0.000000
   119  O2    s     0.247908    0.279174    0.931004    0.000000
   120  O2    s     0.237852    0.712163    0.931113    0.000000
--------------------------------------------------------------------------------

  Final Cartesian lattice vectors (Angstroms) :

       17.156768    0.110300   -0.131013
        0.047778    7.624874   -0.036787
       -0.079815   -0.050350   10.228278


  Final cell parameters and derivatives :

--------------------------------------------------------------------------------
       a           17.157622 Angstrom     dE/de1(xx)     0.000283 eV/strain
       b            7.625112 Angstrom     dE/de2(yy)     0.000945 eV/strain
       c           10.228713 Angstrom     dE/de3(zz)    -0.009469 eV/strain
       alpha       90.561243 Degrees      dE/de4(yz)    -0.001525 eV/strain
       beta        90.886389 Degrees      dE/de5(xz)     0.001058 eV/strain
       gamma       89.270558 Degrees      dE/de6(xy)     0.000573 eV/strain
--------------------------------------------------------------------------------

  Primitive cell volume =          1337.880004 Angs**3

  Density of cell =      1.955770 g/cm**3

  Non-primitive cell volume =          1337.880004 Angs**3


  Final internal derivatives :

--------------------------------------------------------------------------------
   No.  Atomic          a             b             c           Radius
        Label          (eV)          (eV)          (eV)        (eV/Angs)
--------------------------------------------------------------------------------
      1 Ge    c       0.000000      0.000000      0.000000      0.000000
      2 Ge    c       0.001236      0.000061      0.002165      0.000000
      3 Ge    c       0.000348      0.000573     -0.001501      0.000000
      4 Si    c      -0.002846     -0.000578      0.000580      0.000000
      5 Si    c       0.003465     -0.000058     -0.000542      0.000000
      6 Si    c       0.002312      0.000776     -0.001166      0.000000
      7 Si    c      -0.003244     -0.000026     -0.000562      0.000000
      8 Si    c      -0.002773     -0.000609      0.000858      0.000000
      9 Si    c       0.002966      0.000342     -0.000117      0.000000
     10 Si    c       0.002133      0.000667     -0.001671      0.000000
     11 Si    c      -0.003193      0.000144     -0.000198      0.000000
     12 Si    c       0.000636      0.000510     -0.001590      0.000000
     13 Si    c       0.001551     -0.000995      0.001231      0.000000
     14 Si    c       0.000336      0.000137      0.002041      0.000000
     15 Si    c      -0.000554     -0.000491      0.001594      0.000000
     16 Si    c      -0.001939      0.000923     -0.001110      0.000000
     17 Si    c       0.000395     -0.000099     -0.002212      0.000000
     18 Si    c      -0.000907      0.000023     -0.002148      0.000000
     19 Si    c       0.001958     -0.000948      0.001170      0.000000
     20 Si    c      -0.000561      0.000221      0.002372      0.000000
     21 Si    c       0.001050      0.000057      0.002100      0.000000
     22 Si    c      -0.000776     -0.000680      0.001457      0.000000
     23 Si    c      -0.001474      0.000937     -0.001255      0.000000
     24 Si    c       0.000036     -0.000158     -0.002311      0.000000
     25 O3    c       0.000853      0.000498      0.000380      0.000000
     26 O2    c      -0.001327     -0.000612     -0.000070      0.000000
     27 O2    c      -0.001094      0.000710      0.000513      0.000000
     28 O2    c      -0.000121      0.000005     -0.000284      0.000000
     29 O3    c      -0.000402     -0.000591     -0.000313      0.000000
     30 O2    c       0.000782      0.000454      0.000060      0.000000
     31 O2    c       0.001497     -0.000707     -0.000585      0.000000
     32 O2    c       0.000379     -0.000075      0.000427      0.000000
     33 O2    c       0.000220     -0.000173      0.000512      0.000000
     34 O2    c       0.000446      0.000103      0.000921      0.000000
     35 O2    c      -0.000325     -0.000295     -0.000011      0.000000
     36 O2    c      -0.000296      0.000271      0.000254      0.000000
     37 O2    c       0.000532     -0.000097      0.000767      0.000000
     38 O2    c      -0.000248      0.000007      0.001310      0.000000
     39 O2    c       0.000234      0.000315      0.000288      0.000000
     40 O3    c      -0.001012     -0.000783      0.000041      0.000000
     41 O2    c      -0.001378      0.000522      0.000639      0.000000
     42 O2    c      -0.000009     -0.000095     -0.000367      0.000000
     43 O2    c      -0.000708     -0.000340     -0.000167      0.000000
     44 O2    c       0.001434      0.000702      0.000334      0.000000
     45 O2    c       0.001497     -0.000823     -0.000551      0.000000
     46 O2    c      -0.000207     -0.000122      0.000448      0.000000
     47 O2    c       0.000970      0.000122      0.000785      0.000000
     48 O2    c       0.000550     -0.000330      0.000186      0.000000
     49 O3    c      -0.000243     -0.000816      0.000382      0.000000
     50 O2    c       0.000246     -0.000266      0.000253      0.000000
     51 O3    c       0.000554      0.000779     -0.000375      0.000000
     52 O2    c      -0.000275      0.000216     -0.000228      0.000000
     53 O3    c       0.000722     -0.000066      0.000657      0.000000
     54 O2    c       0.000780      0.000040      0.000296      0.000000
     55 O2    c      -0.001047      0.000038     -0.000296      0.000000
     56 O3    c      -0.001207      0.000058     -0.000597      0.000000
     57 O3    c       0.000933      0.001100      0.000766      0.000000
     58 O2    c      -0.000845     -0.000651     -0.000479      0.000000
     59 O2    c      -0.000390      0.000590      0.000797      0.000000
     60 O2    c      -0.000563     -0.000543     -0.000528      0.000000
     61 O1    c      -0.001521     -0.001216     -0.001224      0.000000
     62 O2    c       0.000796      0.000668      0.000543      0.000000
     63 O2    c       0.000972     -0.000682     -0.000947      0.000000
     64 O2    c      -0.000478      0.000601      0.000822      0.000000
     65 O2    c      -0.000348     -0.000517      0.000205      0.000000
     66 O3    c       0.000482     -0.000123      0.000344      0.000000
     67 O2    c       0.000091      0.000550     -0.000241      0.000000
     68 O2    c      -0.000243      0.000101     -0.000164      0.000000
     69 O2    c       0.000805     -0.000035      0.000402      0.000000
     70 O3    c       0.001496     -0.000078      0.000498      0.000000
     71 O2    c      -0.000747     -0.000030     -0.000315      0.000000
     72 O2    c      -0.000514      0.000024     -0.000405      0.000000
     73 O3    s      -0.000516     -0.000317     -0.000808      0.000000
     74 O2    s       0.000558      0.000196     -0.000554      0.000000
     75 O2    s       0.000215     -0.000272      0.000294      0.000000
     76 O2    s       0.000015      0.000030      0.000404      0.000000
     77 O3    s       0.000084      0.000388      0.000717      0.000000
     78 O2    s      -0.000280     -0.000124      0.000354      0.000000
     79 O2    s      -0.000388      0.000198     -0.000371      0.000000
     80 O2    s      -0.000007     -0.000027     -0.000723      0.000000
     81 O2    s       0.000062      0.000111     -0.000183      0.000000
     82 O2    s      -0.000238     -0.000017     -0.000260      0.000000
     83 O2    s       0.000179      0.000191     -0.000139      0.000000
     84 O2    s       0.000018     -0.000125     -0.000200      0.000000
     85 O2    s      -0.000454      0.000073      0.000036      0.000000
     86 O2    s       0.000146      0.000018     -0.000275      0.000000
     87 O2    s      -0.000134     -0.000194     -0.000757      0.000000
     88 O3    s       0.000597      0.000387     -0.000411      0.000000
     89 O2    s       0.000539     -0.000118      0.000116      0.000000
     90 O2    s      -0.000285      0.000116      0.000689      0.000000
     91 O2    s       0.000321      0.000158      0.000506      0.000000
     92 O2    s      -0.000693     -0.000211      0.000350      0.000000
     93 O2    s      -0.000489      0.000275     -0.000233      0.000000
     94 O2    s       0.000432     -0.000006     -0.000766      0.000000
     95 O2    s      -0.000488     -0.000037     -0.000126      0.000000
     96 O2    s      -0.000163      0.000115     -0.000059      0.000000
     97 O3    s      -0.000188      0.000330     -0.000501      0.000000
     98 O2    s       0.000021      0.000036     -0.000466      0.000000
     99 O3    s       0.000008     -0.000334      0.000452      0.000000
    100 O2    s       0.000137     -0.000027      0.000408      0.000000
    101 O3    s      -0.000288     -0.000078     -0.001002      0.000000
    102 O2    s      -0.000105      0.000132     -0.000535      0.000000
    103 O2    s       0.000152     -0.000143      0.000613      0.000000
    104 O3    s       0.000456      0.000091      0.001109      0.000000
    105 O3    s      -0.000336     -0.000536     -0.000415      0.000000
    106 O2    s       0.000199      0.000178      0.000074      0.000000
    107 O2    s      -0.000018     -0.000160     -0.000034      0.000000
    108 O2    s       0.000537      0.000161     -0.000007      0.000000
    109 O1    s       0.000886      0.000624      0.000620      0.000000
    110 O2    s      -0.000199     -0.000214     -0.000087      0.000000
    111 O2    s      -0.000314      0.000167      0.000071      0.000000
    112 O2    s       0.000020     -0.000181     -0.000129      0.000000
    113 O2    s      -0.000123      0.000100     -0.000476      0.000000
    114 O3    s      -0.000082     -0.000062     -0.000569      0.000000
    115 O2    s       0.000279     -0.000056      0.000487      0.000000
    116 O2    s      -0.000199      0.000047      0.000347      0.000000
    117 O2    s      -0.000224     -0.000067     -0.000778      0.000000
    118 O3    s      -0.000674      0.000218     -0.000745      0.000000
    119 O2    s       0.000113     -0.000128      0.000491      0.000000
    120 O2    s       0.000124      0.000103      0.000690      0.000000
--------------------------------------------------------------------------------
  Maximum abs         0.003465      0.001216      0.002372      0.000000
--------------------------------------------------------------------------------


  Born effective charge tensors : 

-------------------------------------------------------------------------------
  Atom             x           y             z
-------------------------------------------------------------------------------
    1 Ge    x       3.9572      0.3395     -0.1686
            y       0.2536      4.1814     -0.2602
            z      -0.1711     -0.0504      3.4427
-------------------------------------------------------------------------------
    2 Ge    x       3.9997      0.3057     -0.0394
            y       0.3928      4.2155     -0.1933
            z      -0.1737     -0.0390      3.5001
-------------------------------------------------------------------------------
    3 Ge    x       4.0718      0.3733      0.0870
            y       0.3672      4.2223      0.1823
            z       0.2191     -0.0014      3.3434
-------------------------------------------------------------------------------
    4 Si    x       3.6360      0.1286     -0.0534
            y       0.2486      3.4212      0.0726
            z      -0.6536     -0.0667      3.7218
-------------------------------------------------------------------------------
    5 Si    x       3.4231     -0.1209      0.0936
            y       0.1154      3.2303     -0.0136
            z       0.5520     -0.0543      3.7870
-------------------------------------------------------------------------------
    6 Si    x       3.6070      0.3537     -0.2621
            y       0.0002      3.4741      0.0235
            z      -0.3540     -0.0999      3.8423
-------------------------------------------------------------------------------
    7 Si    x       3.4295      0.0903      0.3015
            y      -0.0732      3.2449     -0.0484
            z       0.2777      0.0609      3.8483
-------------------------------------------------------------------------------
    8 Si    x       3.4761      0.1749     -0.1306
            y      -0.1267      3.2398     -0.0188
            z      -0.5443     -0.0710      3.0747
-------------------------------------------------------------------------------
    9 Si    x       3.5721      0.3681      0.0699
            y      -0.0971      3.4908     -0.0624
            z       0.5371      0.1123      3.0852
-------------------------------------------------------------------------------
   10 Si    x       3.4839     -0.0746     -0.3046
            y       0.1190      3.2713      0.0193
            z      -0.4228     -0.0236      3.1481
-------------------------------------------------------------------------------
   11 Si    x       3.4810     -0.0952      0.2548
            y       0.0927      3.2574     -0.0098
            z       0.4098     -0.0364      3.1401
-------------------------------------------------------------------------------
   12 Si    x       3.2009      0.2952      0.1200
            y       0.1692      3.4422      0.1533
            z       0.0980      0.0649      2.8226
-------------------------------------------------------------------------------
   13 Si    x       3.3319     -0.2650     -0.1294
            y      -0.0159      3.7474      0.0437
            z      -0.1690      0.0078      2.8771
-------------------------------------------------------------------------------
   14 Si    x       3.5453     -0.2834     -0.0851
            y      -0.1726      3.5612     -0.1749
            z       0.0856     -0.1141      2.9030
-------------------------------------------------------------------------------
   15 Si    x       3.2081      0.2314      0.0529
            y       0.2622      3.4213      0.1771
            z       0.1202      0.0620      2.8284
-------------------------------------------------------------------------------
   16 Si    x       3.3033     -0.1830     -0.1228
            y      -0.1301      3.7401      0.0828
            z      -0.1342     -0.0006      2.9045
-------------------------------------------------------------------------------
   17 Si    x       3.5092     -0.1787     -0.0494
            y      -0.2397      3.5409     -0.2051
            z       0.0456     -0.0981      2.8994
-------------------------------------------------------------------------------
   18 Si    x       3.2624      0.2904     -0.1201
            y       0.2376      3.3805     -0.1883
            z      -0.1572     -0.0434      2.7278
-------------------------------------------------------------------------------
   19 Si    x       3.2391     -0.2691     -0.1164
            y      -0.2220      3.4209      0.1737
            z      -0.1603      0.0753      2.7364
-------------------------------------------------------------------------------
   20 Si    x       3.2663     -0.2600      0.1307
            y      -0.2221      3.3997     -0.2002
            z       0.1432     -0.0390      2.7125
-------------------------------------------------------------------------------
   21 Si    x       3.2312      0.3228     -0.1741
            y       0.1334      3.4372     -0.1979
            z      -0.1164     -0.0747      2.7494
-------------------------------------------------------------------------------
   22 Si    x       3.3058      0.3470      0.1217
            y       0.1637      3.5566      0.1192
            z       0.1115     -0.0245      3.0244
-------------------------------------------------------------------------------
   23 Si    x       3.5692     -0.3696      0.0346
            y      -0.0889      3.5154      0.1928
            z      -0.0665      0.0919      2.8173
-------------------------------------------------------------------------------
   24 Si    x       3.3790     -0.2953      0.1658
            y       0.0849      3.6879     -0.0700
            z       0.1745     -0.0069      2.7808
-------------------------------------------------------------------------------
   25 O3    x      -2.1020     -0.9524      0.3176
            y      -1.0249     -2.3655      0.3319
            z       0.4065      0.3033     -1.5472
-------------------------------------------------------------------------------
   26 O2    x      -1.7608     -0.7340     -0.2861
            y      -0.7518     -1.9346     -0.3100
            z      -0.3459     -0.3031     -1.3402
-------------------------------------------------------------------------------
   27 O2    x      -1.8414      0.6748      0.3643
            y       0.7180     -1.8530     -0.3546
            z       0.3799     -0.3250     -1.3693
-------------------------------------------------------------------------------
   28 O2    x      -1.7543      0.7427     -0.3421
            y       0.7700     -2.0087      0.3673
            z      -0.3601      0.3435     -1.3269
-------------------------------------------------------------------------------
   29 O3    x      -1.9519     -0.9127      0.3887
            y      -0.8758     -2.5386      0.3825
            z       0.4301      0.3690     -1.5200
-------------------------------------------------------------------------------
   30 O2    x      -1.6838     -0.7241     -0.3349
            y      -0.6897     -1.9890     -0.3228
            z      -0.3561     -0.3381     -1.3524
-------------------------------------------------------------------------------
   31 O2    x      -1.7119      0.6748      0.3100
            y       0.6850     -1.9016     -0.3388
            z       0.3826     -0.3037     -1.3798
-------------------------------------------------------------------------------
   32 O2    x      -1.6374      0.7049     -0.2743
            y       0.6655     -2.0330      0.3001
            z      -0.3413      0.2997     -1.3382
-------------------------------------------------------------------------------
   33 O2    x      -1.6633     -0.0696      0.7756
            y      -0.0276     -1.0837      0.0536
            z       1.0118      0.1113     -2.6419
-------------------------------------------------------------------------------
   34 O2    x      -1.5800      0.0217     -0.8065
            y       0.0042     -1.0902      0.0178
            z      -0.9790      0.0297     -2.8012
-------------------------------------------------------------------------------
   35 O2    x      -1.6641     -0.0640     -0.6604
            y      -0.0130     -1.1505     -0.0246
            z      -0.6336     -0.0455     -2.1855
-------------------------------------------------------------------------------
   36 O2    x      -1.7158     -0.0106      0.7522
            y       0.0029     -1.1211     -0.0035
            z       0.7355      0.0114     -2.2337
-------------------------------------------------------------------------------
   37 O2    x      -1.7262     -0.0273     -0.7056
            y      -0.0127     -1.1059     -0.0238
            z      -0.7081     -0.0250     -2.2466
-------------------------------------------------------------------------------
   38 O2    x      -1.7466     -0.0116      0.7067
            y      -0.0124     -1.1010      0.0020
            z       0.7143      0.0099     -2.2144
-------------------------------------------------------------------------------
   39 O2    x      -1.6645     -0.7140      0.3082
            y      -0.6100     -2.0128      0.3236
            z       0.3606      0.3259     -1.2292
-------------------------------------------------------------------------------
   40 O3    x      -1.9306     -0.8836     -0.3189
            y      -0.7585     -2.5820     -0.3042
            z      -0.3880     -0.2911     -1.3401
-------------------------------------------------------------------------------
   41 O2    x      -1.6585      0.7057      0.3739
            y       0.6251     -2.0231     -0.4066
            z       0.3668     -0.3699     -1.2558
-------------------------------------------------------------------------------
   42 O2    x      -1.6676      0.7038     -0.3715
            y       0.6127     -1.9926      0.3888
            z      -0.3585      0.3568     -1.2753
-------------------------------------------------------------------------------
   43 O2    x      -1.7254     -0.7229      0.3796
            y      -0.6804     -1.9441      0.3916
            z       0.3511      0.3615     -1.2838
-------------------------------------------------------------------------------
   44 O2    x      -1.7445     -0.7301     -0.3553
            y      -0.6840     -1.9561     -0.3653
            z      -0.3410     -0.3302     -1.2584
-------------------------------------------------------------------------------
   45 O2    x      -1.7490      0.7195      0.2624
            y       0.6848     -1.9503     -0.3121
            z       0.3091     -0.2905     -1.2120
-------------------------------------------------------------------------------
   46 O2    x      -1.8439      0.6418     -0.2860
            y       0.6402     -1.8072      0.3244
            z      -0.3331      0.2879     -1.2472
-------------------------------------------------------------------------------
   47 O2    x      -1.8357     -0.0073     -0.6103
            y       0.0107     -1.1662     -0.0040
            z      -0.3521     -0.0042     -1.7021
-------------------------------------------------------------------------------
   48 O2    x      -1.7875      0.0015      0.6121
            y       0.0282     -1.1704      0.0319
            z       0.3440      0.0201     -1.7619
-------------------------------------------------------------------------------
   49 O3    x      -1.3213     -0.0417      0.0866
            y       0.0024     -3.2086      0.1097
            z       0.0996      0.1145     -1.2008
-------------------------------------------------------------------------------
   50 O2    x      -1.1580      0.0592     -0.0588
            y       0.1062     -2.5692      0.0333
            z      -0.0741      0.0275     -1.0819
-------------------------------------------------------------------------------
   51 O3    x      -1.3747     -0.1824      0.0864
            y      -0.2401     -3.1851      0.1055
            z       0.1217      0.1252     -1.1918
-------------------------------------------------------------------------------
   52 O2    x      -1.1646     -0.0253     -0.0428
            y      -0.0836     -2.5783     -0.0032
            z      -0.0732      0.0294     -1.0777
-------------------------------------------------------------------------------
   53 O3    x      -2.9861     -0.1220      0.1131
            y      -0.1007     -1.3925      0.1080
            z       0.1180      0.0709     -1.2461
-------------------------------------------------------------------------------
   54 O2    x      -2.4479     -0.0168      0.0161
            y       0.0072     -1.2313     -0.0598
            z       0.0295     -0.0350     -1.0848
-------------------------------------------------------------------------------
   55 O2    x      -2.4190      0.1500      0.0138
            y       0.0919     -1.2394     -0.0595
            z       0.0149     -0.0349     -1.1019
-------------------------------------------------------------------------------
   56 O3    x      -2.9758      0.0810      0.1703
            y       0.0024     -1.3876      0.0969
            z       0.2009      0.0591     -1.2718
-------------------------------------------------------------------------------
   57 O3    x      -1.3199     -0.1566      0.0148
            y      -0.1130     -1.4758      0.0967
            z       0.0016      0.0485     -2.5888
-------------------------------------------------------------------------------
   58 O2    x      -1.1803     -0.1318      0.0033
            y      -0.0913     -1.2809     -0.0259
            z       0.0009     -0.0167     -2.0732
-------------------------------------------------------------------------------
   59 O2    x      -1.2218      0.1322     -0.0262
            y       0.0686     -1.2486     -0.0128
            z      -0.0186      0.0003     -2.0922
-------------------------------------------------------------------------------
   60 O2    x      -1.1866      0.0966      0.0005
            y       0.0413     -1.3112      0.0182
            z      -0.0194     -0.0007     -2.1037
-------------------------------------------------------------------------------
   61 O1    x      -1.4407     -0.1725     -0.0725
            y      -0.1573     -1.5440      0.0147
            z      -0.0812      0.0213     -2.7441
-------------------------------------------------------------------------------
   62 O2    x      -1.1937     -0.1279      0.0211
            y      -0.1116     -1.2688     -0.0034
            z       0.0281     -0.0104     -2.0790
-------------------------------------------------------------------------------
   63 O2    x      -1.2270      0.1308     -0.0275
            y       0.1156     -1.2722     -0.0553
            z      -0.0408     -0.0631     -2.0665
-------------------------------------------------------------------------------
   64 O2    x      -1.1809      0.1142     -0.0363
            y       0.1035     -1.2905     -0.0038
            z      -0.0309     -0.0113     -2.0936
-------------------------------------------------------------------------------
   65 O2    x      -1.2373     -0.0370      0.0680
            y      -0.1196     -2.4860     -0.0066
            z       0.0988     -0.0169     -1.0280
-------------------------------------------------------------------------------
   66 O3    x      -1.4873     -0.2148     -0.1088
            y      -0.3033     -3.0841     -0.0798
            z      -0.1574     -0.1141     -1.1274
-------------------------------------------------------------------------------
   67 O2    x      -1.2205      0.0366      0.0795
            y       0.0620     -2.5148      0.0284
            z       0.0951      0.0086     -1.0241
-------------------------------------------------------------------------------
   68 O2    x      -1.2486      0.0282     -0.0646
            y       0.0674     -2.5536     -0.0167
            z      -0.0861     -0.0193     -1.0044
-------------------------------------------------------------------------------
   69 O2    x      -2.4347      0.1628      0.0072
            y       0.1066     -1.2380      0.0477
            z      -0.0048      0.0187     -1.0665
-------------------------------------------------------------------------------
   70 O3    x      -3.0453      0.1193     -0.1244
            y       0.0566     -1.3782     -0.0767
            z      -0.1556     -0.0322     -1.2234
-------------------------------------------------------------------------------
   71 O2    x      -2.4275     -0.0703     -0.0188
            y      -0.0464     -1.2507     -0.0647
            z      -0.0193     -0.0343     -1.0424
-------------------------------------------------------------------------------
   72 O2    x      -2.4427     -0.0650      0.0245
            y      -0.0232     -1.2298      0.0664
            z       0.0057      0.0301     -1.0405
-------------------------------------------------------------------------------




  Elastic Constant Matrix: (Units=GPa)

-------------------------------------------------------------------------------
  Indices      1         2         3         4         5         6    
-------------------------------------------------------------------------------
       1     51.1651   25.6360   20.4371   -1.4563   -2.6232    0.2838
       2     25.6360   71.9978   19.6813   -1.4206   -1.5655    2.5924
       3     20.4371   19.6813   31.2551   -1.6586   -1.2854    1.6681
       4     -1.4563   -1.4206   -1.6586   11.7841    1.7268    0.0925
       5     -2.6232   -1.5655   -1.2854    1.7268   24.2337   -2.6582
       6      0.2838    2.5924    1.6681    0.0925   -2.6582   22.4007
-------------------------------------------------------------------------------


  Elastic Compliance Matrix: (Units=1/GPa)

-------------------------------------------------------------------------------
  Indices      1         2         3         4         5         6    
-------------------------------------------------------------------------------
       1    0.028671 -0.006156 -0.014855  0.000392  0.002076  0.001700
       2   -0.006156  0.018136 -0.007296  0.000421 -0.000075 -0.001488
       3   -0.014855 -0.007296  0.046635  0.003891 -0.000154 -0.002474
       4    0.000392  0.000421  0.003891  0.086403 -0.006036 -0.001416
       5    0.002076 -0.000075 -0.000154 -0.006036  0.042461  0.005057
       6    0.001700 -0.001488 -0.002474 -0.001416  0.005057  0.045582
-------------------------------------------------------------------------------

  Mechanical properties :

-------------------------------------------------------------------------------
  Convention :                    Reuss         Voigt         Hill
-------------------------------------------------------------------------------
  Bulk  Modulus (GPa)     =      27.15429      31.76966      29.46197
  Shear Modulus (GPa)     =      14.84649      17.59460      16.22055
-------------------------------------------------------------------------------
  Velocity S-wave (km/s)  =       2.75520       2.99938       2.87988
  Velocity P-wave (km/s)  =       4.89956       5.31404       5.11101
-------------------------------------------------------------------------------
  Compressibility (1/GPa) =    0.03682659
-------------------------------------------------------------------------------
  Stress axis :                     x             y             z
-------------------------------------------------------------------------------
  Youngs Moduli (GPa)     =      34.87833      55.13874      21.44308
-------------------------------------------------------------------------------
  Poissons Ratio (x)      =                     0.33945       0.31855
  Poissons Ratio (y)      =       0.21472                     0.15645
  Poissons Ratio (z)      =       0.51813       0.40230
-------------------------------------------------------------------------------


  Piezoelectric Strain Matrix: (Units=C/m**2)

-------------------------------------------------------------------------------
  Indices      1         2         3         4         5         6    
-------------------------------------------------------------------------------
       x    -0.31177  -0.82179   0.19598   0.03133   0.45272   0.13398
       y     0.68880   0.33966  -0.10492   0.03354   0.26625  -0.20038
       z     0.09251   0.53318  -1.69815   0.05890  -0.13209   0.07728
-------------------------------------------------------------------------------


  Piezoelectric Stress Matrix: (Units=10**-11 C/N)

-------------------------------------------------------------------------------
  Indices      1         2         3         4         5         6    
-------------------------------------------------------------------------------
       x    -0.56110  -1.46347   1.94875   0.00790   1.90955   0.85602
       y     1.94415   0.29775  -1.70183   0.15802   1.15106  -0.69093
       z     2.44770   2.14099  -8.43996  -0.05694  -0.51589   0.63371
-------------------------------------------------------------------------------


  Static dielectric constant tensor : 

-------------------------------------------------------------------------------
              x         y         z
-------------------------------------------------------------------------------
       x     3.95655   0.10978  -0.03809
       y     0.10978   4.14692  -0.01772
       z    -0.03809  -0.01772   3.14525
--------------------------------------------------------------------------------

  High frequency dielectric constant tensor : 

-------------------------------------------------------------------------------
              x         y         z
-------------------------------------------------------------------------------
       x     1.68060   0.00057  -0.00118
       y     0.00057   1.68663  -0.00106
       z    -0.00118  -0.00106   1.62103
-------------------------------------------------------------------------------

  Static refractive indices : 

-------------------------------------------------------------------------------
    1 =    1.77294      2 =    1.97672      3 =    2.04890
-------------------------------------------------------------------------------

  High frequency refractive indices : 

-------------------------------------------------------------------------------
    1 =    1.27318      2 =    1.29637      3 =    1.29873
-------------------------------------------------------------------------------


  Time to end of optimisation =      13.8476 seconds


  Peak dynamic memory used =       5.01 MB 


  Timing analysis for GULP :

--------------------------------------------------------------------------------
  Task / Subroutine                                          Time (Seconds)
--------------------------------------------------------------------------------
  Calculation of reciprocal space energy and derivatives          0.8481
  Calculation of real space energy and derivatives                8.5102
  Calculation of three-body energy and derivatives                0.8368
  Calculation and manipulation of Hessian matrix                  4.6695
  Calculation of matrix inversion                                 0.0244
  Global summation overhead                                       0.0002
--------------------------------------------------------------------------------
  Total CPU time                                                 13.8476
--------------------------------------------------------------------------------


  Dump file written as c00219.vasp.grs
  CIF file written as c00219.vasp.cif


  Job Finished at 12:05.58  7th October    2025                               

