********************************************************************************
*                       GENERAL UTILITY LATTICE PROGRAM                        *
*                                 Julian Gale                                  *
*                       Curtin Institute for Computation                       *
*                    School of Molecular and Life Sciences                     *
*                    Curtin University, Western Australia                      *
********************************************************************************
* Version = 6.1.2 * Last modified =   3rd November 2022                        *
********************************************************************************
*  optimise     - perform optimisation run                                     *
*  conp         - constant pressure calculation                                *
*  property     - calculate properties for final geometry                      *
********************************************************************************

  Job Started  at 12:07.46  7th October    2025                               

  Number of CPUs =     1


  Total number of configurations input =      1

********************************************************************************
*  Input for Configuration =   1 : c00229.vasp                                 *
********************************************************************************

  Formula = Ge3Si21O48                                                  

  Number of irreducible atoms/shells =     120


  Total number atoms/shells =     120

  Dimensionality = 3               :  Bulk   



  Cartesian lattice vectors (Angstroms) :

       17.182800    0.000000    0.000000
        0.000000    7.513760    0.000000
        0.000000    0.000000   10.447700

  Cell parameters (Angstroms/Degrees):

  a =      17.1828    alpha =  90.0000
  b =       7.5138    beta  =  90.0000
  c =      10.4477    gamma =  90.0000

  Initial cell volume =        1348.875752 Angs**3

  Temperature of configuration =   0.00     K 

  Pressure of configuration =         0.000 GPa 

  Fractional coordinates of asymmetric unit :

--------------------------------------------------------------------------------
   No.  Atomic       x           y          z         Charge      Occupancy
        Label      (Frac)      (Frac)     (Frac)        (e)         (Frac)  
--------------------------------------------------------------------------------
      1 Ge    c    0.160190    0.293910    0.273440     4.00000    1.000000    
      2 Ge    c    0.160190 *  0.706090 *  0.273440 *   4.00000    1.000000    
      3 Ge    c    0.160660 *  0.705910 *  0.982560 *   4.00000    1.000000    
      4 Si    c    0.052090 *  0.000000 *  0.372270 *   4.00000    1.000000    
      5 Si    c    0.447910 *  0.000000 *  0.372270 *   4.00000    1.000000    
      6 Si    c    0.947910 *  0.000000 *  0.627730 *   4.00000    1.000000    
      7 Si    c    0.552090 *  0.000000 *  0.627730 *   4.00000    1.000000    
      8 Si    c    0.556730 *  0.000000 *  0.122130 *   4.00000    1.000000    
      9 Si    c    0.943270 *  0.000000 *  0.122130 *   4.00000    1.000000    
     10 Si    c    0.443270 *  0.000000 *  0.877870 *   4.00000    1.000000    
     11 Si    c    0.056730 *  0.000000 *  0.877870 *   4.00000    1.000000    
     12 Si    c    0.339810 *  0.706090 *  0.273440 *   4.00000    1.000000    
     13 Si    c    0.839810 *  0.293910 *  0.726560 *   4.00000    1.000000    
     14 Si    c    0.660190 *  0.706090 *  0.726560 *   4.00000    1.000000    
     15 Si    c    0.839810 *  0.706090 *  0.726560 *   4.00000    1.000000    
     16 Si    c    0.660190 *  0.293910 *  0.726560 *   4.00000    1.000000    
     17 Si    c    0.339810 *  0.293910 *  0.273440 *   4.00000    1.000000    
     18 Si    c    0.660660 *  0.294090 *  0.017440 *   4.00000    1.000000    
     19 Si    c    0.839340 *  0.705910 *  0.017440 *   4.00000    1.000000    
     20 Si    c    0.339340 *  0.294090 *  0.982560 *   4.00000    1.000000    
     21 Si    c    0.339340 *  0.705910 *  0.982560 *   4.00000    1.000000    
     22 Si    c    0.160660 *  0.294090 *  0.982560 *   4.00000    1.000000    
     23 Si    c    0.660660 *  0.705910 *  0.017440 *   4.00000    1.000000    
     24 Si    c    0.839340 *  0.294090 *  0.017440 *   4.00000    1.000000    
     25 O3    c    0.106570 *  0.174340 *  0.366200 *   1.33043    1.000000    
     26 O2    c    0.393430 *  0.825660 *  0.366200 *   0.87073    1.000000    
     27 O2    c    0.893430 *  0.174340 *  0.633800 *   0.87073    1.000000    
     28 O2    c    0.606570 *  0.825660 *  0.633800 *   0.87073    1.000000    
     29 O2    c    0.893430 *  0.825660 *  0.633800 *   0.87073    1.000000    
     30 O2    c    0.606570 *  0.174340 *  0.633800 *   0.87073    1.000000    
     31 O3    c    0.106570 *  0.825660 *  0.366200 *   1.33043    1.000000    
     32 O2    c    0.393430 *  0.174340 *  0.366200 *   0.87073    1.000000    
     33 O2    c    0.000000 *  0.000000 *  0.500000 *   0.87073    1.000000    
     34 O2    c    0.500000 *  0.000000 *  0.500000 *   0.87073    1.000000    
     35 O2    c    0.994520 *  0.000000 *  0.250840 *   0.87073    1.000000    
     36 O2    c    0.505480 *  0.000000 *  0.250840 *   0.87073    1.000000    
     37 O2    c    0.005480 *  0.000000 *  0.749160 *   0.87073    1.000000    
     38 O2    c    0.494520 *  0.000000 *  0.749160 *   0.87073    1.000000    
     39 O2    c    0.610230 *  0.175520 *  0.115390 *   0.87073    1.000000    
     40 O2    c    0.889770 *  0.824480 *  0.115390 *   0.87073    1.000000    
     41 O2    c    0.389770 *  0.175520 *  0.884610 *   0.87073    1.000000    
     42 O3    c    0.110230 *  0.824480 *  0.884610 *   1.33043    1.000000    
     43 O2    c    0.389770 *  0.824480 *  0.884610 *   0.87073    1.000000    
     44 O2    c    0.110230 *  0.175520 *  0.884610 *   0.87073    1.000000    
     45 O2    c    0.610230 *  0.824480 *  0.115390 *   0.87073    1.000000    
     46 O2    c    0.889770 *  0.175520 *  0.115390 *   0.87073    1.000000    
     47 O2    c    0.500000 *  0.000000 *  0.000000 *   0.87073    1.000000    
     48 O2    c    0.000000 *  0.000000 *  0.000000 *   0.87073    1.000000    
     49 O1    c    0.151750 *  0.500000 *  0.313330 *   1.73396    1.000000    
     50 O2    c    0.348250 *  0.500000 *  0.313330 *   0.87073    1.000000    
     51 O2    c    0.848250 *  0.500000 *  0.686670 *   0.87073    1.000000    
     52 O2    c    0.651750 *  0.500000 *  0.686670 *   0.87073    1.000000    
     53 O3    c    0.250000 *  0.234950 *  0.285720 *   1.33043    1.000000    
     54 O3    c    0.250000 *  0.765050 *  0.285720 *   1.33043    1.000000    
     55 O2    c    0.750000 *  0.234950 *  0.714280 *   0.87073    1.000000    
     56 O2    c    0.750000 *  0.765050 *  0.714280 *   0.87073    1.000000    
     57 O3    c    0.131410 *  0.268650 *  0.127790 *   1.33043    1.000000    
     58 O2    c    0.368590 *  0.731350 *  0.127790 *   0.87073    1.000000    
     59 O2    c    0.868590 *  0.268650 *  0.872210 *   0.87073    1.000000    
     60 O2    c    0.631410 *  0.731350 *  0.872210 *   0.87073    1.000000    
     61 O2    c    0.868590 *  0.731350 *  0.872210 *   0.87073    1.000000    
     62 O2    c    0.631410 *  0.268650 *  0.872210 *   0.87073    1.000000    
     63 O1    c    0.131410 *  0.731350 *  0.127790 *   1.73396    1.000000    
     64 O2    c    0.368590 *  0.268650 *  0.127790 *   0.87073    1.000000    
     65 O2    c    0.653920 *  0.500000 *  0.058200 *   0.87073    1.000000    
     66 O2    c    0.846080 *  0.500000 *  0.058200 *   0.87073    1.000000    
     67 O2    c    0.346080 *  0.500000 *  0.941800 *   0.87073    1.000000    
     68 O3    c    0.153920 *  0.500000 *  0.941800 *   1.33043    1.000000    
     69 O2    c    0.750000 *  0.231060 *  0.027050 *   0.87073    1.000000    
     70 O2    c    0.750000 *  0.768940 *  0.027050 *   0.87073    1.000000    
     71 O2    c    0.250000 *  0.231060 *  0.972950 *   0.87073    1.000000    
     72 O3    c    0.250000 *  0.768940 *  0.972950 *   1.33043    1.000000    
     73 O3    s    0.106570 *  0.174340 *  0.366200 *  -3.33043    1.000000    
     74 O2    s    0.393430 *  0.825660 *  0.366200 *  -2.87073    1.000000    
     75 O2    s    0.893430 *  0.174340 *  0.633800 *  -2.87073    1.000000    
     76 O2    s    0.606570 *  0.825660 *  0.633800 *  -2.87073    1.000000    
     77 O2    s    0.893430 *  0.825660 *  0.633800 *  -2.87073    1.000000    
     78 O2    s    0.606570 *  0.174340 *  0.633800 *  -2.87073    1.000000    
     79 O3    s    0.106570 *  0.825660 *  0.366200 *  -3.33043    1.000000    
     80 O2    s    0.393430 *  0.174340 *  0.366200 *  -2.87073    1.000000    
     81 O2    s    0.000000 *  0.000000 *  0.500000 *  -2.87073    1.000000    
     82 O2    s    0.500000 *  0.000000 *  0.500000 *  -2.87073    1.000000    
     83 O2    s    0.994520 *  0.000000 *  0.250840 *  -2.87073    1.000000    
     84 O2    s    0.505480 *  0.000000 *  0.250840 *  -2.87073    1.000000    
     85 O2    s    0.005480 *  0.000000 *  0.749160 *  -2.87073    1.000000    
     86 O2    s    0.494520 *  0.000000 *  0.749160 *  -2.87073    1.000000    
     87 O2    s    0.610230 *  0.175520 *  0.115390 *  -2.87073    1.000000    
     88 O2    s    0.889770 *  0.824480 *  0.115390 *  -2.87073    1.000000    
     89 O2    s    0.389770 *  0.175520 *  0.884610 *  -2.87073    1.000000    
     90 O3    s    0.110230 *  0.824480 *  0.884610 *  -3.33043    1.000000    
     91 O2    s    0.389770 *  0.824480 *  0.884610 *  -2.87073    1.000000    
     92 O2    s    0.110230 *  0.175520 *  0.884610 *  -2.87073    1.000000    
     93 O2    s    0.610230 *  0.824480 *  0.115390 *  -2.87073    1.000000    
     94 O2    s    0.889770 *  0.175520 *  0.115390 *  -2.87073    1.000000    
     95 O2    s    0.500000 *  0.000000 *  0.000000 *  -2.87073    1.000000    
     96 O2    s    0.000000 *  0.000000 *  0.000000 *  -2.87073    1.000000    
     97 O1    s    0.151750 *  0.500000 *  0.313330 *  -3.73396    1.000000    
     98 O2    s    0.348250 *  0.500000 *  0.313330 *  -2.87073    1.000000    
     99 O2    s    0.848250 *  0.500000 *  0.686670 *  -2.87073    1.000000    
    100 O2    s    0.651750 *  0.500000 *  0.686670 *  -2.87073    1.000000    
    101 O3    s    0.250000 *  0.234950 *  0.285720 *  -3.33043    1.000000    
    102 O3    s    0.250000 *  0.765050 *  0.285720 *  -3.33043    1.000000    
    103 O2    s    0.750000 *  0.234950 *  0.714280 *  -2.87073    1.000000    
    104 O2    s    0.750000 *  0.765050 *  0.714280 *  -2.87073    1.000000    
    105 O3    s    0.131410 *  0.268650 *  0.127790 *  -3.33043    1.000000    
    106 O2    s    0.368590 *  0.731350 *  0.127790 *  -2.87073    1.000000    
    107 O2    s    0.868590 *  0.268650 *  0.872210 *  -2.87073    1.000000    
    108 O2    s    0.631410 *  0.731350 *  0.872210 *  -2.87073    1.000000    
    109 O2    s    0.868590 *  0.731350 *  0.872210 *  -2.87073    1.000000    
    110 O2    s    0.631410 *  0.268650 *  0.872210 *  -2.87073    1.000000    
    111 O1    s    0.131410 *  0.731350 *  0.127790 *  -3.73396    1.000000    
    112 O2    s    0.368590 *  0.268650 *  0.127790 *  -2.87073    1.000000    
    113 O2    s    0.653920 *  0.500000 *  0.058200 *  -2.87073    1.000000    
    114 O2    s    0.846080 *  0.500000 *  0.058200 *  -2.87073    1.000000    
    115 O2    s    0.346080 *  0.500000 *  0.941800 *  -2.87073    1.000000    
    116 O3    s    0.153920 *  0.500000 *  0.941800 *  -3.33043    1.000000    
    117 O2    s    0.750000 *  0.231060 *  0.027050 *  -2.87073    1.000000    
    118 O2    s    0.750000 *  0.768940 *  0.027050 *  -2.87073    1.000000    
    119 O2    s    0.250000 *  0.231060 *  0.972950 *  -2.87073    1.000000    
    120 O3    s    0.250000 *  0.768940 *  0.972950 *  -3.33043    1.000000    
--------------------------------------------------------------------------------



********************************************************************************
*  General input information                                                   *
********************************************************************************

  Species output for all configurations : 

--------------------------------------------------------------------------------
  Species    Type    Atomic    Atomic    Charge       Radii (Angs)     Library
                     Number     Mass       (e)     Cova   Ionic  VDW   Symbol
--------------------------------------------------------------------------------
    Ge       Core       32      72.61   4.000000   1.170  0.000  1.750 Ge       
    Si       Core       14      28.09   4.000000   1.200  0.000  2.100 Si       
    O1       Core        8      16.00   1.733957   0.730  0.000  1.360 O1       
    O2       Core        8      16.00   0.870733   0.730  0.000  1.360 O2       
    O3       Core        8      16.00   1.330431   0.730  0.000  1.360 O3       
    O1       Shell       8       0.00  -3.733957   0.730  0.000  0.000 O1       
    O2       Shell       8       0.00  -2.870733   0.730  0.000  0.000 O2       
    O3       Shell       8       0.00  -3.330431   0.730  0.000  0.000 O3       
--------------------------------------------------------------------------------


  Lattice summation method               =    Ewald          (3-D)
                                         =    Parry          (2-D)
                                         =    Saunders et al (1-D)
  Accuracy factor for lattice sums       =   12.000


  Analytic derivatives to be used

  Time limit = Infinity

  Maximum range for interatomic potentials =    100000.000000 Angstroms

  General interatomic potentials :

--------------------------------------------------------------------------------
Atom  Types   Potential      Parameter       Value         Units   Cutoffs(Ang)
  1     2                                                            Min /  Max 
--------------------------------------------------------------------------------
Si   c O1   s Buckingham    Buckingham A     1315.2478    eV        0.000 16.000
                            Buckingham rho  0.31775900    Ang       
                            Buckingham C     10.141118    eV*Ang^6  
--------------------------------------------------------------------------------
Si   c O2   s Buckingham    Buckingham A     1315.2478    eV        0.000 16.000
                            Buckingham rho  0.31775900    Ang       
                            Buckingham C     10.141118    eV*Ang^6  
--------------------------------------------------------------------------------
Si   c O3   s Buckingham    Buckingham A     1315.2478    eV        0.000 16.000
                            Buckingham rho  0.31775900    Ang       
                            Buckingham C     10.141118    eV*Ang^6  
--------------------------------------------------------------------------------
Ge   c O1   s Buckingham    Buckingham A     1497.3996    eV        0.000 16.000
                            Buckingham rho  0.32564600    Ang       
                            Buckingham C     16.808599    eV*Ang^6  
--------------------------------------------------------------------------------
Ge   c O2   s Buckingham    Buckingham A     1497.3996    eV        0.000 16.000
                            Buckingham rho  0.32564600    Ang       
                            Buckingham C     16.808599    eV*Ang^6  
--------------------------------------------------------------------------------
Ge   c O3   s Buckingham    Buckingham A     1497.3996    eV        0.000 16.000
                            Buckingham rho  0.32564600    Ang       
                            Buckingham C     16.808599    eV*Ang^6  
--------------------------------------------------------------------------------
O1   s O1   s Buckingham    Buckingham A     22764.000    eV        0.000 16.000
                            Buckingham rho  0.14900000    Ang       
                            Buckingham C     10.937044    eV*Ang^6  
--------------------------------------------------------------------------------
O1   s O2   s Buckingham    Buckingham A     22764.000    eV        0.000 16.000
                            Buckingham rho  0.14900000    Ang       
                            Buckingham C     10.937044    eV*Ang^6  
--------------------------------------------------------------------------------
O1   s O3   s Buckingham    Buckingham A     22764.000    eV        0.000 16.000
                            Buckingham rho  0.14900000    Ang       
                            Buckingham C     10.937044    eV*Ang^6  
--------------------------------------------------------------------------------
O2   s O2   s Buckingham    Buckingham A     22764.000    eV        0.000 16.000
                            Buckingham rho  0.14900000    Ang       
                            Buckingham C     10.937044    eV*Ang^6  
--------------------------------------------------------------------------------
O2   s O3   s Buckingham    Buckingham A     22764.000    eV        0.000 16.000
                            Buckingham rho  0.14900000    Ang       
                            Buckingham C     10.937044    eV*Ang^6  
--------------------------------------------------------------------------------
O3   s O3   s Buckingham    Buckingham A     22764.000    eV        0.000 16.000
                            Buckingham rho  0.14900000    Ang       
                            Buckingham C     10.937044    eV*Ang^6  
--------------------------------------------------------------------------------
O1   c O1   s Spring (c-s)  Spring k 2       180.31577    eV*Ang^-2 0.000  0.800
                            Spring k 4       0.0000000    eV*Ang^-4 
--------------------------------------------------------------------------------
O2   c O2   s Spring (c-s)  Spring k 2       75.969800    eV*Ang^-2 0.000  0.800
                            Spring k 4       0.0000000    eV*Ang^-4 
--------------------------------------------------------------------------------
O3   c O3   s Spring (c-s)  Spring k 2       128.14270    eV*Ang^-2 0.000  0.800
                            Spring k 4       0.0000000    eV*Ang^-4 
--------------------------------------------------------------------------------

  General Three-body potentials :

--------------------------------------------------------------------------------
  Atoms       Potential      Parameter       Value         Units   Cutoffs(Ang)
  1 / 2 / 3                                                          Min /  Max 
--------------------------------------------------------------------------------
Si    core    Harmonic      Three-body cnst  1.2614000    eV*rad^-2 0.000  1.900
O1    shel                  Three-body angl  109.47000    degrees   0.000  1.900
O1    shel                  Three-body k4    0.0000000    eV*rad^-4 0.000  3.500
                            Three-body k3    0.0000000    eV*rad^-3 
--------------------------------------------------------------------------------
Si    core    Harmonic      Three-body cnst  1.2614000    eV*rad^-2 0.000  1.900
O1    shel                  Three-body angl  109.47000    degrees   0.000  1.900
õ(1   shel                  Three-body k4    0.0000000    eV*rad^-4 0.000  3.500
                            Three-body k3    0.0000000    eV*rad^-3 
--------------------------------------------------------------------------------
Si    core    Harmonic      Three-body cnst  1.2614000    eV*rad^-2 0.000  1.900
õ(1   shel                  Three-body angl  109.47000    degrees   0.000  1.900
õ(1   shel                  Three-body k4    0.0000000    eV*rad^-4 0.000  3.500
                            Three-body k3    0.0000000    eV*rad^-3 
--------------------------------------------------------------------------------
Si    core    Harmonic      Three-body cnst  1.2614000    eV*rad^-2 0.000  1.900
O1    shel                  Three-body angl  109.47000    degrees   0.000  1.900
O2    shel                  Three-body k4    0.0000000    eV*rad^-4 0.000  3.500
                            Three-body k3    0.0000000    eV*rad^-3 
--------------------------------------------------------------------------------
Si    core    Harmonic      Three-body cnst  1.2614000    eV*rad^-2 0.000  1.900
O1    shel                  Three-body angl  109.47000    degrees   0.000  1.900
õ(2   shel                  Three-body k4    0.0000000    eV*rad^-4 0.000  3.500
                            Three-body k3    0.0000000    eV*rad^-3 
--------------------------------------------------------------------------------
Si    core    Harmonic      Three-body cnst  1.2614000    eV*rad^-2 0.000  1.900
O2    shel                  Three-body angl  109.47000    degrees   0.000  1.900
õ(1   shel                  Three-body k4    0.0000000    eV*rad^-4 0.000  3.500
                            Three-body k3    0.0000000    eV*rad^-3 
--------------------------------------------------------------------------------
Si    core    Harmonic      Three-body cnst  1.2614000    eV*rad^-2 0.000  1.900
õ(1   shel                  Three-body angl  109.47000    degrees   0.000  1.900
õ(2   shel                  Three-body k4    0.0000000    eV*rad^-4 0.000  3.500
                            Three-body k3    0.0000000    eV*rad^-3 
--------------------------------------------------------------------------------
Si    core    Harmonic      Three-body cnst  1.2614000    eV*rad^-2 0.000  1.900
O2    shel                  Three-body angl  109.47000    degrees   0.000  1.900
O2    shel                  Three-body k4    0.0000000    eV*rad^-4 0.000  3.500
                            Three-body k3    0.0000000    eV*rad^-3 
--------------------------------------------------------------------------------
Si    core    Harmonic      Three-body cnst  1.2614000    eV*rad^-2 0.000  1.900
O2    shel                  Three-body angl  109.47000    degrees   0.000  1.900
õ(2   shel                  Three-body k4    0.0000000    eV*rad^-4 0.000  3.500
                            Three-body k3    0.0000000    eV*rad^-3 
--------------------------------------------------------------------------------
Si    core    Harmonic      Three-body cnst  1.2614000    eV*rad^-2 0.000  1.900
õ(2   shel                  Three-body angl  109.47000    degrees   0.000  1.900
õ(2   shel                  Three-body k4    0.0000000    eV*rad^-4 0.000  3.500
                            Three-body k3    0.0000000    eV*rad^-3 
--------------------------------------------------------------------------------

********************************************************************************
*  Output for configuration   1 : c00229.vasp                                  *
********************************************************************************


  Components of energy : 

--------------------------------------------------------------------------------
  Interatomic potentials     =         760.29124375 eV    
  Three-body potentials      =           0.01623878 eV    
  Monopole - monopole (real) =       -2676.00317478 eV    
  Monopole - monopole (recip)=       -1115.35404472 eV    
  Monopole - monopole (total)=       -3791.35721950 eV    
--------------------------------------------------------------------------------
  Total lattice energy       =       -3031.04973698 eV    
--------------------------------------------------------------------------------
  Total lattice energy       =         -292449.9658 kJ/(mole unit cells)
--------------------------------------------------------------------------------


  Number of variables =      363

  Maximum number of calculations  =          1000
  Maximum Hessian update interval =            10
  Maximum step size               =   0.100000000
  Maximum parameter tolerance     =   0.000010000
  Maximum function  tolerance     =   0.000010000
  Maximum gradient  tolerance     =   0.001000000
  Maximum gradient  component     =   0.010000000

  Symmetry not applied to optimisation

  Cell parameters to be optimised using strains

  Newton-Raphson optimiser to be used

  BFGS hessian update to be used

  Lower half triangular hessian to be used

  Minimiser to switch to RFO
  When gradient norm is less than     0.050000

  Dumpfile to be written after every cycle

  Start of bulk optimisation :

  Cycle:      0 Energy:     -3031.049737  Gnorm:      4.457179  CPU:    0.132
  ** Hessian calculated **
  Cycle:      1 Energy:     -3061.853419  Gnorm:      0.959708  CPU:    0.305
  ** Hessian calculated **
  Cycle:      2 Energy:     -3064.279332  Gnorm:      0.726679  CPU:    0.576
  ** Hessian calculated **
  Cycle:      3 Energy:     -3066.353674  Gnorm:      0.437907  CPU:    0.824
  ** Hessian calculated **
  Cycle:      4 Energy:     -3066.858251  Gnorm:      0.252372  CPU:    1.070
  Cycle:      5 Energy:     -3067.022681  Gnorm:      0.167531  CPU:    1.208
  Cycle:      6 Energy:     -3067.149433  Gnorm:      0.130328  CPU:    1.372
  Cycle:      7 Energy:     -3067.268196  Gnorm:      0.105270  CPU:    1.536
  Cycle:      8 Energy:     -3067.356603  Gnorm:      0.095694  CPU:    1.675
  Cycle:      9 Energy:     -3067.418837  Gnorm:      0.070321  CPU:    1.815
  Cycle:     10 Energy:     -3067.452253  Gnorm:      0.051110  CPU:    1.953
  Cycle:     11 Energy:     -3067.472594  Gnorm:      0.040844  CPU:    2.117
  ** Hessian has required structure
  Cycle:     12 Energy:     -3067.482767  Gnorm:      0.080527  CPU:    2.301
  ** Hessian has required structure
  Cycle:     13 Energy:     -3067.495333  Gnorm:      0.079683  CPU:    2.485
  ** Hessian has wrong structure
  ** Imaginary eigenvectors =   1
  ** Hessian has wrong structure
  ** Imaginary eigenvectors =   1
  Cycle:     14 Energy:     -3067.501346  Gnorm:      0.079562  CPU:    3.211
  ** Hessian has wrong structure
  ** Imaginary eigenvectors =   1
  ** Hessian has wrong structure
  ** Imaginary eigenvectors =   1
  Cycle:     15 Energy:     -3067.511584  Gnorm:      0.079311  CPU:    3.840
  ** Hessian has wrong structure
  ** Imaginary eigenvectors =   1
  ** Hessian has wrong structure
  ** Imaginary eigenvectors =   1
  Cycle:     16 Energy:     -3067.533789  Gnorm:      0.077892  CPU:    4.456
  ** Hessian has required structure
  Cycle:     17 Energy:     -3067.562387  Gnorm:      0.075345  CPU:    4.722
  ** Hessian has required structure
  Cycle:     18 Energy:     -3067.600681  Gnorm:      0.071630  CPU:    4.960
  ** Hessian has required structure
  Cycle:     19 Energy:     -3067.667179  Gnorm:      0.063874  CPU:    5.227
  ** Hessian has required structure
  Cycle:     20 Energy:     -3067.747051  Gnorm:      0.051050  CPU:    5.464
  ** Hessian has required structure
  Cycle:     21 Energy:     -3067.793082  Gnorm:      0.041262  CPU:    5.675
  ** Hessian has required structure
  Cycle:     22 Energy:     -3067.837392  Gnorm:      0.029675  CPU:    5.886
  ** Hessian has required structure
  Cycle:     23 Energy:     -3067.849911  Gnorm:      0.022040  CPU:    6.096
  ** Hessian has required structure
  Cycle:     24 Energy:     -3067.867166  Gnorm:      0.017334  CPU:    6.334
  ** Hessian has required structure
  Cycle:     25 Energy:     -3067.887691  Gnorm:      0.022016  CPU:    6.567
  ** Hessian has required structure
  Cycle:     26 Energy:     -3067.919730  Gnorm:      0.018592  CPU:    6.899
  ** Hessian has required structure
  Cycle:     27 Energy:     -3067.952603  Gnorm:      0.027113  CPU:    7.132
  ** Hessian has required structure
  Cycle:     28 Energy:     -3067.976024  Gnorm:      0.024082  CPU:    7.337
  ** Hessian has required structure
  Cycle:     29 Energy:     -3067.988518  Gnorm:      0.030947  CPU:    7.543
  ** Hessian has required structure
  Cycle:     30 Energy:     -3068.004249  Gnorm:      0.020482  CPU:    7.775
  ** Hessian has required structure
  Cycle:     31 Energy:     -3068.015525  Gnorm:      0.023352  CPU:    7.980
  ** Hessian has required structure
  Cycle:     32 Energy:     -3068.030276  Gnorm:      0.016758  CPU:    8.186
  ** Hessian has required structure
  Cycle:     33 Energy:     -3068.040527  Gnorm:      0.014351  CPU:    8.394
  ** Hessian has required structure
  Cycle:     34 Energy:     -3068.049045  Gnorm:      0.013459  CPU:    8.603
  ** Hessian has required structure
  Cycle:     35 Energy:     -3068.056488  Gnorm:      0.012518  CPU:    8.812
  ** Hessian has required structure
  Cycle:     36 Energy:     -3068.060729  Gnorm:      0.009490  CPU:    9.154
  ** Hessian has required structure
  Cycle:     37 Energy:     -3068.064729  Gnorm:      0.004615  CPU:    9.394
  ** Hessian has required structure
  Cycle:     38 Energy:     -3068.065412  Gnorm:      0.002625  CPU:    9.604
  ** Hessian has required structure
  Cycle:     39 Energy:     -3068.065658  Gnorm:      0.001392  CPU:    9.843
  ** Hessian has required structure
  Cycle:     40 Energy:     -3068.065718  Gnorm:      0.000705  CPU:   10.053
  ** Hessian has required structure
  Cycle:     41 Energy:     -3068.065738  Gnorm:      0.000338  CPU:   10.290
  ** Hessian has required structure
  Cycle:     42 Energy:     -3068.065740  Gnorm:      0.000230  CPU:   10.473
  ** Hessian has required structure
  Cycle:     43 Energy:     -3068.065741  Gnorm:      0.000208  CPU:   10.657
  ** Hessian has required structure
  Cycle:     44 Energy:     -3068.065741  Gnorm:      0.000195  CPU:   10.841
  ** Hessian has required structure
  Cycle:     45 Energy:     -3068.065741  Gnorm:      0.000195  CPU:   11.105
  ** Hessian has required structure
  Cycle:     46 Energy:     -3068.065741  Gnorm:      0.000195  CPU:   11.475
  ** Hessian calculated **


  **** Optimisation achieved ****


  Final energy =   -3068.06574106 eV      
  Final Gnorm  =       0.00019549

  Components of energy : 

--------------------------------------------------------------------------------
  Interatomic potentials     =         815.30508834 eV    
  Three-body potentials      =           0.21858457 eV    
  Monopole - monopole (real) =       -2201.71249618 eV    
  Monopole - monopole (recip)=       -1681.87691778 eV    
  Monopole - monopole (total)=       -3883.58941396 eV    
--------------------------------------------------------------------------------
  Total lattice energy       =       -3068.06574106 eV    
--------------------------------------------------------------------------------
  Total lattice energy       =         -296021.4443 kJ/(mole unit cells)
--------------------------------------------------------------------------------

  Final fractional coordinates of atoms :

--------------------------------------------------------------------------------
   No.  Atomic        x           y          z          Radius
        Label       (Frac)      (Frac)     (Frac)       (Angs) 
--------------------------------------------------------------------------------
     1  Ge    c     0.160190    0.293910    0.273440    0.000000
     2  Ge    c     0.143451    0.715845    0.271767    0.000000
     3  Ge    c     0.141129    0.699937    0.955673    0.000000
     4  Si    c     0.039012    0.016558    0.359780    0.000000
     5  Si    c     0.446723    0.042179    0.361666    0.000000
     6  Si    c     0.935893    0.033155    0.607930    0.000000
     7  Si    c     0.538781    0.029173    0.629602    0.000000
     8  Si    c     0.554126    0.032980    0.121354    0.000000
     9  Si    c     0.942015    0.039088    0.096232    0.000000
    10  Si    c     0.435809    0.030660    0.883644    0.000000
    11  Si    c     0.048315    0.012764    0.850176    0.000000
    12  Si    c     0.325354    0.747251    0.268376    0.000000
    13  Si    c     0.826240    0.325410    0.706652    0.000000
    14  Si    c     0.652334    0.739870    0.711714    0.000000
    15  Si    c     0.832832    0.728574    0.707375    0.000000
    16  Si    c     0.646243    0.336458    0.710462    0.000000
    17  Si    c     0.342708    0.345861    0.273955    0.000000
    18  Si    c     0.650941    0.342344    0.016192    0.000000
    19  Si    c     0.840046    0.727277    0.012585    0.000000
    20  Si    c     0.339460    0.343688    0.967179    0.000000
    21  Si    c     0.321867    0.734793    0.958074    0.000000
    22  Si    c     0.159841    0.291424    0.964394    0.000000
    23  Si    c     0.659328    0.741783    0.017044    0.000000
    24  Si    c     0.831160    0.328593    0.012692    0.000000
    25  O3    c     0.110416    0.153989    0.374052    0.000000
    26  O2    c     0.382693    0.890621    0.333981    0.000000
    27  O2    c     0.877901    0.196502    0.620972    0.000000
    28  O2    c     0.598818    0.867606    0.626116    0.000000
    29  O2    c     0.887760    0.851465    0.621523    0.000000
    30  O2    c     0.587705    0.211555    0.627235    0.000000
    31  O3    c     0.076316    0.826462    0.364987    0.000000
    32  O2    c     0.407249    0.232459    0.350962    0.000000
    33  O2    c     0.972026    0.039398    0.465254    0.000000
    34  O2    c     0.480518    0.018302    0.506818    0.000000
    35  O2    c     0.999726    0.058152    0.218666    0.000000
    36  O2    c     0.518966    0.026843    0.264643    0.000000
    37  O2    c     0.007266    0.047430    0.711026    0.000000
    38  O2    c     0.487797    0.014784    0.757852    0.000000
    39  O2    c     0.596846    0.220208    0.103602    0.000000
    40  O2    c     0.897202    0.851068    0.099543    0.000000
    41  O2    c     0.395504    0.220466    0.883803    0.000000
    42  O3    c     0.077025    0.814706    0.856610    0.000000
    43  O2    c     0.370473    0.878195    0.879406    0.000000
    44  O2    c     0.122110    0.145992    0.866148    0.000000
    45  O2    c     0.615406    0.875938    0.109843    0.000000
    46  O2    c     0.880034    0.196177    0.101227    0.000000
    47  O2    c     0.485971    0.003021    0.014965    0.000000
    48  O2    c     0.988829    0.059453    0.963959    0.000000
    49  O1    c     0.122984    0.498607    0.287672    0.000000
    50  O2    c     0.359342    0.553459    0.296190    0.000000
    51  O2    c     0.851182    0.525711    0.676512    0.000000
    52  O2    c     0.626748    0.538901    0.682188    0.000000
    53  O3    c     0.257435    0.299067    0.323528    0.000000
    54  O3    c     0.239099    0.761200    0.324121    0.000000
    55  O2    c     0.734968    0.296532    0.670196    0.000000
    56  O2    c     0.742548    0.768200    0.673776    0.000000
    57  O3    c     0.155977    0.223466    0.111985    0.000000
    58  O2    c     0.316229    0.779442    0.112589    0.000000
    59  O2    c     0.839971    0.283106    0.859448    0.000000
    60  O2    c     0.642977    0.786314    0.865065    0.000000
    61  O2    c     0.851527    0.770976    0.859835    0.000000
    62  O2    c     0.635296    0.295670    0.863777    0.000000
    63  O1    c     0.131359    0.777473    0.111683    0.000000
    64  O2    c     0.348570    0.297634    0.120121    0.000000
    65  O2    c     0.629971    0.544137    0.045536    0.000000
    66  O2    c     0.862324    0.526376    0.041016    0.000000
    67  O2    c     0.363121    0.545620    0.940685    0.000000
    68  O3    c     0.118282    0.478099    0.952211    0.000000
    69  O2    c     0.741233    0.309912    0.052588    0.000000
    70  O2    c     0.751042    0.760959    0.050501    0.000000
    71  O2    c     0.249794    0.315070    0.922581    0.000000
    72  O3    c     0.235045    0.729420    0.900103    0.000000
    73  O3    s     0.107551    0.152121    0.364379    0.000000
    74  O2    s     0.383249    0.891198    0.329547    0.000000
    75  O2    s     0.878357    0.193287    0.629289    0.000000
    76  O2    s     0.598422    0.870526    0.636090    0.000000
    77  O2    s     0.886754    0.857213    0.629765    0.000000
    78  O2    s     0.589026    0.206065    0.636748    0.000000
    79  O3    s     0.077905    0.836870    0.357116    0.000000
    80  O2    s     0.404478    0.224346    0.343760    0.000000
    81  O2    s     0.975467    0.036095    0.469711    0.000000
    82  O2    s     0.483453    0.022337    0.504460    0.000000
    83  O2    s     0.997155    0.051568    0.219271    0.000000
    84  O2    s     0.515007    0.029247    0.258938    0.000000
    85  O2    s     0.003901    0.041908    0.715116    0.000000
    86  O2    s     0.487506    0.018364    0.758071    0.000000
    87  O2    s     0.598349    0.213746    0.095556    0.000000
    88  O2    s     0.895604    0.857039    0.089586    0.000000
    89  O2    s     0.393649    0.213727    0.893023    0.000000
    90  O3    s     0.079253    0.825246    0.863842    0.000000
    91  O2    s     0.372216    0.878931    0.888761    0.000000
    92  O2    s     0.118387    0.147520    0.875056    0.000000
    93  O2    s     0.613725    0.877816    0.100457    0.000000
    94  O2    s     0.881160    0.194276    0.090625    0.000000
    95  O2    s     0.488081    0.009539    0.012304    0.000000
    96  O2    s     0.990090    0.052002    0.966455    0.000000
    97  O1    s     0.127627    0.499649    0.285259    0.000000
    98  O2    s     0.354090    0.551857    0.290948    0.000000
    99  O2    s     0.846548    0.526151    0.683030    0.000000
   100  O2    s     0.631612    0.538593    0.688403    0.000000
   101  O3    s     0.258385    0.303389    0.314537    0.000000
   102  O3    s     0.240335    0.756411    0.314616    0.000000
   103  O2    s     0.735300    0.303946    0.678416    0.000000
   104  O2    s     0.742610    0.760827    0.681489    0.000000
   105  O3    s     0.156689    0.235690    0.110293    0.000000
   106  O2    s     0.317758    0.771304    0.112681    0.000000
   107  O2    s     0.837535    0.292495    0.859463    0.000000
   108  O2    s     0.645715    0.776708    0.865050    0.000000
   109  O2    s     0.848342    0.761931    0.859865    0.000000
   110  O2    s     0.638128    0.304922    0.863810    0.000000
   111  O1    s     0.133013    0.766843    0.111745    0.000000
   112  O2    s     0.346987    0.307578    0.119848    0.000000
   113  O2    s     0.635351    0.543570    0.039331    0.000000
   114  O2    s     0.856648    0.527023    0.034954    0.000000
   115  O2    s     0.356423    0.543612    0.945301    0.000000
   116  O3    s     0.124100    0.477477    0.953633    0.000000
   117  O2    s     0.741217    0.315585    0.044191    0.000000
   118  O2    s     0.750834    0.755049    0.042591    0.000000
   119  O2    s     0.250051    0.315809    0.931899    0.000000
   120  O3    s     0.236366    0.727586    0.910462    0.000000
--------------------------------------------------------------------------------

  Final Cartesian lattice vectors (Angstroms) :

       17.120358   -0.110069   -0.159646
       -0.048264    7.626373   -0.031907
       -0.097313   -0.044897   10.207636


  Final cell parameters and derivatives :

--------------------------------------------------------------------------------
       a           17.121456 Angstrom     dE/de1(xx)     0.002995 eV/strain
       b            7.626592 Angstrom     dE/de2(yy)     0.005518 eV/strain
       c           10.208198 Angstrom     dE/de3(zz)     0.000536 eV/strain
       alpha       90.488225 Degrees      dE/de4(yz)    -0.000587 eV/strain
       beta        91.078816 Degrees      dE/de5(xz)     0.001050 eV/strain
       gamma       90.728679 Degrees      dE/de6(xy)    -0.003175 eV/strain
--------------------------------------------------------------------------------

  Primitive cell volume =          1332.574565 Angs**3

  Density of cell =      1.963557 g/cm**3

  Non-primitive cell volume =          1332.574565 Angs**3


  Final internal derivatives :

--------------------------------------------------------------------------------
   No.  Atomic          a             b             c           Radius
        Label          (eV)          (eV)          (eV)        (eV/Angs)
--------------------------------------------------------------------------------
      1 Ge    c       0.000000      0.000000      0.000000      0.000000
      2 Ge    c       0.007782      0.008466     -0.002106      0.000000
      3 Ge    c       0.016126     -0.000721     -0.002205      0.000000
      4 Si    c      -0.004012      0.003933      0.004040      0.000000
      5 Si    c       0.000808      0.000355      0.000959      0.000000
      6 Si    c       0.003075     -0.000320     -0.001367      0.000000
      7 Si    c      -0.000496      0.000273     -0.000111      0.000000
      8 Si    c      -0.000143     -0.000194     -0.000417      0.000000
      9 Si    c       0.001565     -0.001375     -0.000496      0.000000
     10 Si    c       0.001003     -0.000483     -0.000008      0.000000
     11 Si    c      -0.000741      0.001275      0.001356      0.000000
     12 Si    c       0.003948      0.001175     -0.009265      0.000000
     13 Si    c      -0.000315     -0.000263     -0.000125      0.000000
     14 Si    c       0.001143      0.000053      0.000860      0.000000
     15 Si    c      -0.000154      0.000317      0.000373      0.000000
     16 Si    c       0.000704     -0.000111      0.000448      0.000000
     17 Si    c       0.016181      0.003020     -0.000373      0.000000
     18 Si    c       0.000347      0.000078     -0.000315      0.000000
     19 Si    c      -0.001252      0.000813     -0.000008      0.000000
     20 Si    c      -0.003701      0.003385     -0.001977      0.000000
     21 Si    c      -0.001930     -0.002956      0.006039      0.000000
     22 Si    c       0.005509     -0.003307     -0.003630      0.000000
     23 Si    c       0.000536      0.000248     -0.000215      0.000000
     24 Si    c      -0.002566     -0.000574     -0.000593      0.000000
     25 O3    c      -0.006968     -0.003341     -0.001975      0.000000
     26 O2    c       0.001468      0.000634     -0.000524      0.000000
     27 O2    c      -0.000811      0.000278      0.000217      0.000000
     28 O2    c       0.000208     -0.000221     -0.000117      0.000000
     29 O2    c       0.001128      0.000688     -0.000143      0.000000
     30 O2    c      -0.000476     -0.000014     -0.000087      0.000000
     31 O3    c       0.002712     -0.001786     -0.001402      0.000000
     32 O2    c      -0.000460      0.000236      0.000096      0.000000
     33 O2    c       0.013708     -0.000441     -0.005046      0.000000
     34 O2    c      -0.001758     -0.000164     -0.000801      0.000000
     35 O2    c       0.000236     -0.001210      0.001166      0.000000
     36 O2    c       0.001258      0.000001     -0.000023      0.000000
     37 O2    c      -0.003042     -0.000138     -0.000768      0.000000
     38 O2    c       0.000136     -0.000077     -0.000158      0.000000
     39 O2    c      -0.000319     -0.000082      0.000097      0.000000
     40 O2    c      -0.000081      0.000036     -0.000060      0.000000
     41 O2    c      -0.000112      0.000466     -0.000607      0.000000
     42 O3    c       0.000180     -0.000331      0.000169      0.000000
     43 O2    c      -0.001137      0.000081     -0.000706      0.000000
     44 O2    c       0.001343     -0.000385      0.000154      0.000000
     45 O2    c       0.000103     -0.000145     -0.000109      0.000000
     46 O2    c      -0.000097     -0.000107     -0.000182      0.000000
     47 O2    c       0.000625     -0.000529      0.001846      0.000000
     48 O2    c       0.001596     -0.000368     -0.000132      0.000000
     49 O1    c      -0.013266      0.002844      0.011106      0.000000
     50 O2    c       0.002678     -0.007213      0.003328      0.000000
     51 O2    c      -0.000136     -0.000031      0.000417      0.000000
     52 O2    c       0.000066      0.000412      0.000703      0.000000
     53 O3    c       0.022063     -0.005497      0.011180      0.000000
     54 O3    c      -0.023424     -0.001623      0.003401      0.000000
     55 O2    c      -0.001590      0.000819      0.000273      0.000000
     56 O2    c      -0.002872     -0.000837     -0.000088      0.000000
     57 O3    c      -0.010549     -0.001747      0.002257      0.000000
     58 O2    c      -0.005213     -0.001748     -0.001240      0.000000
     59 O2    c      -0.002077      0.000030      0.000705      0.000000
     60 O2    c       0.002142     -0.000168     -0.001188      0.000000
     61 O2    c      -0.002231      0.000004      0.000443      0.000000
     62 O2    c       0.001744      0.000097     -0.000363      0.000000
     63 O1    c      -0.002046      0.004751     -0.002545      0.000000
     64 O2    c       0.003824     -0.000774     -0.003758      0.000000
     65 O2    c       0.000305      0.000148     -0.000629      0.000000
     66 O2    c       0.000296     -0.000307     -0.000548      0.000000
     67 O2    c      -0.007971     -0.001226      0.001590      0.000000
     68 O3    c      -0.005447      0.011871     -0.004728      0.000000
     69 O2    c       0.002389      0.001236     -0.000178      0.000000
     70 O2    c       0.001193     -0.001226     -0.000099      0.000000
     71 O2    c       0.011242      0.001535     -0.001928      0.000000
     72 O3    c      -0.021650     -0.004904      0.003124      0.000000
     73 O3    s      -0.007164     -0.002099     -0.000512      0.000000
     74 O2    s       0.001224      0.001664     -0.001108      0.000000
     75 O2    s       0.000342     -0.000008      0.000272      0.000000
     76 O2    s       0.001659     -0.000148      0.000438      0.000000
     77 O2    s       0.000631     -0.000246     -0.000173      0.000000
     78 O2    s       0.001292      0.000221      0.000405      0.000000
     79 O3    s      -0.004201      0.003743      0.004133      0.000000
     80 O2    s       0.001680      0.000440      0.001255      0.000000
     81 O2    s      -0.000609     -0.000326     -0.000001      0.000000
     82 O2    s       0.000462      0.000048      0.000662      0.000000
     83 O2    s      -0.000070      0.002210      0.001570      0.000000
     84 O2    s       0.001992      0.000339      0.000233      0.000000
     85 O2    s      -0.000029      0.000090     -0.000863      0.000000
     86 O2    s       0.001376      0.000003     -0.000378      0.000000
     87 O2    s       0.000533      0.000227     -0.000203      0.000000
     88 O2    s      -0.000141      0.000204     -0.000937      0.000000
     89 O2    s      -0.001529      0.001855     -0.001296      0.000000
     90 O3    s       0.001602     -0.000684     -0.000786      0.000000
     91 O2    s      -0.002006     -0.000745      0.000266      0.000000
     92 O2    s      -0.003914     -0.001722     -0.003405      0.000000
     93 O2    s       0.001101     -0.000126     -0.000015      0.000000
     94 O2    s       0.000708      0.000346      0.000268      0.000000
     95 O2    s       0.002061      0.000587     -0.000317      0.000000
     96 O2    s      -0.003139      0.000131      0.001110      0.000000
     97 O1    s      -0.004336      0.001081     -0.001748      0.000000
     98 O2    s       0.001926      0.001959      0.000035      0.000000
     99 O2    s       0.000173     -0.000141      0.001147      0.000000
    100 O2    s       0.001255      0.000258      0.001578      0.000000
    101 O3    s      -0.001668     -0.001404     -0.000992      0.000000
    102 O3    s       0.014421      0.003379      0.001045      0.000000
    103 O2    s      -0.000123      0.000484      0.000402      0.000000
    104 O2    s      -0.000317     -0.000632      0.000528      0.000000
    105 O3    s      -0.003691     -0.002293      0.000496      0.000000
    106 O2    s      -0.001381      0.000579     -0.003425      0.000000
    107 O2    s      -0.001720      0.000621      0.000347      0.000000
    108 O2    s       0.001938     -0.000587     -0.000109      0.000000
    109 O2    s      -0.001010     -0.000498      0.000651      0.000000
    110 O2    s       0.001033      0.000526     -0.000159      0.000000
    111 O1    s      -0.002844     -0.002298     -0.002664      0.000000
    112 O2    s      -0.000602      0.000752     -0.002377      0.000000
    113 O2    s       0.000454      0.000090     -0.001174      0.000000
    114 O2    s      -0.000506     -0.000226     -0.001635      0.000000
    115 O2    s       0.000734      0.000052      0.003407      0.000000
    116 O3    s      -0.005738     -0.001786      0.000583      0.000000
    117 O2    s       0.000281      0.000219     -0.000478      0.000000
    118 O2    s       0.000576     -0.000212     -0.000615      0.000000
    119 O2    s       0.009780     -0.002736      0.000546      0.000000
    120 O3    s       0.015166      0.002883     -0.000006      0.000000
--------------------------------------------------------------------------------
  Maximum abs         0.023424      0.011871      0.011180      0.000000
--------------------------------------------------------------------------------


  Born effective charge tensors : 

-------------------------------------------------------------------------------
  Atom             x           y             z
-------------------------------------------------------------------------------
    1 Ge    x       4.0584      0.3781     -0.1624
            y       0.1158      4.1896     -0.2350
            z      -0.2051      0.0081      3.4511
-------------------------------------------------------------------------------
    2 Ge    x       4.0672     -0.2504     -0.0666
            y      -0.3184      4.2337      0.1916
            z      -0.2237     -0.0344      3.5241
-------------------------------------------------------------------------------
    3 Ge    x       4.0868     -0.3759      0.0927
            y      -0.3367      4.2216     -0.2649
            z       0.2327      0.0238      3.3608
-------------------------------------------------------------------------------
    4 Si    x       3.7810     -0.1811     -0.0171
            y       0.1645      3.5760      0.0006
            z      -0.7262      0.0111      3.8254
-------------------------------------------------------------------------------
    5 Si    x       3.4154     -0.1367      0.3267
            y       0.1232      3.2150      0.0223
            z       0.2458     -0.1076      3.8496
-------------------------------------------------------------------------------
    6 Si    x       3.4283      0.0417     -0.3014
            y      -0.0891      3.2566     -0.0053
            z      -0.3398     -0.0229      3.7189
-------------------------------------------------------------------------------
    7 Si    x       3.4352      0.0650      0.0671
            y      -0.0783      3.2538     -0.0130
            z       0.5787      0.0045      3.7678
-------------------------------------------------------------------------------
    8 Si    x       3.4773      0.0879     -0.3021
            y      -0.1102      3.2710     -0.0108
            z      -0.4227     -0.0084      3.1562
-------------------------------------------------------------------------------
    9 Si    x       3.4631      0.0900      0.0706
            y      -0.1111      3.2594      0.0063
            z       0.5648      0.0443      3.0475
-------------------------------------------------------------------------------
   10 Si    x       3.4962     -0.1460     -0.1278
            y       0.1216      3.2404      0.0175
            z      -0.5445      0.0507      3.0656
-------------------------------------------------------------------------------
   11 Si    x       3.5881     -0.3760      0.2581
            y       0.0619      3.5004      0.0142
            z       0.4085     -0.0937      3.1679
-------------------------------------------------------------------------------
   12 Si    x       3.5711      0.2953     -0.0853
            y       0.1261      3.5479      0.1568
            z       0.0844      0.1171      2.9140
-------------------------------------------------------------------------------
   13 Si    x       3.1817     -0.2787     -0.1230
            y      -0.2152      3.4700      0.1691
            z      -0.1201      0.0849      2.8193
-------------------------------------------------------------------------------
   14 Si    x       3.1945     -0.2856      0.1145
            y      -0.2166      3.4608     -0.1649
            z       0.1048     -0.0667      2.8081
-------------------------------------------------------------------------------
   15 Si    x       3.1842      0.2396     -0.0938
            y       0.2572      3.4377     -0.1729
            z      -0.0960     -0.0896      2.8215
-------------------------------------------------------------------------------
   16 Si    x       3.1867      0.2446      0.0730
            y       0.2645      3.4449      0.1636
            z       0.1056      0.0733      2.8115
-------------------------------------------------------------------------------
   17 Si    x       3.5414     -0.1561     -0.0743
            y      -0.2296      3.5294     -0.2230
            z       0.0491     -0.0895      2.9193
-------------------------------------------------------------------------------
   18 Si    x       3.2335      0.2553     -0.1601
            y       0.2331      3.4130     -0.1852
            z      -0.1612     -0.0769      2.7479
-------------------------------------------------------------------------------
   19 Si    x       3.2416      0.2606      0.1255
            y       0.2412      3.3983      0.1614
            z       0.1271      0.0551      2.7105
-------------------------------------------------------------------------------
   20 Si    x       3.2612     -0.3128     -0.0962
            y      -0.2230      3.3830      0.1759
            z      -0.1539      0.0421      2.7211
-------------------------------------------------------------------------------
   21 Si    x       3.5885      0.3894      0.0494
            y       0.0849      3.5048     -0.2007
            z      -0.0746     -0.0919      2.8179
-------------------------------------------------------------------------------
   22 Si    x       3.4517      0.3410      0.1632
            y      -0.0553      3.7990      0.0543
            z       0.1757     -0.1093      3.0405
-------------------------------------------------------------------------------
   23 Si    x       3.2079     -0.3032     -0.1868
            y      -0.1415      3.4419      0.1880
            z      -0.1189      0.0832      2.7545
-------------------------------------------------------------------------------
   24 Si    x       3.2194     -0.3013      0.1464
            y      -0.1527      3.4377     -0.1734
            z       0.1185     -0.0687      2.7232
-------------------------------------------------------------------------------
   25 O3    x      -2.2565     -0.9158      0.3074
            y      -0.9576     -2.1270      0.3467
            z       0.3912      0.3023     -1.5869
-------------------------------------------------------------------------------
   26 O2    x      -1.7825     -0.7497     -0.3446
            y      -0.7713     -1.9933     -0.3575
            z      -0.3601     -0.3441     -1.3239
-------------------------------------------------------------------------------
   27 O2    x      -1.7075      0.7268      0.3676
            y       0.7489     -1.9846     -0.3820
            z       0.3708     -0.3580     -1.3581
-------------------------------------------------------------------------------
   28 O2    x      -1.7330      0.7305     -0.2856
            y       0.7541     -1.9606      0.3149
            z      -0.3503      0.3003     -1.3407
-------------------------------------------------------------------------------
   29 O2    x      -1.6420     -0.7015      0.3570
            y      -0.6760     -1.9984      0.3843
            z       0.3585      0.3708     -1.3724
-------------------------------------------------------------------------------
   30 O2    x      -1.6631     -0.7185     -0.2783
            y      -0.6997     -2.0036     -0.2980
            z      -0.3540     -0.2997     -1.3359
-------------------------------------------------------------------------------
   31 O3    x      -1.9657      0.8939      0.3347
            y       0.8621     -2.4037     -0.3382
            z       0.4606     -0.3130     -1.5411
-------------------------------------------------------------------------------
   32 O2    x      -1.6521      0.7056     -0.3295
            y       0.6476     -2.0201      0.3257
            z      -0.3330      0.3343     -1.3575
-------------------------------------------------------------------------------
   33 O2    x      -1.6668      0.0504      0.7610
            y       0.0278     -1.0825     -0.0330
            z       1.0038     -0.0552     -2.6132
-------------------------------------------------------------------------------
   34 O2    x      -1.5795      0.0365     -0.7942
            y       0.0046     -1.0910      0.0319
            z      -0.9656      0.0804     -2.7843
-------------------------------------------------------------------------------
   35 O2    x      -1.6524      0.0119     -0.6650
            y      -0.0032     -1.1551      0.0532
            z      -0.6312      0.0654     -2.2811
-------------------------------------------------------------------------------
   36 O2    x      -1.7480      0.0268      0.6903
            y       0.0172     -1.0985     -0.0096
            z       0.7161     -0.0048     -2.2033
-------------------------------------------------------------------------------
   37 O2    x      -1.7587      0.0545     -0.6686
            y       0.0038     -1.1091      0.0444
            z      -0.6626      0.0711     -2.1297
-------------------------------------------------------------------------------
   38 O2    x      -1.7240      0.0222      0.7630
            y       0.0010     -1.1231     -0.0070
            z       0.7290     -0.0179     -2.2350
-------------------------------------------------------------------------------
   39 O2    x      -1.6471     -0.6972      0.3837
            y      -0.6235     -2.0153      0.4099
            z       0.3734      0.3798     -1.2775
-------------------------------------------------------------------------------
   40 O2    x      -1.6734     -0.7007     -0.2900
            y      -0.6395     -2.0020     -0.3073
            z      -0.3392     -0.2939     -1.2254
-------------------------------------------------------------------------------
   41 O2    x      -1.6725      0.7208      0.2962
            y       0.6147     -2.0146     -0.3174
            z       0.3484     -0.3125     -1.2134
-------------------------------------------------------------------------------
   42 O3    x      -1.9250      0.8973     -0.4233
            y       0.7319     -2.5595      0.4355
            z      -0.4128      0.3821     -1.4005
-------------------------------------------------------------------------------
   43 O2    x      -1.7588     -0.7293      0.2577
            y      -0.6862     -1.9547      0.3061
            z       0.3107      0.2902     -1.2056
-------------------------------------------------------------------------------
   44 O2    x      -1.8311     -0.6484     -0.3700
            y      -0.6123     -1.8029     -0.3685
            z      -0.3424     -0.3146     -1.2939
-------------------------------------------------------------------------------
   45 O2    x      -1.7118      0.7179      0.3835
            y       0.6809     -1.9493     -0.3976
            z       0.3507     -0.3610     -1.2841
-------------------------------------------------------------------------------
   46 O2    x      -1.7420      0.7236     -0.2806
            y       0.7065     -1.9428      0.3140
            z      -0.3313      0.2953     -1.2291
-------------------------------------------------------------------------------
   47 O2    x      -1.8361      0.0013     -0.6097
            y      -0.0082     -1.1625      0.0048
            z      -0.3529      0.0053     -1.7080
-------------------------------------------------------------------------------
   48 O2    x      -1.7717      0.0393      0.6168
            y       0.0104     -1.1768     -0.0401
            z       0.3446     -0.0387     -1.7733
-------------------------------------------------------------------------------
   49 O1    x      -1.4769      0.1092      0.0659
            y       0.1862     -3.3807      0.0036
            z       0.1039     -0.0175     -1.2414
-------------------------------------------------------------------------------
   50 O2    x      -1.1692      0.0685     -0.0442
            y       0.1511     -2.5750      0.0328
            z      -0.0731      0.0011     -1.0970
-------------------------------------------------------------------------------
   51 O2    x      -1.1534     -0.0241      0.0628
            y      -0.0484     -2.5670      0.0039
            z       0.0727     -0.0024     -1.0723
-------------------------------------------------------------------------------
   52 O2    x      -1.1559     -0.0184     -0.0602
            y      -0.0429     -2.5626     -0.0015
            z      -0.0751      0.0046     -1.0645
-------------------------------------------------------------------------------
   53 O3    x      -3.0264     -0.2478      0.1042
            y      -0.2038     -1.3865      0.1039
            z       0.1199      0.0590     -1.2677
-------------------------------------------------------------------------------
   54 O3    x      -3.0334     -0.0787      0.1604
            y       0.0266     -1.3618     -0.0898
            z       0.1991     -0.0478     -1.2879
-------------------------------------------------------------------------------
   55 O2    x      -2.3851      0.0429      0.0302
            y       0.0191     -1.2440     -0.0680
            z       0.0149     -0.0482     -1.0724
-------------------------------------------------------------------------------
   56 O2    x      -2.3944      0.0452      0.0288
            y       0.0214     -1.2442      0.0664
            z       0.0287      0.0458     -1.0647
-------------------------------------------------------------------------------
   57 O3    x      -1.3660     -0.1626     -0.0008
            y      -0.0857     -1.4446      0.1191
            z       0.0057      0.0700     -2.5676
-------------------------------------------------------------------------------
   58 O2    x      -1.2024     -0.0950      0.0038
            y      -0.0299     -1.3035     -0.0353
            z      -0.0018     -0.0182     -2.1097
-------------------------------------------------------------------------------
   59 O2    x      -1.1707      0.1249     -0.0379
            y       0.0949     -1.2830     -0.0118
            z      -0.0364      0.0009     -2.0650
-------------------------------------------------------------------------------
   60 O2    x      -1.1759      0.1303      0.0010
            y       0.1007     -1.2836      0.0072
            z      -0.0146     -0.0044     -2.0666
-------------------------------------------------------------------------------
   61 O2    x      -1.2006     -0.1314     -0.0434
            y      -0.1233     -1.2723      0.0062
            z      -0.0586      0.0063     -2.0589
-------------------------------------------------------------------------------
   62 O2    x      -1.1849     -0.1246      0.0084
            y      -0.1160     -1.2744     -0.0029
            z       0.0071     -0.0091     -2.0715
-------------------------------------------------------------------------------
   63 O1    x      -1.4590      0.1774     -0.0292
            y       0.1509     -1.5584     -0.0657
            z      -0.0317     -0.0540     -2.7144
-------------------------------------------------------------------------------
   64 O2    x      -1.1945      0.1185     -0.0204
            y       0.1004     -1.2827     -0.0010
            z      -0.0100     -0.0095     -2.0974
-------------------------------------------------------------------------------
   65 O2    x      -1.2058     -0.0263      0.0892
            y      -0.0630     -2.5185      0.0020
            z       0.0967      0.0071     -1.0298
-------------------------------------------------------------------------------
   66 O2    x      -1.2203     -0.0313     -0.0813
            y      -0.0694     -2.5068      0.0068
            z      -0.0946      0.0031     -1.0195
-------------------------------------------------------------------------------
   67 O2    x      -1.2515      0.0411      0.0613
            y       0.1126     -2.4751      0.0376
            z       0.0983      0.0342     -1.0266
-------------------------------------------------------------------------------
   68 O3    x      -1.5140      0.2103     -0.0695
            y       0.2822     -3.1286      0.0665
            z      -0.1175      0.0662     -1.0907
-------------------------------------------------------------------------------
   69 O2    x      -2.4057      0.0486      0.0314
            y       0.0285     -1.2355      0.0655
            z       0.0292      0.0384     -1.0453
-------------------------------------------------------------------------------
   70 O2    x      -2.4164      0.0518      0.0331
            y       0.0279     -1.2353     -0.0638
            z       0.0262     -0.0378     -1.0379
-------------------------------------------------------------------------------
   71 O2    x      -2.4481     -0.1828     -0.0328
            y      -0.1259     -1.2598     -0.0488
            z      -0.0431     -0.0119     -1.0604
-------------------------------------------------------------------------------
   72 O3    x      -3.0481     -0.1285     -0.1308
            y      -0.0447     -1.3707      0.0795
            z      -0.1772      0.0217     -1.2411
-------------------------------------------------------------------------------




  Elastic Constant Matrix: (Units=GPa)

-------------------------------------------------------------------------------
  Indices      1         2         3         4         5         6    
-------------------------------------------------------------------------------
       1     49.2313   23.4885   21.8162    0.1310   -4.5570   -6.2455
       2     23.4885   74.2717   21.2230    0.6338   -3.3211   -6.4333
       3     21.8162   21.2230   32.9158   -0.6571   -2.8379   -4.4500
       4      0.1310    0.6338   -0.6571   12.0354   -1.9440   -0.0865
       5     -4.5570   -3.3211   -2.8379   -1.9440   24.0101   -1.0090
       6     -6.2455   -6.4333   -4.4500   -0.0865   -1.0090   23.8617
-------------------------------------------------------------------------------


  Elastic Compliance Matrix: (Units=1/GPa)

-------------------------------------------------------------------------------
  Indices      1         2         3         4         5         6    
-------------------------------------------------------------------------------
       1    0.030593 -0.004441 -0.016612 -0.000436  0.003355  0.003852
       2   -0.004441  0.017352 -0.007938 -0.001186  0.000610  0.002057
       3   -0.016612 -0.007938  0.047044  0.003457  0.001689  0.002369
       4   -0.000436 -0.001186  0.003457  0.084487  0.007037  0.000815
       5    0.003355  0.000610  0.001689  0.007037  0.043275  0.003213
       6    0.003852  0.002057  0.002369  0.000815  0.003213  0.044052
-------------------------------------------------------------------------------

  Mechanical properties :

-------------------------------------------------------------------------------
  Convention :                    Reuss         Voigt         Hill
-------------------------------------------------------------------------------
  Bulk  Modulus (GPa)     =      27.02140      32.16379      29.59259
  Shear Modulus (GPa)     =      14.83155      17.97416      16.40286
-------------------------------------------------------------------------------
  Velocity S-wave (km/s)  =       2.74835       3.02554       2.89027
  Velocity P-wave (km/s)  =       4.88187       5.34654       5.11948
-------------------------------------------------------------------------------
  Compressibility (1/GPa) =    0.03700771
-------------------------------------------------------------------------------
  Stress axis :                     x             y             z
-------------------------------------------------------------------------------
  Youngs Moduli (GPa)     =      32.68743      57.62937      21.25681
-------------------------------------------------------------------------------
  Poissons Ratio (x)      =                     0.25592       0.35312
  Poissons Ratio (y)      =       0.14516                     0.16873
  Poissons Ratio (z)      =       0.54300       0.45745
-------------------------------------------------------------------------------


  Piezoelectric Strain Matrix: (Units=C/m**2)

-------------------------------------------------------------------------------
  Indices      1         2         3         4         5         6    
-------------------------------------------------------------------------------
       x     0.43779   0.45709  -0.28762  -0.00992  -0.04342   0.07716
       y     1.18157   0.67299   0.13916   0.04365   0.20839   0.17763
       z    -0.12162  -0.13548  -0.10269   0.06114  -0.33291  -0.00905
-------------------------------------------------------------------------------


  Piezoelectric Stress Matrix: (Units=10**-11 C/N)

-------------------------------------------------------------------------------
  Indices      1         2         3         4         5         6    
-------------------------------------------------------------------------------
       x     1.62971   0.84145  -2.43561  -0.28079  -0.04390   0.51969
       y     3.22117   0.57669  -1.74999   0.44669   1.45058   1.47962
       z    -0.25918  -0.12897  -0.21075   0.26745  -1.46694  -0.24091
-------------------------------------------------------------------------------


  Static dielectric constant tensor : 

-------------------------------------------------------------------------------
              x         y         z
-------------------------------------------------------------------------------
       x     3.90038  -0.03446  -0.01090
       y    -0.03446   4.14280  -0.00126
       z    -0.01090  -0.00126   3.10273
--------------------------------------------------------------------------------

  High frequency dielectric constant tensor : 

-------------------------------------------------------------------------------
              x         y         z
-------------------------------------------------------------------------------
       x     1.68289  -0.00100  -0.00140
       y    -0.00100   1.68908  -0.00078
       z    -0.00140  -0.00078   1.62335
-------------------------------------------------------------------------------

  Static refractive indices : 

-------------------------------------------------------------------------------
    1 =    1.76141      2 =    1.97376      3 =    2.03657
-------------------------------------------------------------------------------

  High frequency refractive indices : 

-------------------------------------------------------------------------------
    1 =    1.27409      2 =    1.29722      3 =    1.29971
-------------------------------------------------------------------------------


  Time to end of optimisation =      12.0100 seconds


  Peak dynamic memory used =       5.01 MB 


  Timing analysis for GULP :

--------------------------------------------------------------------------------
  Task / Subroutine                                          Time (Seconds)
--------------------------------------------------------------------------------
  Calculation of reciprocal space energy and derivatives          0.6323
  Calculation of real space energy and derivatives                8.0672
  Calculation of three-body energy and derivatives                0.6652
  Calculation and manipulation of Hessian matrix                  3.1777
  Calculation of matrix inversion                                 0.0397
  Global summation overhead                                       0.0001
--------------------------------------------------------------------------------
  Total CPU time                                                 12.0100
--------------------------------------------------------------------------------


  Dump file written as c00229.vasp.grs
  CIF file written as c00229.vasp.cif


  Job Finished at 12:07.58  7th October    2025                               

