   72
Geometry Step: 0
   Ge      1.51640887      3.67434600      7.70763040      3.16911928
   Ge      6.51966213      3.67434600      0.91484460      3.16911928
   Ge      6.51966213     11.35365400      0.91484460      3.16911928
   Ge      1.51640887     11.35365400      7.70763040      3.16911928
   Ge      6.74140887     11.18834600      7.70763040      3.16911928
   Ge      1.29466213     11.18834600      0.91484460      3.16911928
   Ge      1.29466213      3.83965400      0.91484460      3.16911928
   Ge      6.74140887      3.83965400      7.70763040      3.16911928
   Ge      2.40431475      5.97964120      2.86007496      3.17864128
   Ge      5.63175625      5.97964120      5.76240004      3.17864128
   Ge      5.63175625      9.04835880      5.76240004      3.17864128
   Ge      2.40431475      9.04835880      2.86007496      3.17864128
   Ge      7.62931475     13.49364120      2.86007496      3.17864128
   Ge      0.40675625     13.49364120      5.76240004      3.17864128
   Ge      0.40675625      1.53435880      5.76240004      3.17864128
   Ge      7.62931475      1.53435880      2.86007496      3.17864128
   Ge      2.56407553      5.97964120      5.91760459      3.18122653
   Ge      5.47199547      5.97964120      2.70487041      3.18122653
   Ge      5.47199547      9.04835880      2.70487041      3.18122653
   Ge      2.56407553      9.04835880      5.91760459      3.18122653
   Ge      7.78907553     13.49364120      5.91760459      3.18122653
   Ge      0.24699547     13.49364120      2.70487041      3.18122653
   Ge      0.24699547      1.53435880      2.70487041      3.18122653
   Ge      7.78907553      1.53435880      5.91760459      3.18122653
    O      5.22500000      3.40534480      0.00000000      6.40190667
    O      5.22500000     11.62265520      0.00000000      6.40190667
    O      0.00000000     10.91934480      0.00000000      6.40190667
    O      0.00000000      4.10865520      0.00000000      6.40190667
    O      1.37088378      2.46609480      6.65223946      6.39359793
    O      6.66518722      2.46609480      1.97023554      6.39359793
    O      6.66518722     12.56190520      1.97023554      6.39359793
    O      1.37088378     12.56190520      6.65223946      6.39359793
    O      6.59588378      9.98009480      6.65223946      6.39359793
    O      1.44018722      9.98009480      1.97023554      6.39359793
    O      1.44018722      5.04790520      1.97023554      6.39359793
    O      6.59588378      5.04790520      6.65223946      6.39359793
    O      1.68921648      5.05992760      6.90746472      6.39665380
    O      6.34685452      5.05992760      1.71501028      6.39665380
    O      6.34685452      9.96807240      1.71501028      6.39665380
    O      1.68921648      9.96807240      6.90746472      6.39665380
    O      6.91421648     12.57392760      6.90746472      6.39665380
    O      1.12185452     12.57392760      1.71501028      6.39665380
    O      1.12185452      2.45407240      1.71501028      6.39665380
    O      6.91421648      2.45407240      6.90746472      6.39665380
    O      2.61250000      3.75700000      0.00000000      6.40022858
    O      7.83750000      3.75700000      0.00000000      6.40022858
    O      7.83750000     11.27100000      0.00000000      6.40022858
    O      2.61250000     11.27100000      0.00000000      6.40022858
    O      3.91513367      5.85340600      2.31599678      6.43683065
    O      4.12093733      5.85340600      6.30647822      6.43683065
    O      4.12093733      9.17459400      6.30647822      6.43683065
    O      3.91513367      9.17459400      2.31599678      6.43683065
    O      9.14013367     13.36740600      2.31599678      6.43683065
    O     -1.10406267     13.36740600      6.30647822      6.43683065
    O     -1.10406267      1.66059400      6.30647822      6.43683065
    O      9.14013367      1.66059400      2.31599678      6.43683065
    O      2.34641400      5.50175080      4.39573775      6.42453906
    O      5.68965700      5.50175080      4.22673724      6.42453906
    O      5.68965700      9.52624920      4.22673724      6.42453906
    O      2.34641400      9.52624920      4.39573775      6.42453906
    O      7.57141400     13.01575080      4.39573775      6.42453906
    O      0.46465700     13.01575080      4.22673724      6.42453906
    O      0.46465700      2.01224920      4.22673724      6.42453906
    O      7.57141400      2.01224920      4.39573775      6.42453906
    O      1.92565329      7.51400000      2.75574301      6.41867956
    O      6.11041771      7.51400000      5.86673199      6.41867956
    O      7.15065329      0.00000000      2.75574301      6.41867956
    O      0.88541771      0.00000000      5.86673199      6.41867956
    O      2.09724095      7.51400000      6.06591116      6.41796815
    O      5.93883005      7.51400000      2.55656384      6.41796815
    O      7.32224095      0.00000000      6.06591116      6.41796815
    O      0.71383005      0.00000000      2.55656384      6.41796815
   72
Geometry Step: 1
   Ge      1.51672094      3.67379802      7.70770555      3.19313612
   Ge      6.51935006      3.67379802      0.91476945      3.17073841
   Ge      6.51935006     11.35420198      0.91476945      3.16460750
   Ge      1.51672094     11.35420198      7.70770555      3.18697042
   Ge      6.74172094     11.18779802      7.70770555      3.20140312
   Ge      1.29435006     11.18779802      0.91476945      3.17541684
   Ge      1.29435006      3.84020198      0.91476945      3.17909280
   Ge      6.74172094      3.84020198      7.70770555      3.20562852
   Ge      2.40317209      5.97943464      2.85896950      3.18828353
   Ge      5.63289891      5.97943464      5.76350550      3.17460088
   Ge      5.63289891      9.04856536      5.76350550      3.17448732
   Ge      2.40317209      9.04856536      2.85896950      3.18759036
   Ge      7.62817209     13.49343464      2.85896950      3.20334328
   Ge      0.40789891     13.49343464      5.76350550      3.19488143
   Ge      0.40789891      1.53456536      5.76350550      3.18812568
   Ge      7.62817209      1.53456536      2.85896950      3.19605043
   Ge      2.56278320      5.97902168      5.91862518      3.18258175
   Ge      5.47328780      5.97902168      2.70384982      3.18724408
   Ge      5.47328780      9.04897832      2.70384982      3.18686800
   Ge      2.56278320      9.04897832      5.91862518      3.18239315
   Ge      7.78778320     13.49302168      5.91862518      3.21929279
   Ge      0.24828780     13.49302168      2.70384982      3.23380293
   Ge      0.24828780      1.53497832      2.70384982      3.23069636
   Ge      7.78778320      1.53497832      5.91862518      3.21726183
    O      5.22500000      3.38948803      0.00000000      6.41142814
    O      5.22500000     11.63851197      0.00000000      6.40976108
    O     -0.00000000     10.90348803     -0.00000000      6.43440731
    O     -0.00000000      4.12451197     -0.00000000      6.43571943
    O      1.39338561      2.45757375      6.64743988      6.37520920
    O      6.64268539      2.45757375      1.97503512      6.38835412
    O      6.64268539     12.57042625      1.97503512      6.38051767
    O      1.39338561     12.57042625      6.64743988      6.36837055
    O      6.61838561      9.97157375      6.64743988      6.36522823
    O      1.41768539      9.97157375      1.97503512      6.38799713
    O      1.41768539      5.05642625      1.97503512      6.38742415
    O      6.61838561      5.05642625      6.64743988      6.36601929
    O      1.67008682      5.07452525      6.91175186      6.37919928
    O      6.36598418      5.07452525      1.71072314      6.39265213
    O      6.36598418      9.95347475      1.71072314      6.39285824
    O      1.67008682      9.95347475      6.91175186      6.37875302
    O      6.89508682     12.58852525      6.91175186      6.34345778
    O      1.14098418     12.58852525      1.71072314      6.36580148
    O      1.14098418      2.43947475      1.71072314      6.37383209
    O      6.89508682      2.43947475      6.91175186      6.34926396
    O      2.61250000      3.75700000      0.00000000      6.40807742
    O      7.83750000      3.75700000      0.00000000      6.39500160
    O      7.83750000     11.27100000      0.00000000      6.39434209
    O      2.61250000     11.27100000      0.00000000      6.40703214
    O      3.91353198      5.84559917      2.28931286      6.43035393
    O      4.12253902      5.84559917      6.33316214      6.43529017
    O      4.12253902      9.18240083      6.33316214      6.43615513
    O      3.91353198      9.18240083      2.28931286      6.43132047
    O      9.13853198     13.35959917      2.28931286      6.43364576
    O     -1.10246098     13.35959917      6.33316214      6.43375150
    O     -1.10246098      1.66840083      6.33316214      6.45600617
    O      9.13853198      1.66840083      2.28931286      6.45607487
    O      2.33741921      5.47432678      4.39624815      6.42107431
    O      5.69865179      5.47432678      4.22622685      6.42002483
    O      5.69865179      9.55367322      4.22622685      6.42401542
    O      2.33741921      9.55367322      4.39624815      6.42511268
    O      7.56241921     12.98832678      4.39624815      6.38372354
    O      0.47365179     12.98832678      4.22622685      6.38515510
    O      0.47365179      2.03967322      4.22622685      6.40503915
    O      7.56241921      2.03967322      4.39624815      6.40351771
    O      1.89786840      7.51400000      2.74886154      6.41486241
    O      6.13820260      7.51400000      5.87361346      6.41334333
    O      7.12286840     -0.00000000      2.74886154      6.43220476
    O      0.91320260     -0.00000000      5.87361346      6.43042343
    O      2.07026326      7.51400000      6.07555483      6.41267177
    O      5.96580774      7.51400000      2.54692017      6.41622859
    O      7.29526326      0.00000000      6.07555483      6.39123150
    O      0.74080774     -0.00000000      2.54692017      6.39356838
   72
Geometry Step: 2
   Ge      1.51431033      3.66749132      7.75670340      3.19053671
   Ge      6.51643550      3.67265950      0.91922598      3.17373818
   Ge      6.51615618     11.35369096      0.91862678      3.17117294
   Ge      1.51457948     11.35893671      7.75726071      3.18788393
   Ge      6.75528640     11.17847369      7.77037229      3.20635538
   Ge      1.29048730     11.18597276      0.91473138      3.18398814
   Ge      1.29022013      3.84024105      0.91492014      3.18708462
   Ge      6.75552843      3.84789252      7.77022933      3.20969520
   Ge      2.40284167      5.97913071      2.85775453      3.19554152
   Ge      5.63056353      5.98083495      5.76136626      3.18956304
   Ge      5.63028524      9.04550024      5.76098929      3.18910115
   Ge      2.40310317      9.04723658      2.85811744      3.19500742
   Ge      7.61671824     13.54352274      2.85239178      3.21638166
   Ge      0.41902762     13.54413570      5.76735595      3.21506263
   Ge      0.40290866      1.53116319      5.76316316      3.20378805
   Ge      7.63281745      1.53180324      2.85651855      3.20502792
   Ge      2.56346097      5.97940907      5.91625924      3.19711291
   Ge      5.47233874      5.97891939      2.70335601      3.19577061
   Ge      5.47213274      9.04747626      2.70372428      3.19531965
   Ge      2.56367319      9.04697010      5.91587458      3.19663067
   Ge      7.83064751     13.53710251      5.93415980      3.24108521
   Ge      0.20795816     13.53570478      2.68501174      3.24734176
   Ge      0.19246807      1.53986049      2.69065823      3.23729474
   Ge      7.84618860      1.53837845      5.92841178      3.23154672
    O      5.18725733      3.37192815     -0.02720549      6.40181847
    O      5.18727105     11.65629917     -0.02718914      6.40247502
    O     -0.05618324     10.88893102     -0.04087979      6.42948103
    O     -0.05619552      4.13940890     -0.04091176      6.43121539
    O      1.43156471      2.44830357      6.64380440      6.37188520
    O      6.60552745      2.44605572      1.98168883      6.37406242
    O      6.60625951     12.58424365      1.98318696      6.37124403
    O      1.43081732     12.58197785      6.64229323      6.36917554
    O      6.65686723      9.96278385      6.64479181      6.36738940
    O      1.38197586      9.95876862      1.98306363      6.37743933
    O      1.38241124      5.07036947      1.98372494      6.37841211
    O      6.65640320      5.06636487      6.64409807      6.36873704
    O      1.63844863      5.09416582      6.92209790      6.38174050
    O      6.39715128      5.09669310      1.70296689      6.38425847
    O      6.39755867      9.93250532      1.70240906      6.38314888
    O      1.63803328      9.93504044      6.92267972      6.38047468
    O      6.86499758     12.60925134      6.92202508      6.35454151
    O      1.17001490     12.61424104      1.70544671      6.36566844
    O      1.17065640      2.41615957      1.70417443      6.36777674
    O      6.86435998      2.42109267      6.92333265      6.35580526
    O      2.65492816      3.75436604     -0.02916256      6.40845051
    O      7.88241292      3.76020643     -0.03073373      6.39800968
    O      7.88243397     11.26809553     -0.03062076      6.39752427
    O      2.65487870     11.27393297     -0.02924288      6.40803562
    O      3.91191912      5.83407830      2.24846846      6.42524697
    O      4.12543119      5.83376902      6.37464899      6.42954089
    O      4.12544540      9.19465999      6.37474390      6.43020523
    O      3.91190568      9.19434804      2.24837448      6.42592342
    O      9.19449540     13.35291532      2.26351829      6.42791850
    O     -1.15938958     13.35269853      6.35945070      6.42862391
    O     -1.15996034      1.67594976      6.35961344      6.43842780
    O      9.19507789      1.67573479      2.26335403      6.43776534
    O      2.32408645      5.43232822      4.39816021      6.41579235
    O      5.71242610      5.43221326      4.22733636      6.41509547
    O      5.71249441      9.59624804      4.22733832      6.41569268
    O      2.32401912      9.59613250      4.39816393      6.41640202
    O      7.54911822     12.94712963      4.40281009      6.38296384
    O      0.48684786     12.94723755      4.22259568      6.38344712
    O      0.48644269      2.08253004      4.22252915      6.39508136
    O      7.54952298      2.08264301      4.40287917      6.39460734
    O      1.85497335      7.51472518      2.73881747      6.40816101
    O      6.18145429      7.51472908      5.88432279      6.40735552
    O      7.09385246     -0.05044851      2.74267425      6.41444985
    O      0.94217028     -0.05042190      5.88030998      6.41342544
    O      2.02870081      7.51471653      6.09040871      6.40663013
    O      6.00752905      7.51471310      2.53262220      6.40923928
    O      7.27007383     -0.05011781      6.08614219      6.39297794
    O      0.76564825     -0.05020312      2.53689284      6.39422629
   72
Geometry Step: 3
   Ge      1.49789792      3.66937733      7.79119455      3.19620276
   Ge      6.52070928      3.67270949      0.87746186      3.18807375
   Ge      6.52103094     11.35858791      0.87845279      3.18535537
   Ge      1.49774902     11.36121296      7.79039448      3.19330726
   Ge      6.78378560     11.17206534      7.83489025      3.20939310
   Ge      1.27816598     11.18456080      0.86749807      3.19523954
   Ge      1.27837261      3.84650089      0.86759274      3.20014460
   Ge      6.78352147      3.85752580      7.83502580      3.21423857
   Ge      2.40977647      5.98504653      2.86439083      3.21438615
   Ge      5.62898281      5.98356549      5.76186996      3.21053770
   Ge      5.62910738      9.04601865      5.76199465      3.21013376
   Ge      2.40947925      9.04462924      2.86407900      3.21400223
   Ge      7.63752496     13.59383393      2.84665961      3.23926584
   Ge      0.40047755     13.59305243      5.77775002      3.23530274
   Ge      0.37632565      1.50154327      5.77732393      3.22469769
   Ge      7.66184916      1.50034937      2.84734124      3.22825910
   Ge      2.56782982      5.98309282      5.91353952      3.21506058
   Ge      5.46690887      5.98427338      2.71232467      3.21815825
   Ge      5.46712334      9.04525768      2.71197264      3.21775482
   Ge      2.56744105      9.04664454      5.91401784      3.21452208
   Ge      7.87449727     13.57506899      5.95414936      3.25930682
   Ge      0.16224370     13.57612703      2.67054287      3.26234455
   Ge      0.13151964      1.51173286      2.67265453      3.24872976
   Ge      7.90452568      1.51299143      5.95452246      3.24620579
    O      5.17671347      3.35196782     -0.03335085      6.39181507
    O      5.17658484     11.67650050     -0.03341221      6.39245247
    O     -0.10401519     10.88059467     -0.07776920      6.40648154
    O     -0.10387944      4.14784749     -0.07772240      6.41005067
    O      1.47954971      2.44432485      6.64523869      6.36741923
    O      6.55659764      2.42256970      1.99610418      6.37188155
    O      6.56501163     12.61116346      2.00196143      6.37027923
    O      1.47148828     12.58952913      6.63931901      6.36612773
    O      6.70689161      9.96625736      6.65301493      6.36655474
    O      1.32960691      9.94256533      1.99193597      6.37307337
    O      1.32836644      5.08363738      1.98953785      6.37484900
    O      6.70790510      5.06092163      6.65450242      6.36873997
    O      1.59232669      5.09948845      6.94776567      6.37794753
    O      6.44412922      5.12435622      1.68774886      6.38224568
    O      6.44304339      9.90185053      1.68988513      6.38032507
    O      1.59356073      9.92697339      6.94565906      6.37563058
    O      6.83785722     12.62814653      6.92966410      6.36573105
    O      1.19869149     12.65685322      1.70950946      6.37069057
    O      1.20633191      2.37707185      1.70242983      6.37421118
    O      6.83126312      2.40573550      6.93627461      6.36777390
    O      2.68008350      3.75296805     -0.04750084      6.40217490
    O      7.91002818      3.76222936     -0.04924443      6.40118255
    O      7.91013685     11.26627024     -0.04917087      6.39954680
    O      2.67996058     11.27553772     -0.04748784      6.40091569
    O      3.90827438      5.81858673      2.19233877      6.41348131
    O      4.12684793      5.81784852      6.43179085      6.41625391
    O      4.12683640      9.21090628      6.43192335      6.41699205
    O      3.90829335      9.21015975      2.19221241      6.41425862
    O      9.23209066     13.34963307      2.24962618      6.40848175
    O     -1.19707531     13.34926757      6.37351241      6.41064109
    O     -1.20552446      1.68143242      6.37840278      6.41379907
    O      9.24083276      1.68106034      2.24474721      6.41178824
    O      2.30672541      5.37532435      4.39551213      6.40079575
    O      5.73003588      5.37498339      4.22303735      6.39949331
    O      5.73004852      9.65355315      4.22308869      6.39964832
    O      2.30671633      9.65321187      4.39557143      6.40103603
    O      7.53619647     12.90727355      4.40984416      6.37957635
    O      0.49907690     12.90726546      4.21115320      6.38004304
    O      0.50233622      2.13312076      4.20816853      6.39215040
    O      7.53258457      2.13373047      4.41102880      6.39247111
    O      1.79714954      7.51246020      2.72612534      6.39754172
    O      6.24021914      7.51243178      5.89791223      6.39482197
    O      7.06939659     -0.08272680      2.73723616      6.39250082
    O      0.96658296     -0.08279968      5.88615437      6.38943597
    O      1.97258470      7.51251615      6.10965152      6.39455894
    O      6.06378954      7.51253025      2.51411786      6.39778148
    O      7.25526071     -0.07540206      6.09286842      6.39022872
    O      0.77991479     -0.07549688      2.53063345      6.39349715
   72
Geometry Step: 4
   Ge      1.47825470      3.65955793      7.84325609      3.19909487
   Ge      6.53614992      3.66757535      0.86248082      3.19738598
   Ge      6.53674986     11.36508985      0.86819687      3.19680399
   Ge      1.47795139     11.37304599      7.83718023      3.19862751
   Ge      6.80688094     11.17758706      7.89956210      3.21103545
   Ge      1.25867330     11.19370165      0.83871623      3.20608445
   Ge      1.25954662      3.83892947      0.83453180      3.20886363
   Ge      6.80637702      3.85509328      7.90332753      3.21289371
   Ge      2.40948036      5.98372918      2.86197664      3.23807450
   Ge      5.63788243      5.97119445      5.76637269      3.23763679
   Ge      5.63825542      9.05347480      5.76595268      3.23809973
   Ge      2.41040035      9.04000434      2.86340741      3.23891021
   Ge      7.65368004     13.63328469      2.84692758      3.25690662
   Ge      0.39121746     13.62395908      5.78148706      3.25748609
   Ge      0.36243650      1.49190037      5.78135449      3.24731095
   Ge      7.68333044      1.48248150      2.84669965      3.24676669
   Ge      2.55949319      5.97305338      5.91634742      3.24252910
   Ge      5.46567179      5.98405536      2.71072374      3.24163323
   Ge      5.46502362      9.04009087      2.71229121      3.24235141
   Ge      2.55941144      9.05168177      5.91559586      3.24292110
   Ge      7.88957286     13.61007524      5.96512035      3.28200068
   Ge      0.13687341     13.62043591      2.66515398      3.28060528
   Ge      0.10981049      1.48717875      2.66462313      3.26720594
   Ge      7.91554892      1.49661790      5.96488066      3.26876891
    O      5.14363019      3.32810186     -0.05503396      6.38330170
    O      5.14366286     11.70026686     -0.05495298      6.38656571
    O     -0.15136315     10.87390650     -0.11514467      6.39534990
    O     -0.15166258      4.15470471     -0.11545355      6.39645315
    O      1.51576289      2.42688773      6.63514493      6.36764424
    O      6.51229061      2.40433605      2.00647749      6.36450299
    O      6.52812720     12.63173501      2.01550162      6.36602234
    O      1.50079321     12.60897889      6.62666070      6.36894899
    O      6.75386923      9.96876561      6.66056745      6.36798057
    O      1.27115959      9.93843082      1.98994668      6.36698631
    O      1.27271763      5.09306519      1.99219682      6.36791903
    O      6.75361254      5.06116495      6.65971256      6.36957613
    O      1.55237053      5.12458762      6.95977208      6.37781274
    O      6.49282458      5.15100055      1.67158749      6.37358219
    O      6.49416082      9.88062446      1.66963770      6.37219641
    O      1.55178985      9.90647254      6.96101544      6.37592582
    O      6.81649135     12.64160581      6.93821964      6.36953637
    O      1.22843785     12.68169737      1.70369439      6.36724596
    O      1.23841676      2.35070835      1.69622506      6.36612031
    O      6.80665742      2.39205366      6.94620902      6.36857167
    O      2.71396769      3.75109396     -0.07335913      6.38918101
    O      7.95613888      3.76513898     -0.08085583      6.39158033
    O      7.95609527     11.26341727     -0.08086550      6.39191660
    O      2.71376586     11.27756205     -0.07305921      6.39056718
    O      3.90590713      5.80075002      2.12512053      6.39923406
    O      4.13148903      5.79971091      6.49896239      6.40726656
    O      4.13143988      9.22911817      6.49903964      6.40760081
    O      3.90582219      9.22806736      2.12506438      6.39888675
    O      9.25251025     13.34661578      2.23424453      6.40383175
    O     -1.21551741     13.34591116      6.38948322      6.40974597
    O     -1.21792141      1.68933674      6.40601569      6.40900642
    O      9.25603756      1.68856314      2.21778549      6.40231671
    O      2.28820846      5.30927009      4.40275564      6.38645954
    O      5.74966658      5.30882657      4.23142429      6.38589153
    O      5.74962628      9.71976017      4.23133047      6.38416032
    O      2.28829214      9.71924537      4.40282999      6.38466919
    O      7.52724167     12.88012695      4.41800202      6.37047392
    O      0.50840210     12.87991350      4.20977585      6.37166339
    O      0.51534110      2.17275170      4.20588309      6.37899363
    O      7.52035927      2.17277540      4.42297647      6.37778177
    O      1.73111962      7.51627709      2.71297582      6.37949669
    O      6.30650768      7.51630054      5.91201019      6.38450316
    O      7.04720197     -0.11940136      2.73231192      6.37562483
    O      0.98922538     -0.11892470      5.89193664      6.37867083
    O      1.90893398      7.51611969      6.13040265      6.38347995
    O      6.12719310      7.51601370      2.49448700      6.37943769
    O      7.24771910     -0.10730714      6.09706105      6.37392023
    O      0.78708112     -0.10792777      2.52729801      6.37139984
   72
Geometry Step: 5
   Ge      1.46343689      3.65248925      7.84674083      3.21483815
   Ge      6.54667320      3.65730538      0.85123962      3.21422495
   Ge      6.54766621     11.37988493      0.85820995      3.21316507
   Ge      1.46264934     11.38397963      7.84167417      3.21402355
   Ge      6.83738963     11.18407067      7.94177001      3.22197323
   Ge      1.24376875     11.20497326      0.81436836      3.21992310
   Ge      1.24478959      3.82997950      0.81076928      3.22184533
   Ge      6.83689066      3.85112955      7.94541052      3.22266420
   Ge      2.40342571      5.97868001      2.86090049      3.26631759
   Ge      5.64746381      5.96707508      5.77984592      3.26239579
   Ge      5.64659784      9.06177690      5.77927325      3.26277406
   Ge      2.40385023      9.05038967      2.86141318      3.26690921
   Ge      7.65857266     13.64909340      2.85248989      3.27481432
   Ge      0.38869635     13.63888791      5.78033591      3.27086977
   Ge      0.36510818      1.48459151      5.77760836      3.26187886
   Ge      7.68170799      1.47439272      2.85449743      3.26593189
   Ge      2.55790155      5.97314392      5.92260640      3.26591790
   Ge      5.47003805      5.98067705      2.71452344      3.27357141
   Ge      5.46968364      9.04812661      2.71484454      3.27404654
   Ge      2.55839039      9.05575309      5.92229759      3.26618804
   Ge      7.90956880     13.63195101      5.97682708      3.29211668
   Ge      0.11189099     13.64537211      2.65968849      3.29157192
   Ge      0.08829415      1.47953141      2.65907990      3.28040829
   Ge      7.93209472      1.49202624      5.97555954      3.28126949
    O      5.13480648      3.30078849     -0.05694226      6.37835010
    O      5.13426042     11.72674342     -0.05774559      6.38120389
    O     -0.19533744     10.86744616     -0.15028017      6.38267960
    O     -0.19580786      4.16160971     -0.15051731      6.38410022
    O      1.54867934      2.41593205      6.63251498      6.35275611
    O      6.47565858      2.38539978      2.01663574      6.35444755
    O      6.49772881     12.65294014      2.02769166      6.35630124
    O      1.52700017     12.62356695      6.62078536      6.35434979
    O      6.80077674      9.97668740      6.67518618      6.36085477
    O      1.21868270      9.93409533      1.98786240      6.36000066
    O      1.21788298      5.09584649      1.98832758      6.36240211
    O      6.80137497      5.05347363      6.67450359      6.36351291
    O      1.50559760      5.13608612      6.98404033      6.36436475
    O      6.54273207      5.17502493      1.65287212      6.36612184
    O      6.54199917      9.85550923      1.65280584      6.36382614
    O      1.50625859      9.89480769      6.98427818      6.36197893
    O      6.80060455     12.65314589      6.94976286      6.36950750
    O      1.25100228     12.70644999      1.69820963      6.36432505
    O      1.26471088      2.32929994      1.68769595      6.36085885
    O      6.78676774      2.38394158      6.96112629      6.36628034
    O      2.71944412      3.75148161     -0.07749446      6.38893882
    O      7.99064947      3.76700764     -0.10317243      6.40112249
    O      7.99038246     11.26159209     -0.10359678      6.40126906
    O      2.72014032     11.27737052     -0.07794227      6.39000894
    O      3.90196903      5.78313300      2.05525445      6.38344138
    O      4.13480080      5.78341913      6.56470972      6.39146484
    O      4.13485416      9.24534848      6.56423974      6.39072235
    O      3.90203390      9.24576040      2.05540340      6.38264121
    O      9.29033357     13.34557302      2.21865441      6.39223022
    O     -1.25310226     13.34505139      6.40446785      6.40224323
    O     -1.25394047      1.69651714      6.43428015      6.40148775
    O      9.29346077      1.69599690      2.18856003      6.39091749
    O      2.27097900      5.24210227      4.39984016      6.37216746
    O      5.76682581      5.24206614      4.22717591      6.37137259
    O      5.76656249      9.78614874      4.22754106      6.36846983
    O      2.27129910      9.78607641      4.39988348      6.36925296
    O      7.52225968     12.86349214      4.42524634      6.36272087
    O      0.51350959     12.86271837      4.20481682      6.36402516
    O      0.52339905      2.20380317      4.20123856      6.36798359
    O      7.51250903      2.20333053      4.43016534      6.36634067
    O      1.66370413      7.51289481      2.70133899      6.36465763
    O      6.36991075      7.51310719      5.92347700      6.36793065