********************************************************************************
*                       GENERAL UTILITY LATTICE PROGRAM                        *
*                                 Julian Gale                                  *
*                       Curtin Institute for Computation                       *
*                    School of Molecular and Life Sciences                     *
*                    Curtin University, Western Australia                      *
********************************************************************************
* Version = 6.1.2 * Last modified =   3rd November 2022                        *
********************************************************************************
*  optimise     - perform optimisation run                                     *
*  conp         - constant pressure calculation                                *
*  property     - calculate properties for final geometry                      *
********************************************************************************

  Job Started  at 10:44.03  7th October    2025                               

  Number of CPUs =     1


  Total number of configurations input =      1

********************************************************************************
*  Input for Configuration =   1 : c00002.vasp                                 *
********************************************************************************

  Formula = GeSi23O48                                                   

  Number of irreducible atoms/shells =     120


  Total number atoms/shells =     120

  Dimensionality = 3               :  Bulk   



  Cartesian lattice vectors (Angstroms) :

       17.182800    0.000000    0.000000
        0.000000    7.513760    0.000000
        0.000000    0.000000   10.447700

  Cell parameters (Angstroms/Degrees):

  a =      17.1828    alpha =  90.0000
  b =       7.5138    beta  =  90.0000
  c =      10.4477    gamma =  90.0000

  Initial cell volume =        1348.875752 Angs**3

  Temperature of configuration =   0.00     K 

  Pressure of configuration =         0.000 GPa 

  Fractional coordinates of asymmetric unit :

--------------------------------------------------------------------------------
   No.  Atomic       x           y          z         Charge      Occupancy
        Label      (Frac)      (Frac)     (Frac)        (e)         (Frac)  
--------------------------------------------------------------------------------
      1 Ge    c    0.556730    0.000000    0.122130     4.00000    1.000000    
      2 Si    c    0.052090 *  0.000000 *  0.372270 *   4.00000    1.000000    
      3 Si    c    0.447910 *  0.000000 *  0.372270 *   4.00000    1.000000    
      4 Si    c    0.947910 *  0.000000 *  0.627730 *   4.00000    1.000000    
      5 Si    c    0.552090 *  0.000000 *  0.627730 *   4.00000    1.000000    
      6 Si    c    0.943270 *  0.000000 *  0.122130 *   4.00000    1.000000    
      7 Si    c    0.443270 *  0.000000 *  0.877870 *   4.00000    1.000000    
      8 Si    c    0.056730 *  0.000000 *  0.877870 *   4.00000    1.000000    
      9 Si    c    0.160190 *  0.293910 *  0.273440 *   4.00000    1.000000    
     10 Si    c    0.339810 *  0.706090 *  0.273440 *   4.00000    1.000000    
     11 Si    c    0.839810 *  0.293910 *  0.726560 *   4.00000    1.000000    
     12 Si    c    0.660190 *  0.706090 *  0.726560 *   4.00000    1.000000    
     13 Si    c    0.839810 *  0.706090 *  0.726560 *   4.00000    1.000000    
     14 Si    c    0.660190 *  0.293910 *  0.726560 *   4.00000    1.000000    
     15 Si    c    0.160190 *  0.706090 *  0.273440 *   4.00000    1.000000    
     16 Si    c    0.339810 *  0.293910 *  0.273440 *   4.00000    1.000000    
     17 Si    c    0.660660 *  0.294090 *  0.017440 *   4.00000    1.000000    
     18 Si    c    0.839340 *  0.705910 *  0.017440 *   4.00000    1.000000    
     19 Si    c    0.339340 *  0.294090 *  0.982560 *   4.00000    1.000000    
     20 Si    c    0.160660 *  0.705910 *  0.982560 *   4.00000    1.000000    
     21 Si    c    0.339340 *  0.705910 *  0.982560 *   4.00000    1.000000    
     22 Si    c    0.160660 *  0.294090 *  0.982560 *   4.00000    1.000000    
     23 Si    c    0.660660 *  0.705910 *  0.017440 *   4.00000    1.000000    
     24 Si    c    0.839340 *  0.294090 *  0.017440 *   4.00000    1.000000    
     25 O2    c    0.106570 *  0.174340 *  0.366200 *   0.87073    1.000000    
     26 O2    c    0.393430 *  0.825660 *  0.366200 *   0.87073    1.000000    
     27 O2    c    0.893430 *  0.174340 *  0.633800 *   0.87073    1.000000    
     28 O2    c    0.606570 *  0.825660 *  0.633800 *   0.87073    1.000000    
     29 O2    c    0.893430 *  0.825660 *  0.633800 *   0.87073    1.000000    
     30 O2    c    0.606570 *  0.174340 *  0.633800 *   0.87073    1.000000    
     31 O2    c    0.106570 *  0.825660 *  0.366200 *   0.87073    1.000000    
     32 O2    c    0.393430 *  0.174340 *  0.366200 *   0.87073    1.000000    
     33 O2    c    0.000000 *  0.000000 *  0.500000 *   0.87073    1.000000    
     34 O2    c    0.500000 *  0.000000 *  0.500000 *   0.87073    1.000000    
     35 O2    c    0.994520 *  0.000000 *  0.250840 *   0.87073    1.000000    
     36 O3    c    0.505480 *  0.000000 *  0.250840 *   1.33043    1.000000    
     37 O2    c    0.005480 *  0.000000 *  0.749160 *   0.87073    1.000000    
     38 O2    c    0.494520 *  0.000000 *  0.749160 *   0.87073    1.000000    
     39 O3    c    0.610230 *  0.175520 *  0.115390 *   1.33043    1.000000    
     40 O2    c    0.889770 *  0.824480 *  0.115390 *   0.87073    1.000000    
     41 O2    c    0.389770 *  0.175520 *  0.884610 *   0.87073    1.000000    
     42 O2    c    0.110230 *  0.824480 *  0.884610 *   0.87073    1.000000    
     43 O2    c    0.389770 *  0.824480 *  0.884610 *   0.87073    1.000000    
     44 O2    c    0.110230 *  0.175520 *  0.884610 *   0.87073    1.000000    
     45 O3    c    0.610230 *  0.824480 *  0.115390 *   1.33043    1.000000    
     46 O2    c    0.889770 *  0.175520 *  0.115390 *   0.87073    1.000000    
     47 O3    c    0.500000 *  0.000000 *  0.000000 *   1.33043    1.000000    
     48 O2    c    0.000000 *  0.000000 *  0.000000 *   0.87073    1.000000    
     49 O2    c    0.151750 *  0.500000 *  0.313330 *   0.87073    1.000000    
     50 O2    c    0.348250 *  0.500000 *  0.313330 *   0.87073    1.000000    
     51 O2    c    0.848250 *  0.500000 *  0.686670 *   0.87073    1.000000    
     52 O2    c    0.651750 *  0.500000 *  0.686670 *   0.87073    1.000000    
     53 O2    c    0.250000 *  0.234950 *  0.285720 *   0.87073    1.000000    
     54 O2    c    0.250000 *  0.765050 *  0.285720 *   0.87073    1.000000    
     55 O2    c    0.750000 *  0.234950 *  0.714280 *   0.87073    1.000000    
     56 O2    c    0.750000 *  0.765050 *  0.714280 *   0.87073    1.000000    
     57 O2    c    0.131410 *  0.268650 *  0.127790 *   0.87073    1.000000    
     58 O2    c    0.368590 *  0.731350 *  0.127790 *   0.87073    1.000000    
     59 O2    c    0.868590 *  0.268650 *  0.872210 *   0.87073    1.000000    
     60 O2    c    0.631410 *  0.731350 *  0.872210 *   0.87073    1.000000    
     61 O2    c    0.868590 *  0.731350 *  0.872210 *   0.87073    1.000000    
     62 O2    c    0.631410 *  0.268650 *  0.872210 *   0.87073    1.000000    
     63 O2    c    0.131410 *  0.731350 *  0.127790 *   0.87073    1.000000    
     64 O2    c    0.368590 *  0.268650 *  0.127790 *   0.87073    1.000000    
     65 O2    c    0.653920 *  0.500000 *  0.058200 *   0.87073    1.000000    
     66 O2    c    0.846080 *  0.500000 *  0.058200 *   0.87073    1.000000    
     67 O2    c    0.346080 *  0.500000 *  0.941800 *   0.87073    1.000000    
     68 O2    c    0.153920 *  0.500000 *  0.941800 *   0.87073    1.000000    
     69 O2    c    0.750000 *  0.231060 *  0.027050 *   0.87073    1.000000    
     70 O2    c    0.750000 *  0.768940 *  0.027050 *   0.87073    1.000000    
     71 O2    c    0.250000 *  0.231060 *  0.972950 *   0.87073    1.000000    
     72 O2    c    0.250000 *  0.768940 *  0.972950 *   0.87073    1.000000    
     73 O2    s    0.106570 *  0.174340 *  0.366200 *  -2.87073    1.000000    
     74 O2    s    0.393430 *  0.825660 *  0.366200 *  -2.87073    1.000000    
     75 O2    s    0.893430 *  0.174340 *  0.633800 *  -2.87073    1.000000    
     76 O2    s    0.606570 *  0.825660 *  0.633800 *  -2.87073    1.000000    
     77 O2    s    0.893430 *  0.825660 *  0.633800 *  -2.87073    1.000000    
     78 O2    s    0.606570 *  0.174340 *  0.633800 *  -2.87073    1.000000    
     79 O2    s    0.106570 *  0.825660 *  0.366200 *  -2.87073    1.000000    
     80 O2    s    0.393430 *  0.174340 *  0.366200 *  -2.87073    1.000000    
     81 O2    s    0.000000 *  0.000000 *  0.500000 *  -2.87073    1.000000    
     82 O2    s    0.500000 *  0.000000 *  0.500000 *  -2.87073    1.000000    
     83 O2    s    0.994520 *  0.000000 *  0.250840 *  -2.87073    1.000000    
     84 O3    s    0.505480 *  0.000000 *  0.250840 *  -3.33043    1.000000    
     85 O2    s    0.005480 *  0.000000 *  0.749160 *  -2.87073    1.000000    
     86 O2    s    0.494520 *  0.000000 *  0.749160 *  -2.87073    1.000000    
     87 O3    s    0.610230 *  0.175520 *  0.115390 *  -3.33043    1.000000    
     88 O2    s    0.889770 *  0.824480 *  0.115390 *  -2.87073    1.000000    
     89 O2    s    0.389770 *  0.175520 *  0.884610 *  -2.87073    1.000000    
     90 O2    s    0.110230 *  0.824480 *  0.884610 *  -2.87073    1.000000    
     91 O2    s    0.389770 *  0.824480 *  0.884610 *  -2.87073    1.000000    
     92 O2    s    0.110230 *  0.175520 *  0.884610 *  -2.87073    1.000000    
     93 O3    s    0.610230 *  0.824480 *  0.115390 *  -3.33043    1.000000    
     94 O2    s    0.889770 *  0.175520 *  0.115390 *  -2.87073    1.000000    
     95 O3    s    0.500000 *  0.000000 *  0.000000 *  -3.33043    1.000000    
     96 O2    s    0.000000 *  0.000000 *  0.000000 *  -2.87073    1.000000    
     97 O2    s    0.151750 *  0.500000 *  0.313330 *  -2.87073    1.000000    
     98 O2    s    0.348250 *  0.500000 *  0.313330 *  -2.87073    1.000000    
     99 O2    s    0.848250 *  0.500000 *  0.686670 *  -2.87073    1.000000    
    100 O2    s    0.651750 *  0.500000 *  0.686670 *  -2.87073    1.000000    
    101 O2    s    0.250000 *  0.234950 *  0.285720 *  -2.87073    1.000000    
    102 O2    s    0.250000 *  0.765050 *  0.285720 *  -2.87073    1.000000    
    103 O2    s    0.750000 *  0.234950 *  0.714280 *  -2.87073    1.000000    
    104 O2    s    0.750000 *  0.765050 *  0.714280 *  -2.87073    1.000000    
    105 O2    s    0.131410 *  0.268650 *  0.127790 *  -2.87073    1.000000    
    106 O2    s    0.368590 *  0.731350 *  0.127790 *  -2.87073    1.000000    
    107 O2    s    0.868590 *  0.268650 *  0.872210 *  -2.87073    1.000000    
    108 O2    s    0.631410 *  0.731350 *  0.872210 *  -2.87073    1.000000    
    109 O2    s    0.868590 *  0.731350 *  0.872210 *  -2.87073    1.000000    
    110 O2    s    0.631410 *  0.268650 *  0.872210 *  -2.87073    1.000000    
    111 O2    s    0.131410 *  0.731350 *  0.127790 *  -2.87073    1.000000    
    112 O2    s    0.368590 *  0.268650 *  0.127790 *  -2.87073    1.000000    
    113 O2    s    0.653920 *  0.500000 *  0.058200 *  -2.87073    1.000000    
    114 O2    s    0.846080 *  0.500000 *  0.058200 *  -2.87073    1.000000    
    115 O2    s    0.346080 *  0.500000 *  0.941800 *  -2.87073    1.000000    
    116 O2    s    0.153920 *  0.500000 *  0.941800 *  -2.87073    1.000000    
    117 O2    s    0.750000 *  0.231060 *  0.027050 *  -2.87073    1.000000    
    118 O2    s    0.750000 *  0.768940 *  0.027050 *  -2.87073    1.000000    
    119 O2    s    0.250000 *  0.231060 *  0.972950 *  -2.87073    1.000000    
    120 O2    s    0.250000 *  0.768940 *  0.972950 *  -2.87073    1.000000    
--------------------------------------------------------------------------------



********************************************************************************
*  General input information                                                   *
********************************************************************************

  Species output for all configurations : 

--------------------------------------------------------------------------------
  Species    Type    Atomic    Atomic    Charge       Radii (Angs)     Library
                     Number     Mass       (e)     Cova   Ionic  VDW   Symbol
--------------------------------------------------------------------------------
    Ge       Core       32      72.61   4.000000   1.170  0.000  1.750 Ge       
    Si       Core       14      28.09   4.000000   1.200  0.000  2.100 Si       
    O1       Core        8      16.00   1.733957   0.730  0.000  0.000 O1       
    O2       Core        8      16.00   0.870733   0.730  0.000  1.360 O2       
    O3       Core        8      16.00   1.330431   0.730  0.000  1.360 O3       
    O1       Shell       8       0.00  -3.733957   0.730  0.000  0.000 O1       
    O2       Shell       8       0.00  -2.870733   0.730  0.000  0.000 O2       
    O3       Shell       8       0.00  -3.330431   0.730  0.000  0.000 O3       
--------------------------------------------------------------------------------


  Lattice summation method               =    Ewald          (3-D)
                                         =    Parry          (2-D)
                                         =    Saunders et al (1-D)
  Accuracy factor for lattice sums       =   12.000


  Analytic derivatives to be used

  Time limit = Infinity

  Maximum range for interatomic potentials =    100000.000000 Angstroms

  General interatomic potentials :

--------------------------------------------------------------------------------
Atom  Types   Potential      Parameter       Value         Units   Cutoffs(Ang)
  1     2                                                            Min /  Max 
--------------------------------------------------------------------------------
Si   c O1   s Buckingham    Buckingham A     1315.2478    eV        0.000 16.000
                            Buckingham rho  0.31775900    Ang       
                            Buckingham C     10.141118    eV*Ang^6  
--------------------------------------------------------------------------------
Si   c O2   s Buckingham    Buckingham A     1315.2478    eV        0.000 16.000
                            Buckingham rho  0.31775900    Ang       
                            Buckingham C     10.141118    eV*Ang^6  
--------------------------------------------------------------------------------
Si   c O3   s Buckingham    Buckingham A     1315.2478    eV        0.000 16.000
                            Buckingham rho  0.31775900    Ang       
                            Buckingham C     10.141118    eV*Ang^6  
--------------------------------------------------------------------------------
Ge   c O1   s Buckingham    Buckingham A     1497.3996    eV        0.000 16.000
                            Buckingham rho  0.32564600    Ang       
                            Buckingham C     16.808599    eV*Ang^6  
--------------------------------------------------------------------------------
Ge   c O2   s Buckingham    Buckingham A     1497.3996    eV        0.000 16.000
                            Buckingham rho  0.32564600    Ang       
                            Buckingham C     16.808599    eV*Ang^6  
--------------------------------------------------------------------------------
Ge   c O3   s Buckingham    Buckingham A     1497.3996    eV        0.000 16.000
                            Buckingham rho  0.32564600    Ang       
                            Buckingham C     16.808599    eV*Ang^6  
--------------------------------------------------------------------------------
O1   s O1   s Buckingham    Buckingham A     22764.000    eV        0.000 16.000
                            Buckingham rho  0.14900000    Ang       
                            Buckingham C     10.937044    eV*Ang^6  
--------------------------------------------------------------------------------
O1   s O2   s Buckingham    Buckingham A     22764.000    eV        0.000 16.000
                            Buckingham rho  0.14900000    Ang       
                            Buckingham C     10.937044    eV*Ang^6  
--------------------------------------------------------------------------------
O1   s O3   s Buckingham    Buckingham A     22764.000    eV        0.000 16.000
                            Buckingham rho  0.14900000    Ang       
                            Buckingham C     10.937044    eV*Ang^6  
--------------------------------------------------------------------------------
O2   s O2   s Buckingham    Buckingham A     22764.000    eV        0.000 16.000
                            Buckingham rho  0.14900000    Ang       
                            Buckingham C     10.937044    eV*Ang^6  
--------------------------------------------------------------------------------
O2   s O3   s Buckingham    Buckingham A     22764.000    eV        0.000 16.000
                            Buckingham rho  0.14900000    Ang       
                            Buckingham C     10.937044    eV*Ang^6  
--------------------------------------------------------------------------------
O3   s O3   s Buckingham    Buckingham A     22764.000    eV        0.000 16.000
                            Buckingham rho  0.14900000    Ang       
                            Buckingham C     10.937044    eV*Ang^6  
--------------------------------------------------------------------------------
O1   c O1   s Spring (c-s)  Spring k 2       180.31577    eV*Ang^-2 0.000  0.800
                            Spring k 4       0.0000000    eV*Ang^-4 
--------------------------------------------------------------------------------
O2   c O2   s Spring (c-s)  Spring k 2       75.969800    eV*Ang^-2 0.000  0.800
                            Spring k 4       0.0000000    eV*Ang^-4 
--------------------------------------------------------------------------------
O3   c O3   s Spring (c-s)  Spring k 2       128.14270    eV*Ang^-2 0.000  0.800
                            Spring k 4       0.0000000    eV*Ang^-4 
--------------------------------------------------------------------------------

  General Three-body potentials :

--------------------------------------------------------------------------------
  Atoms       Potential      Parameter       Value         Units   Cutoffs(Ang)
  1 / 2 / 3                                                          Min /  Max 
--------------------------------------------------------------------------------
Si    core    Harmonic      Three-body cnst  1.2614000    eV*rad^-2 0.000  1.900
O1    shel                  Three-body angl  109.47000    degrees   0.000  1.900
O1    shel                  Three-body k4    0.0000000    eV*rad^-4 0.000  3.500
                            Three-body k3    0.0000000    eV*rad^-3 
--------------------------------------------------------------------------------
Si    core    Harmonic      Three-body cnst  1.2614000    eV*rad^-2 0.000  1.900
O1    shel                  Three-body angl  109.47000    degrees   0.000  1.900
õ(1   shel                  Three-body k4    0.0000000    eV*rad^-4 0.000  3.500
                            Three-body k3    0.0000000    eV*rad^-3 
--------------------------------------------------------------------------------
Si    core    Harmonic      Three-body cnst  1.2614000    eV*rad^-2 0.000  1.900
õ(1   shel                  Three-body angl  109.47000    degrees   0.000  1.900
õ(1   shel                  Three-body k4    0.0000000    eV*rad^-4 0.000  3.500
                            Three-body k3    0.0000000    eV*rad^-3 
--------------------------------------------------------------------------------
Si    core    Harmonic      Three-body cnst  1.2614000    eV*rad^-2 0.000  1.900
O1    shel                  Three-body angl  109.47000    degrees   0.000  1.900
O2    shel                  Three-body k4    0.0000000    eV*rad^-4 0.000  3.500
                            Three-body k3    0.0000000    eV*rad^-3 
--------------------------------------------------------------------------------
Si    core    Harmonic      Three-body cnst  1.2614000    eV*rad^-2 0.000  1.900
O1    shel                  Three-body angl  109.47000    degrees   0.000  1.900
õ(2   shel                  Three-body k4    0.0000000    eV*rad^-4 0.000  3.500
                            Three-body k3    0.0000000    eV*rad^-3 
--------------------------------------------------------------------------------
Si    core    Harmonic      Three-body cnst  1.2614000    eV*rad^-2 0.000  1.900
O2    shel                  Three-body angl  109.47000    degrees   0.000  1.900
õ(1   shel                  Three-body k4    0.0000000    eV*rad^-4 0.000  3.500
                            Three-body k3    0.0000000    eV*rad^-3 
--------------------------------------------------------------------------------
Si    core    Harmonic      Three-body cnst  1.2614000    eV*rad^-2 0.000  1.900
õ(1   shel                  Three-body angl  109.47000    degrees   0.000  1.900
õ(2   shel                  Three-body k4    0.0000000    eV*rad^-4 0.000  3.500
                            Three-body k3    0.0000000    eV*rad^-3 
--------------------------------------------------------------------------------
Si    core    Harmonic      Three-body cnst  1.2614000    eV*rad^-2 0.000  1.900
O2    shel                  Three-body angl  109.47000    degrees   0.000  1.900
O2    shel                  Three-body k4    0.0000000    eV*rad^-4 0.000  3.500
                            Three-body k3    0.0000000    eV*rad^-3 
--------------------------------------------------------------------------------
Si    core    Harmonic      Three-body cnst  1.2614000    eV*rad^-2 0.000  1.900
O2    shel                  Three-body angl  109.47000    degrees   0.000  1.900
õ(2   shel                  Three-body k4    0.0000000    eV*rad^-4 0.000  3.500
                            Three-body k3    0.0000000    eV*rad^-3 
--------------------------------------------------------------------------------
Si    core    Harmonic      Three-body cnst  1.2614000    eV*rad^-2 0.000  1.900
õ(2   shel                  Three-body angl  109.47000    degrees   0.000  1.900
õ(2   shel                  Three-body k4    0.0000000    eV*rad^-4 0.000  3.500
                            Three-body k3    0.0000000    eV*rad^-3 
--------------------------------------------------------------------------------

********************************************************************************
*  Output for configuration   1 : c00002.vasp                                  *
********************************************************************************


  Components of energy : 

--------------------------------------------------------------------------------
  Interatomic potentials     =         744.33417235 eV    
  Three-body potentials      =           0.01668796 eV    
  Monopole - monopole (real) =       -2676.00317478 eV    
  Monopole - monopole (recip)=       -1115.35404472 eV    
  Monopole - monopole (total)=       -3791.35721950 eV    
--------------------------------------------------------------------------------
  Total lattice energy       =       -3047.00635919 eV    
--------------------------------------------------------------------------------
  Total lattice energy       =         -293989.5359 kJ/(mole unit cells)
--------------------------------------------------------------------------------


  Number of variables =      363

  Maximum number of calculations  =          1000
  Maximum Hessian update interval =            10
  Maximum step size               =   0.100000000
  Maximum parameter tolerance     =   0.000010000
  Maximum function  tolerance     =   0.000010000
  Maximum gradient  tolerance     =   0.001000000
  Maximum gradient  component     =   0.010000000

  Symmetry not applied to optimisation

  Cell parameters to be optimised using strains

  Newton-Raphson optimiser to be used

  BFGS hessian update to be used

  Lower half triangular hessian to be used

  Minimiser to switch to RFO
  When gradient norm is less than     0.050000

  Dumpfile to be written after every cycle

  Start of bulk optimisation :

  Cycle:      0 Energy:     -3047.006359  Gnorm:      4.162101  CPU:    0.088
  ** Hessian calculated **
  Cycle:      1 Energy:     -3077.211748  Gnorm:      0.877360  CPU:    0.195
  ** Hessian calculated **
  Cycle:      2 Energy:     -3080.153926  Gnorm:      0.433605  CPU:    0.372
  ** Hessian calculated **
  Cycle:      3 Energy:     -3081.051702  Gnorm:      0.257706  CPU:    0.532
  ** Hessian calculated **
  Cycle:      4 Energy:     -3081.396601  Gnorm:      0.129788  CPU:    0.710
  Cycle:      5 Energy:     -3081.501464  Gnorm:      0.065136  CPU:    0.811
  Cycle:      6 Energy:     -3081.547233  Gnorm:      0.030375  CPU:    0.912
  ** Hessian has wrong structure
  ** Imaginary eigenvectors =   3
  Cycle:      7 Energy:     -3081.553884  Gnorm:      0.062861  CPU:    1.154
  ** Hessian has wrong structure
  ** Imaginary eigenvectors =   2
  ** Hessian has wrong structure
  ** Imaginary eigenvectors =   2
  Cycle:      8 Energy:     -3081.572422  Gnorm:      0.067976  CPU:    1.600
  ** Hessian has wrong structure
  ** Imaginary eigenvectors =   1
  ** Hessian has required structure
  Cycle:      9 Energy:     -3081.693802  Gnorm:      0.043639  CPU:    1.979
  ** Hessian has required structure
  Cycle:     10 Energy:     -3081.729904  Gnorm:      0.038569  CPU:    2.112
  ** Hessian has required structure
  Cycle:     11 Energy:     -3081.761851  Gnorm:      0.017855  CPU:    2.244
  ** Hessian has required structure
  Cycle:     12 Energy:     -3081.771172  Gnorm:      0.015386  CPU:    2.377
  ** Hessian has required structure
  Cycle:     13 Energy:     -3081.776521  Gnorm:      0.012658  CPU:    2.510
  ** Hessian has required structure
  Cycle:     14 Energy:     -3081.778788  Gnorm:      0.008838  CPU:    2.643
  ** Hessian has required structure
  Cycle:     15 Energy:     -3081.779955  Gnorm:      0.003572  CPU:    2.775
  ** Hessian has required structure
  Cycle:     16 Energy:     -3081.780408  Gnorm:      0.002090  CPU:    2.909
  ** Hessian has required structure
  Cycle:     17 Energy:     -3081.780577  Gnorm:      0.001582  CPU:    3.042
  ** Hessian has required structure
  Cycle:     18 Energy:     -3081.780663  Gnorm:      0.001224  CPU:    3.175
  ** Hessian has required structure
  Cycle:     19 Energy:     -3081.780719  Gnorm:      0.000617  CPU:    3.393
  ** Hessian has required structure
  Cycle:     20 Energy:     -3081.780733  Gnorm:      0.000313  CPU:    3.541
  ** Hessian has required structure
  Cycle:     21 Energy:     -3081.780735  Gnorm:      0.000219  CPU:    3.657
  ** Hessian has required structure
  Cycle:     22 Energy:     -3081.780735  Gnorm:      0.000232  CPU:    3.773
  ** Hessian has required structure
  Cycle:     23 Energy:     -3081.780735  Gnorm:      0.000229  CPU:    3.890
  ** Hessian has required structure
  Cycle:     24 Energy:     -3081.780735  Gnorm:      0.000227  CPU:    4.038
  ** Hessian has required structure
  Cycle:     25 Energy:     -3081.780735  Gnorm:      0.000227  CPU:    4.154
  ** Hessian has required structure
  Cycle:     26 Energy:     -3081.780735  Gnorm:      0.000227  CPU:    4.288
  ** Hessian has required structure
  Cycle:     27 Energy:     -3081.780735  Gnorm:      0.000227  CPU:    4.405
  ** Hessian has required structure
  Cycle:     28 Energy:     -3081.780735  Gnorm:      0.000227  CPU:    4.523
  ** Hessian has required structure
  Cycle:     29 Energy:     -3081.780735  Gnorm:      0.000227  CPU:    4.726
  ** Hessian has required structure
  Cycle:     30 Energy:     -3081.780735  Gnorm:      0.000227  CPU:    4.844
  ** Hessian has required structure
  Cycle:     31 Energy:     -3081.780735  Gnorm:      0.000227  CPU:    4.962
  ** Hessian has required structure
  Cycle:     32 Energy:     -3081.780735  Gnorm:      0.000227  CPU:    5.174
  ** Hessian has required structure
  Cycle:     33 Energy:     -3081.780735  Gnorm:      0.000228  CPU:    5.473
  ** Hessian has required structure
  Cycle:     34 Energy:     -3081.780735  Gnorm:      0.000228  CPU:    5.592
  ** Hessian has required structure
  Cycle:     35 Energy:     -3081.780735  Gnorm:      0.000227  CPU:    5.709
  ** Hessian has required structure
  Cycle:     36 Energy:     -3081.780735  Gnorm:      0.000227  CPU:    5.827
  ** Hessian has required structure


  **** Too many failed attempts to optimise ****

  Final energy =   -3081.78073497 eV      
  Final Gnorm  =       0.00022730

  Components of energy : 

--------------------------------------------------------------------------------
  Interatomic potentials     =         819.10866835 eV    
  Three-body potentials      =           0.31202331 eV    
  Monopole - monopole (real) =       -2279.02509940 eV    
  Monopole - monopole (recip)=       -1622.17632724 eV    
  Monopole - monopole (total)=       -3901.20142664 eV    
--------------------------------------------------------------------------------
  Total lattice energy       =       -3081.78073497 eV    
--------------------------------------------------------------------------------
  Total lattice energy       =         -297344.7316 kJ/(mole unit cells)
--------------------------------------------------------------------------------

  Final fractional coordinates of atoms :

--------------------------------------------------------------------------------
   No.  Atomic        x           y          z          Radius
        Label       (Frac)      (Frac)     (Frac)       (Angs) 
--------------------------------------------------------------------------------
     1  Ge    c     0.556730    0.000000    0.122130    0.000000
     2  Si    c     0.046874    0.014987    0.375083    0.000000
     3  Si    c     0.447618    0.004523    0.377072    0.000000
     4  Si    c     0.949444    0.018488    0.635302    0.000000
     5  Si    c     0.546569    0.999700    0.635437    0.000000
     6  Si    c     0.944661    0.015977    0.121847    0.000000
     7  Si    c     0.443136    0.010248    0.881718    0.000000
     8  Si    c     0.056784    0.012628    0.885141    0.000000
     9  Si    c     0.150490    0.321672    0.284987    0.000000
    10  Si    c     0.344565    0.696834    0.290718    0.000000
    11  Si    c     0.846496    0.325408    0.721544    0.000000
    12  Si    c     0.650679    0.694576    0.730246    0.000000
    13  Si    c     0.831586    0.730619    0.723598    0.000000
    14  Si    c     0.665754    0.286331    0.729783    0.000000
    15  Si    c     0.163239    0.727818    0.284518    0.000000
    16  Si    c     0.332436    0.290759    0.289324    0.000000
    17  Si    c     0.673316    0.282013    0.030067    0.000000
    18  Si    c     0.832560    0.730129    0.025608    0.000000
    19  Si    c     0.332800    0.293237    0.988082    0.000000
    20  Si    c     0.167383    0.728116    0.982776    0.000000
    21  Si    c     0.349205    0.694401    0.989710    0.000000
    22  Si    c     0.150416    0.327602    0.984712    0.000000
    23  Si    c     0.651070    0.680766    0.030265    0.000000
    24  Si    c     0.854107    0.333838    0.022928    0.000000
    25  O2    c     0.091704    0.203293    0.369896    0.000000
    26  O2    c     0.403756    0.814450    0.376258    0.000000
    27  O2    c     0.906127    0.208046    0.637944    0.000000
    28  O2    c     0.589561    0.810346    0.647304    0.000000
    29  O2    c     0.883035    0.865698    0.639357    0.000000
    30  O2    c     0.611289    0.155183    0.647091    0.000000
    31  O2    c     0.111280    0.859288    0.369229    0.000000
    32  O2    c     0.381793    0.158772    0.379730    0.000000
    33  O2    c     0.998998    0.000571    0.506153    0.000000
    34  O2    c     0.506330    0.014893    0.496786    0.000000
    35  O2    c     0.985130    0.994194    0.259392    0.000000
    36  O3    c     0.499454    0.036286    0.251976    0.000000
    37  O2    c     0.010108    0.995992    0.752683    0.000000
    38  O2    c     0.476619    0.018351    0.737833    0.000000
    39  O3    c     0.636686    0.142222    0.125378    0.000000
    40  O2    c     0.872669    0.877384    0.114829    0.000000
    41  O2    c     0.373769    0.153907    0.894989    0.000000
    42  O2    c     0.125874    0.867144    0.888215    0.000000
    43  O2    c     0.409542    0.813176    0.908818    0.000000
    44  O2    c     0.093937    0.208921    0.895521    0.000000
    45  O3    c     0.591926    0.786447    0.119115    0.000000
    46  O2    c     0.913909    0.216353    0.106676    0.000000
    47  O3    c     0.509757    0.061082    0.982095    0.000000
    48  O2    c     0.002688    0.966669    0.006597    0.000000
    49  O2    c     0.135556    0.527589    0.313506    0.000000
    50  O2    c     0.359629    0.490976    0.319742    0.000000
    51  O2    c     0.860165    0.532224    0.692018    0.000000
    52  O2    c     0.636392    0.486660    0.705676    0.000000
    53  O2    c     0.240059    0.270250    0.319974    0.000000
    54  O2    c     0.254893    0.748430    0.323171    0.000000
    55  O2    c     0.756782    0.271235    0.686533    0.000000
    56  O2    c     0.739286    0.747866    0.688619    0.000000
    57  O2    c     0.133212    0.281351    0.134344    0.000000
    58  O2    c     0.363266    0.738704    0.140682    0.000000
    59  O2    c     0.865270    0.287465    0.872002    0.000000
    60  O2    c     0.636192    0.738182    0.880902    0.000000
    61  O2    c     0.842601    0.777531    0.874483    0.000000
    62  O2    c     0.660309    0.230175    0.879646    0.000000
    63  O2    c     0.153484    0.775233    0.133115    0.000000
    64  O2    c     0.347023    0.244094    0.138697    0.000000
    65  O2    c     0.634470    0.474089    0.051349    0.000000
    66  O2    c     0.872575    0.539354    0.050955    0.000000
    67  O2    c     0.367319    0.489351    0.961733    0.000000
    68  O2    c     0.133047    0.532575    0.954862    0.000000
    69  O2    c     0.765509    0.290796    0.063365    0.000000
    70  O2    c     0.741446    0.725737    0.064898    0.000000
    71  O2    c     0.240830    0.286360    0.954283    0.000000
    72  O2    c     0.259735    0.736901    0.951047    0.000000
    73  O2    s     0.093454    0.196333    0.361024    0.000000
    74  O2    s     0.401865    0.821553    0.366952    0.000000
    75  O2    s     0.904200    0.200762    0.646791    0.000000
    76  O2    s     0.591723    0.817732    0.655157    0.000000
    77  O2    s     0.884410    0.867042    0.648363    0.000000
    78  O2    s     0.610411    0.153039    0.655114    0.000000
    79  O2    s     0.110216    0.861246    0.360296    0.000000
    80  O2    s     0.383213    0.157190    0.369486    0.000000
    81  O2    s     0.998826    0.004395    0.505866    0.000000
    82  O2    s     0.504135    0.011867    0.498972    0.000000
    83  O2    s     0.987437    0.999152    0.256362    0.000000
    84  O3    s     0.499271    0.029438    0.253197    0.000000
    85  O2    s     0.008737    0.000523    0.755085    0.000000
    86  O2    s     0.480592    0.015345    0.742815    0.000000
    87  O3    s     0.634197    0.145889    0.114828    0.000000
    88  O2    s     0.875953    0.875857    0.105486    0.000000
    89  O2    s     0.376523    0.154316    0.904171    0.000000
    90  O2    s     0.123128    0.867159    0.898516    0.000000
    91  O2    s     0.406312    0.820512    0.915114    0.000000
    92  O2    s     0.096237    0.201261    0.904322    0.000000
    93  O3    s     0.595195    0.792767    0.110172    0.000000
    94  O2    s     0.910608    0.207984    0.099003    0.000000
    95  O3    s     0.506613    0.050553    0.983245    0.000000
    96  O2    s     0.002235    0.977327    0.005911    0.000000
    97  O2    s     0.140172    0.526660    0.307292    0.000000
    98  O2    s     0.355062    0.492052    0.313318    0.000000
    99  O2    s     0.855626    0.530968    0.698561    0.000000
   100  O2    s     0.641055    0.487818    0.710862    0.000000
   101  O2    s     0.240444    0.278052    0.312873    0.000000
   102  O2    s     0.254724    0.740634    0.315536    0.000000
   103  O2    s     0.756631    0.278591    0.694784    0.000000
   104  O2    s     0.739791    0.740363    0.696731    0.000000
   105  O2    s     0.136845    0.290399    0.134426    0.000000
   106  O2    s     0.359861    0.729753    0.140523    0.000000
   107  O2    s     0.862104    0.296324    0.872026    0.000000
   108  O2    s     0.639220    0.727866    0.880344    0.000000
   109  O2    s     0.840348    0.767505    0.874456    0.000000
   110  O2    s     0.662248    0.241504    0.879200    0.000000
   111  O2    s     0.156003    0.765267    0.133287    0.000000
   112  O2    s     0.344027    0.254017    0.138652    0.000000
   113  O2    s     0.640359    0.476505    0.046799    0.000000
   114  O2    s     0.866441    0.537348    0.045305    0.000000
   115  O2    s     0.361737    0.490716    0.967535    0.000000
   116  O2    s     0.138567    0.531168    0.961067    0.000000
   117  O2    s     0.765359    0.294778    0.055088    0.000000
   118  O2    s     0.741765    0.721339    0.056801    0.000000
   119  O2    s     0.241036    0.291807    0.961493    0.000000
   120  O2    s     0.259485    0.731172    0.958828    0.000000
--------------------------------------------------------------------------------

  Final Cartesian lattice vectors (Angstroms) :

       16.988018   -0.036581   -0.039044
       -0.016187    7.569427    0.009993
       -0.022473    0.013668   10.336141


  Final cell parameters and derivatives :

--------------------------------------------------------------------------------
       a           16.988102 Angstrom     dE/de1(xx)    -0.010610 eV/strain
       b            7.569451 Angstrom     dE/de2(yy)    -0.004461 eV/strain
       c           10.336174 Angstrom     dE/de3(zz)    -0.011868 eV/strain
       alpha       89.848329 Degrees      dE/de4(yz)     0.001390 eV/strain
       beta        90.256417 Degrees      dE/de5(xz)    -0.001223 eV/strain
       gamma       90.246072 Degrees      dE/de6(xy)    -0.003287 eV/strain
--------------------------------------------------------------------------------

  Primitive cell volume =          1329.104716 Angs**3

  Density of cell =      1.857438 g/cm**3

  Non-primitive cell volume =          1329.104716 Angs**3


  Final internal derivatives :

--------------------------------------------------------------------------------
   No.  Atomic          a             b             c           Radius
        Label          (eV)          (eV)          (eV)        (eV/Angs)
--------------------------------------------------------------------------------
      1 Ge    c       0.000000      0.000000      0.000000      0.000000
      2 Si    c      -0.007648      0.000044      0.003618      0.000000
      3 Si    c      -0.013545     -0.001043     -0.001731      0.000000
      4 Si    c       0.004387     -0.000409      0.003713      0.000000
      5 Si    c      -0.001480      0.001359     -0.006796      0.000000
      6 Si    c       0.004204     -0.002096      0.002040      0.000000
      7 Si    c      -0.016179     -0.004017     -0.006099      0.000000
      8 Si    c       0.002013     -0.001036      0.002125      0.000000
      9 Si    c       0.001510     -0.001566      0.000196      0.000000
     10 Si    c       0.000858      0.001218      0.000904      0.000000
     11 Si    c       0.000028     -0.002038      0.001659      0.000000
     12 Si    c      -0.000404      0.000038      0.001873      0.000000
     13 Si    c       0.000957      0.002570     -0.001411      0.000000
     14 Si    c       0.001788     -0.001965      0.005742      0.000000
     15 Si    c       0.006106      0.000096     -0.002476      0.000000
     16 Si    c      -0.001593     -0.000686      0.001521      0.000000
     17 Si    c      -0.010329     -0.000398     -0.005567      0.000000
     18 Si    c       0.006564      0.003745      0.000337      0.000000
     19 Si    c      -0.006468      0.001908     -0.002176      0.000000
     20 Si    c       0.003690     -0.000947     -0.000985      0.000000
     21 Si    c      -0.000010      0.004055     -0.001932      0.000000
     22 Si    c      -0.000075     -0.001047     -0.001610      0.000000
     23 Si    c      -0.005958      0.001655      0.003291      0.000000
     24 Si    c      -0.001809     -0.003247     -0.000750      0.000000
     25 O2    c      -0.000366     -0.000835     -0.001637      0.000000
     26 O2    c       0.001289      0.001568     -0.000433      0.000000
     27 O2    c      -0.004055      0.002964      0.000119      0.000000
     28 O2    c       0.001849     -0.001805      0.000480      0.000000
     29 O2    c      -0.001569     -0.000439     -0.000435      0.000000
     30 O2    c       0.002927      0.001437      0.000319      0.000000
     31 O2    c      -0.000906      0.000784     -0.000721      0.000000
     32 O2    c       0.005197     -0.001921     -0.000131      0.000000
     33 O2    c       0.009137     -0.000170     -0.008210      0.000000
     34 O2    c       0.014292     -0.000587      0.010290      0.000000
     35 O2    c       0.003275     -0.000399     -0.000682      0.000000
     36 O3    c      -0.026574      0.002504      0.019897      0.000000
     37 O2    c      -0.006244      0.000082     -0.002614      0.000000
     38 O2    c      -0.007312      0.000584      0.005643      0.000000
     39 O3    c       0.003440     -0.001021      0.005272      0.000000
     40 O2    c      -0.004099      0.000049     -0.000887      0.000000
     41 O2    c       0.003871     -0.001464     -0.000106      0.000000
     42 O2    c      -0.008170      0.003812      0.000522      0.000000
     43 O2    c       0.003775      0.008482      0.001516      0.000000
     44 O2    c       0.001921      0.000069      0.001002      0.000000
     45 O3    c       0.010129     -0.011232     -0.003885      0.000000
     46 O2    c      -0.002421      0.001389     -0.003639      0.000000
     47 O3    c       0.007819      0.003277     -0.004684      0.000000
     48 O2    c      -0.003640      0.000652     -0.000245      0.000000
     49 O2    c       0.001404      0.002861     -0.000042      0.000000
     50 O2    c      -0.000924     -0.001717      0.000080      0.000000
     51 O2    c       0.001853     -0.001928     -0.001811      0.000000
     52 O2    c      -0.000816      0.002461     -0.000743      0.000000
     53 O2    c       0.000043      0.000814     -0.001356      0.000000
     54 O2    c      -0.011802     -0.001517     -0.002028      0.000000
     55 O2    c      -0.002052      0.000314      0.001513      0.000000
     56 O2    c      -0.007533      0.000237      0.000329      0.000000
     57 O2    c       0.003377      0.000489      0.000957      0.000000
     58 O2    c      -0.005520     -0.001104     -0.002951      0.000000
     59 O2    c      -0.004482      0.000583      0.003908      0.000000
     60 O2    c       0.003141     -0.001019     -0.003285      0.000000
     61 O2    c       0.001603      0.000734      0.003183      0.000000
     62 O2    c       0.003479      0.001839     -0.001219      0.000000
     63 O2    c       0.004859     -0.000659      0.004696      0.000000
     64 O2    c      -0.002877      0.000500     -0.000835      0.000000
     65 O2    c      -0.001374      0.001392      0.002130      0.000000
     66 O2    c       0.003530     -0.005751      0.002813      0.000000
     67 O2    c      -0.003138     -0.004907     -0.000238      0.000000
     68 O2    c       0.003289      0.004656      0.000145      0.000000
     69 O2    c       0.026859     -0.001834     -0.003760      0.000000
     70 O2    c      -0.012894      0.001296     -0.000402      0.000000
     71 O2    c       0.010209      0.000833      0.002231      0.000000
     72 O2    c       0.001599     -0.001418      0.003616      0.000000
     73 O2    s      -0.001640     -0.001052     -0.000899      0.000000
     74 O2    s      -0.002743     -0.000110     -0.001511      0.000000
     75 O2    s       0.000840     -0.000627      0.001459      0.000000
     76 O2    s       0.000690     -0.000542      0.001191      0.000000
     77 O2    s       0.003279      0.000463     -0.000519      0.000000
     78 O2    s       0.000784     -0.000848      0.001364      0.000000
     79 O2    s       0.001295      0.000678     -0.002201      0.000000
     80 O2    s      -0.005630      0.001062      0.000126      0.000000
     81 O2    s       0.001803     -0.000307      0.001404      0.000000
     82 O2    s      -0.006736      0.000495     -0.002897      0.000000
     83 O2    s       0.002622      0.002328      0.000360      0.000000
     84 O3    s       0.007022      0.001249     -0.004618      0.000000
     85 O2    s       0.004852     -0.002346      0.003024      0.000000
     86 O2    s      -0.003046     -0.003247     -0.000061      0.000000
     87 O3    s       0.004157      0.001562      0.002459      0.000000
     88 O2    s       0.003592      0.003080     -0.002755      0.000000
     89 O2    s      -0.003437     -0.001485      0.004734      0.000000
     90 O2    s       0.001445     -0.000912     -0.000375      0.000000
     91 O2    s       0.003296     -0.000546      0.006109      0.000000
     92 O2    s       0.000037     -0.002502      0.002875      0.000000
     93 O3    s       0.004623      0.001023      0.000803      0.000000
     94 O2    s       0.000107     -0.000410     -0.000758      0.000000
     95 O3    s      -0.022321     -0.001773     -0.006856      0.000000
     96 O2    s       0.003412      0.000505      0.001474      0.000000
     97 O2    s       0.002828      0.000771     -0.003267      0.000000
     98 O2    s      -0.001041     -0.000287     -0.001540      0.000000
     99 O2    s       0.000079     -0.001078     -0.000077      0.000000
    100 O2    s       0.002639      0.000625      0.002103      0.000000
    101 O2    s      -0.000450      0.000197      0.000532      0.000000
    102 O2    s      -0.001215     -0.000284     -0.000280      0.000000
    103 O2    s       0.001142     -0.000245     -0.001125      0.000000
    104 O2    s      -0.004956      0.000397     -0.001272      0.000000
    105 O2    s      -0.000763     -0.000271     -0.000006      0.000000
    106 O2    s      -0.001406      0.000726     -0.002114      0.000000
    107 O2    s      -0.001487      0.001778      0.002710      0.000000
    108 O2    s      -0.000700      0.000169      0.000145      0.000000
    109 O2    s       0.007324     -0.000565     -0.000832      0.000000
    110 O2    s      -0.004411      0.000031     -0.003038      0.000000
    111 O2    s       0.000476     -0.002995     -0.000731      0.000000
    112 O2    s       0.001457      0.001570     -0.002446      0.000000
    113 O2    s       0.003313      0.004799     -0.002493      0.000000
    114 O2    s      -0.003490     -0.001926     -0.002829      0.000000
    115 O2    s      -0.003072      0.000393      0.003526      0.000000
    116 O2    s       0.001470     -0.000378      0.002337      0.000000
    117 O2    s       0.004278     -0.001101     -0.001335      0.000000
    118 O2    s      -0.001462     -0.000137      0.000856      0.000000
    119 O2    s       0.002139      0.000089     -0.000104      0.000000
    120 O2    s       0.001668      0.000931     -0.000273      0.000000
--------------------------------------------------------------------------------
  Maximum abs         0.026859      0.011232      0.019897      0.000000
--------------------------------------------------------------------------------


  Born effective charge tensors : 

-------------------------------------------------------------------------------
  Atom             x           y             z
-------------------------------------------------------------------------------
    1 Ge    x       4.3028     -0.3087     -0.2055
            y       0.2135      3.9084      0.0332
            z      -0.7567      0.1026      3.7622
-------------------------------------------------------------------------------
    2 Si    x       3.4602      0.1063     -0.2296
            y      -0.1147      3.2351      0.0001
            z      -0.4826     -0.0339      3.8516
-------------------------------------------------------------------------------
    3 Si    x       3.6499      0.1600     -0.0131
            y      -0.0953      3.2807     -0.0275
            z       0.4645     -0.0599      4.0631
-------------------------------------------------------------------------------
    4 Si    x       3.4915     -0.1404     -0.1962
            y       0.1182      3.2330      0.0066
            z      -0.4993      0.0556      3.8446
-------------------------------------------------------------------------------
    5 Si    x       3.5169     -0.1229      0.3118
            y       0.1048      3.2475     -0.0090
            z       0.3660     -0.0506      3.7767
-------------------------------------------------------------------------------
    6 Si    x       3.4395     -0.1856      0.2501
            y       0.2099      3.2447     -0.0162
            z       0.4822     -0.0520      3.1247
-------------------------------------------------------------------------------
    7 Si    x       3.7561      0.2234     -0.1891
            y      -0.1283      3.3241      0.0393
            z      -0.3257      0.0425      3.3021
-------------------------------------------------------------------------------
    8 Si    x       3.4685      0.1594      0.2200
            y      -0.1686      3.2526      0.0124
            z       0.5410      0.0319      3.1150
-------------------------------------------------------------------------------
    9 Si    x       3.2046      0.2095     -0.0763
            y       0.2837      3.4367     -0.1747
            z      -0.0843     -0.0835      2.8198
-------------------------------------------------------------------------------
   10 Si    x       3.1944      0.2041      0.0850
            y       0.2713      3.4208      0.1713
            z       0.1106      0.0862      2.8256
-------------------------------------------------------------------------------
   11 Si    x       3.2202     -0.2195     -0.0655
            y      -0.3038      3.4494      0.1809
            z      -0.0960      0.0896      2.8149
-------------------------------------------------------------------------------
   12 Si    x       3.2389     -0.2176      0.0684
            y      -0.3003      3.4595     -0.2054
            z       0.1103     -0.0741      2.7869
-------------------------------------------------------------------------------
   13 Si    x       3.2249      0.3050     -0.1316
            y       0.1861      3.4707     -0.1450
            z      -0.1233     -0.0681      2.8056
-------------------------------------------------------------------------------
   14 Si    x       3.2595      0.3029      0.1227
            y       0.1924      3.4815      0.1666
            z       0.1447      0.0602      2.7745
-------------------------------------------------------------------------------
   15 Si    x       3.2131     -0.2899     -0.1230
            y      -0.1949      3.4683      0.1592
            z      -0.1084      0.0737      2.8201
-------------------------------------------------------------------------------
   16 Si    x       3.1993     -0.2842      0.1601
            y      -0.1749      3.4548     -0.1660
            z       0.1078     -0.0707      2.8231
-------------------------------------------------------------------------------
   17 Si    x       3.3623      0.5036     -0.2907
            y       0.1810      3.6192     -0.3865
            z      -0.1929     -0.2207      2.9081
-------------------------------------------------------------------------------
   18 Si    x       3.2028      0.3551      0.1663
            y       0.0791      3.4493      0.1783
            z       0.1126      0.0881      2.7248
-------------------------------------------------------------------------------
   19 Si    x       3.2160     -0.3020     -0.1981
            y      -0.0799      3.4380      0.1873
            z      -0.1110      0.0884      2.7645
-------------------------------------------------------------------------------
   20 Si    x       3.2461     -0.3231      0.1912
            y      -0.1010      3.4440     -0.1861
            z       0.1082     -0.0776      2.7369
-------------------------------------------------------------------------------
   21 Si    x       3.2841      0.2329     -0.1395
            y       0.2595      3.3974     -0.1577
            z      -0.1795     -0.0668      2.7308
-------------------------------------------------------------------------------
   22 Si    x       3.2757      0.2454      0.1624
            y       0.2598      3.4058      0.1780
            z       0.1448      0.0677      2.7153
-------------------------------------------------------------------------------
   23 Si    x       3.5341     -0.3755     -0.3198
            y      -0.3955      3.4870      0.3274
            z      -0.3250      0.1395      2.8832
-------------------------------------------------------------------------------
   24 Si    x       3.2317     -0.2548      0.1445
            y      -0.2762      3.3997     -0.1656
            z       0.1776     -0.0561      2.7076
-------------------------------------------------------------------------------
   25 O2    x      -1.6503     -0.6954      0.3297
            y      -0.6662     -1.9948      0.3396
            z       0.3609      0.3315     -1.3692
-------------------------------------------------------------------------------
   26 O2    x      -1.6365     -0.6787     -0.3246
            y      -0.6387     -1.9938     -0.3468
            z      -0.3903     -0.3431     -1.3772
-------------------------------------------------------------------------------
   27 O2    x      -1.6573      0.7039      0.3192
            y       0.6728     -2.0105     -0.3290
            z       0.3705     -0.3309     -1.3641
-------------------------------------------------------------------------------
   28 O2    x      -1.6911      0.7168     -0.3590
            y       0.6795     -2.0134      0.3595
            z      -0.3663      0.3398     -1.3550
-------------------------------------------------------------------------------
   29 O2    x      -1.7713     -0.7149      0.3254
            y      -0.7670     -1.9419      0.3429
            z       0.3742      0.3264     -1.3558
-------------------------------------------------------------------------------
   30 O2    x      -1.8052     -0.7336     -0.3701
            y      -0.7745     -1.9470     -0.3618
            z      -0.3917     -0.3406     -1.3477
-------------------------------------------------------------------------------
   31 O2    x      -1.7613      0.7189      0.3423
            y       0.7605     -1.9437     -0.3554
            z       0.3705     -0.3289     -1.3612
-------------------------------------------------------------------------------
   32 O2    x      -1.7370      0.6999     -0.3333
            y       0.7238     -1.9334      0.3590
            z      -0.3647      0.3231     -1.3772
-------------------------------------------------------------------------------
   33 O2    x      -1.6375      0.0134      0.8491
            y       0.0035     -1.0866     -0.0082
            z       1.0855     -0.0227     -2.8152
-------------------------------------------------------------------------------
   34 O2    x      -1.6863      0.0059     -0.8297
            y      -0.0058     -1.0919      0.0017
            z      -1.0613      0.0208     -2.7101
-------------------------------------------------------------------------------
   35 O2    x      -1.6780      0.0189     -0.7246
            y      -0.0158     -1.1199      0.0125
            z      -0.6943      0.0284     -2.2596
-------------------------------------------------------------------------------
   36 O3    x      -2.0857      0.0190      1.0156
            y      -0.0057     -1.2688      0.0047
            z       1.0039     -0.0096     -2.7791
-------------------------------------------------------------------------------
   37 O2    x      -1.7297      0.0016     -0.7436
            y       0.0126     -1.1168     -0.0012
            z      -0.7471     -0.0056     -2.2462
-------------------------------------------------------------------------------
   38 O2    x      -1.7496      0.0126      0.6936
            y       0.0328     -1.1131     -0.0170
            z       0.6881     -0.0093     -2.1864
-------------------------------------------------------------------------------
   39 O3    x      -2.1022     -0.9113      0.4549
            y      -0.8791     -2.2726      0.5608
            z       0.4695      0.5110     -1.5384
-------------------------------------------------------------------------------
   40 O2    x      -1.7594     -0.6970     -0.3417
            y      -0.6674     -1.9062     -0.3677
            z      -0.3377     -0.3416     -1.2531
-------------------------------------------------------------------------------
   41 O2    x      -1.7420      0.6921      0.4226
            y       0.6445     -1.9115     -0.4235
            z       0.3607     -0.3722     -1.2991
-------------------------------------------------------------------------------
   42 O2    x      -1.7570      0.6966     -0.3378
            y       0.6759     -1.9010      0.3705
            z      -0.3336      0.3307     -1.2686
-------------------------------------------------------------------------------
   43 O2    x      -1.6698     -0.6664      0.3959
            y      -0.5612     -2.0260      0.4278
            z       0.3871      0.3955     -1.2784
-------------------------------------------------------------------------------
   44 O2    x      -1.6429     -0.6776     -0.3533
            y      -0.5810     -2.0163     -0.3784
            z      -0.3657     -0.3564     -1.2548
-------------------------------------------------------------------------------
   45 O3    x      -2.0370      0.9210      0.5361
            y       0.7876     -2.3613     -0.5114
            z       0.5671     -0.4970     -1.5059
-------------------------------------------------------------------------------
   46 O2    x      -1.6392      0.6713     -0.3540
            y       0.5516     -2.0255      0.3721
            z      -0.3624      0.3527     -1.2346
-------------------------------------------------------------------------------
   47 O3    x      -2.2307     -0.0656     -0.8462
            y      -0.0752     -1.3575     -0.0319
            z      -0.4784     -0.0021     -2.0189
-------------------------------------------------------------------------------
   48 O2    x      -1.7854      0.0165      0.5995
            y       0.0081     -1.2059     -0.0099
            z       0.3162     -0.0010     -1.6835
-------------------------------------------------------------------------------
   49 O2    x      -1.1610     -0.0529      0.0597
            y      -0.1007     -2.5609      0.0035
            z       0.0675     -0.0092     -1.0670
-------------------------------------------------------------------------------
   50 O2    x      -1.1605     -0.0529     -0.0694
            y      -0.0963     -2.5493     -0.0111
            z      -0.0754     -0.0010     -1.0719
-------------------------------------------------------------------------------
   51 O2    x      -1.1625      0.0633      0.0624
            y       0.1244     -2.5589     -0.0162
            z       0.0738      0.0059     -1.0732
-------------------------------------------------------------------------------
   52 O2    x      -1.1793      0.0663     -0.0546
            y       0.1275     -2.5932      0.0007
            z      -0.0692     -0.0193     -1.0508
-------------------------------------------------------------------------------
   53 O2    x      -2.4085      0.1003     -0.0206
            y       0.0442     -1.2544      0.0667
            z      -0.0063      0.0455     -1.0574
-------------------------------------------------------------------------------
   54 O2    x      -2.3992      0.1012     -0.0247
            y       0.0525     -1.2535     -0.0658
            z      -0.0356     -0.0454     -1.0665
-------------------------------------------------------------------------------
   55 O2    x      -2.4131     -0.1201      0.0354
            y      -0.0609     -1.2562     -0.0688
            z       0.0340     -0.0431     -1.0704
-------------------------------------------------------------------------------
   56 O2    x      -2.4128     -0.1109      0.0334
            y      -0.0528     -1.2574      0.0742
            z       0.0009      0.0461     -1.0662
-------------------------------------------------------------------------------
   57 O2    x      -1.2150     -0.1309     -0.0247
            y      -0.1309     -1.2726      0.0031
            z      -0.0335      0.0123     -2.0561
-------------------------------------------------------------------------------
   58 O2    x      -1.2150     -0.1236      0.0482
            y      -0.1265     -1.2722     -0.0030
            z       0.0574     -0.0160     -2.0778
-------------------------------------------------------------------------------
   59 O2    x      -1.2048      0.1252     -0.0627
            y       0.1277     -1.2717     -0.0144
            z      -0.0795     -0.0296     -2.0659
-------------------------------------------------------------------------------
   60 O2    x      -1.2313      0.1393      0.0040
            y       0.1332     -1.2963      0.0288
            z       0.0227      0.0408     -2.0317
-------------------------------------------------------------------------------
   61 O2    x      -1.1760     -0.1299     -0.0439
            y      -0.0823     -1.2904      0.0215
            z      -0.0180     -0.0058     -2.0634
-------------------------------------------------------------------------------
   62 O2    x      -1.2048     -0.1377     -0.0209
            y      -0.0860     -1.3132     -0.0175
            z      -0.0369      0.0043     -2.0224
-------------------------------------------------------------------------------
   63 O2    x      -1.1816      0.1288     -0.0077
            y       0.0907     -1.2907     -0.0111
            z       0.0061      0.0069     -2.0726
-------------------------------------------------------------------------------
   64 O2    x      -1.1802      0.1274      0.0294
            y       0.0900     -1.2922      0.0182
            z       0.0177      0.0047     -2.0835
-------------------------------------------------------------------------------
   65 O2    x      -1.2793      0.0816      0.0949
            y       0.1550     -2.3907      0.0029
            z       0.1126     -0.0093     -1.0333
-------------------------------------------------------------------------------
   66 O2    x      -1.2455      0.0820     -0.0874
            y       0.1704     -2.4709     -0.0218
            z      -0.1061     -0.0025     -1.0130
-------------------------------------------------------------------------------
   67 O2    x      -1.2362     -0.0650      0.0908
            y      -0.1323     -2.5069     -0.0121
            z       0.1008     -0.0004     -1.0231
-------------------------------------------------------------------------------
   68 O2    x      -1.2282     -0.0608     -0.0921
            y      -0.1365     -2.5016      0.0096
            z      -0.0952     -0.0027     -1.0188
-------------------------------------------------------------------------------
   69 O2    x      -2.3739     -0.1260      0.0022
            y      -0.0717     -1.2497      0.0658
            z       0.0132      0.0370     -1.0459
-------------------------------------------------------------------------------
   70 O2    x      -2.4084     -0.1634      0.0136
            y      -0.1051     -1.2589     -0.0668
            z       0.0149     -0.0332     -1.0501
-------------------------------------------------------------------------------
   71 O2    x      -2.4380      0.1056     -0.0144
            y       0.0611     -1.2440     -0.0620
            z      -0.0085     -0.0359     -1.0274
-------------------------------------------------------------------------------
   72 O2    x      -2.4354      0.1020     -0.0215
            y       0.0637     -1.2431      0.0658
            z      -0.0034      0.0383     -1.0344
-------------------------------------------------------------------------------




  Elastic Constant Matrix: (Units=GPa)

-------------------------------------------------------------------------------
  Indices      1         2         3         4         5         6    
-------------------------------------------------------------------------------
       1     57.8058   29.1978   31.5464    0.8399    1.6710   -0.7023
       2     29.1978   79.3056   27.0088    1.1481    0.6451   -0.4466
       3     31.5464   27.0088   34.6758    0.4270    2.1873   -0.0830
       4      0.8399    1.1481    0.4270   13.4612   -0.6101    0.5498
       5      1.6710    0.6451    2.1873   -0.6101   27.5988   -0.0297
       6     -0.7023   -0.4466   -0.0830    0.5498   -0.0297   30.2199
-------------------------------------------------------------------------------


  Elastic Compliance Matrix: (Units=1/GPa)

-------------------------------------------------------------------------------
  Indices      1         2         3         4         5         6    
-------------------------------------------------------------------------------
       1    0.034826 -0.002741 -0.029551 -0.001018  0.000276  0.000706
       2   -0.002741  0.017405 -0.011090 -0.000941  0.000617  0.000181
       3   -0.029551 -0.011090  0.064544  0.000632 -0.003054 -0.000688
       4   -0.001018 -0.000941  0.000632  0.074544  0.001680 -0.001390
       5    0.000276  0.000617 -0.003054  0.001680  0.036482  0.000012
       6    0.000706  0.000181 -0.000688 -0.001390  0.000012  0.033133
-------------------------------------------------------------------------------

  Mechanical properties :

-------------------------------------------------------------------------------
  Convention :                    Reuss         Voigt         Hill
-------------------------------------------------------------------------------
  Bulk  Modulus (GPa)     =      33.32162      38.58812      35.95487
  Shear Modulus (GPa)     =      13.97805      19.85824      16.91814
-------------------------------------------------------------------------------
  Velocity S-wave (km/s)  =       2.74325       3.26974       3.01800
  Velocity P-wave (km/s)  =       5.28900       5.91860       5.61263
-------------------------------------------------------------------------------
  Compressibility (1/GPa) =    0.03001055
-------------------------------------------------------------------------------
  Stress axis :                     x             y             z
-------------------------------------------------------------------------------
  Youngs Moduli (GPa)     =      28.71379      57.45425      15.49329
-------------------------------------------------------------------------------
  Poissons Ratio (x)      =                     0.15750       0.45785
  Poissons Ratio (y)      =       0.07871                     0.17182
  Poissons Ratio (z)      =       0.84853       0.63716
-------------------------------------------------------------------------------


  Piezoelectric Strain Matrix: (Units=C/m**2)

-------------------------------------------------------------------------------
  Indices      1         2         3         4         5         6    
-------------------------------------------------------------------------------
       x    -0.06262   0.05176  -0.45669  -0.23699  -0.04122   0.04469
       y     0.22953   0.01476  -0.29983  -0.08685  -0.42721   0.18370
       z    -0.13402   0.05013  -1.25001   0.03722   0.22290  -0.04102
-------------------------------------------------------------------------------


  Piezoelectric Stress Matrix: (Units=10**-11 C/N)

-------------------------------------------------------------------------------
  Indices      1         2         3         4         5         6    
-------------------------------------------------------------------------------
       x     1.14347   0.63428  -2.82550  -1.80714  -0.04921   0.20892
       y     1.69141   0.28039  -2.51756  -0.78844  -1.47410   0.65731
       z     3.21294   1.51974  -7.79049   0.25046   1.20048  -0.06340
-------------------------------------------------------------------------------


  Static dielectric constant tensor : 

-------------------------------------------------------------------------------
              x         y         z
-------------------------------------------------------------------------------
       x     3.72914  -0.00199  -0.03942
       y    -0.00199   3.76055   0.04097
       z    -0.03942   0.04097   3.16539
--------------------------------------------------------------------------------

  High frequency dielectric constant tensor : 

-------------------------------------------------------------------------------
              x         y         z
-------------------------------------------------------------------------------
       x     1.69587  -0.00021   0.00068
       y    -0.00021   1.70380   0.00020
       z     0.00068   0.00020   1.63385
-------------------------------------------------------------------------------

  Static refractive indices : 

-------------------------------------------------------------------------------
    1 =    1.77761      2 =    1.93162      3 =    1.94011
-------------------------------------------------------------------------------

  High frequency refractive indices : 

-------------------------------------------------------------------------------
    1 =    1.27822      2 =    1.30226      3 =    1.30530
-------------------------------------------------------------------------------


  Time to end of optimisation =       6.0956 seconds


  Peak dynamic memory used =       5.01 MB 


  Timing analysis for GULP :

--------------------------------------------------------------------------------
  Task / Subroutine                                          Time (Seconds)
--------------------------------------------------------------------------------
  Calculation of reciprocal space energy and derivatives          0.3865
  Calculation of real space energy and derivatives                3.6348
  Calculation of three-body energy and derivatives                0.4478
  Calculation and manipulation of Hessian matrix                  1.9183
  Calculation of matrix inversion                                 0.0231
--------------------------------------------------------------------------------
  Total CPU time                                                  6.0956
--------------------------------------------------------------------------------


  Dump file written as c00002.vasp.grs
  CIF file written as c00002.vasp.cif


  Job Finished at 10:44.09  7th October    2025                               

