********************************************************************************
*                       GENERAL UTILITY LATTICE PROGRAM                        *
*                                 Julian Gale                                  *
*                       Curtin Institute for Computation                       *
*                    School of Molecular and Life Sciences                     *
*                    Curtin University, Western Australia                      *
********************************************************************************
* Version = 6.1.2 * Last modified =   3rd November 2022                        *
********************************************************************************
*  optimise     - perform optimisation run                                     *
*  conp         - constant pressure calculation                                *
*  property     - calculate properties for final geometry                      *
********************************************************************************

  Job Started  at 11:39.08 31st October    2025                               

  Number of CPUs =     1


  Total number of configurations input =      1

********************************************************************************
*  Input for Configuration =   1 : c00008.vasp                                 *
********************************************************************************

  Formula = Ge21Si3O48                                                  

  Number of irreducible atoms/shells =     120


  Total number atoms/shells =     120

  Dimensionality = 3               :  Bulk   



  Cartesian lattice vectors (Angstroms) :

       17.182800    0.000000    0.000000
        0.000000    7.513760    0.000000
        0.000000    0.000000   10.447700

  Cell parameters (Angstroms/Degrees):

  a =      17.1828    alpha =  90.0000
  b =       7.5138    beta  =  90.0000
  c =      10.4477    gamma =  90.0000

  Initial cell volume =        1348.875752 Angs**3

  Temperature of configuration =   0.00     K 

  Pressure of configuration =         0.000 GPa 

  Fractional coordinates of asymmetric unit :

--------------------------------------------------------------------------------
   No.  Atomic       x           y          z         Charge      Occupancy
        Label      (Frac)      (Frac)     (Frac)        (e)         (Frac)  
--------------------------------------------------------------------------------
      1 Ge    c    0.052090    0.000000    0.372270     4.00000    1.000000    
      2 Ge    c    0.447910 *  0.000000 *  0.372270 *   4.00000    1.000000    
      3 Ge    c    0.947910 *  0.000000 *  0.627730 *   4.00000    1.000000    
      4 Ge    c    0.552090 *  0.000000 *  0.627730 *   4.00000    1.000000    
      5 Ge    c    0.556730 *  0.000000 *  0.122130 *   4.00000    1.000000    
      6 Ge    c    0.943270 *  0.000000 *  0.122130 *   4.00000    1.000000    
      7 Ge    c    0.443270 *  0.000000 *  0.877870 *   4.00000    1.000000    
      8 Ge    c    0.056730 *  0.000000 *  0.877870 *   4.00000    1.000000    
      9 Ge    c    0.160190 *  0.293910 *  0.273440 *   4.00000    1.000000    
     10 Ge    c    0.339810 *  0.706090 *  0.273440 *   4.00000    1.000000    
     11 Ge    c    0.839810 *  0.293910 *  0.726560 *   4.00000    1.000000    
     12 Ge    c    0.660190 *  0.706090 *  0.726560 *   4.00000    1.000000    
     13 Ge    c    0.839810 *  0.706090 *  0.726560 *   4.00000    1.000000    
     14 Ge    c    0.660190 *  0.293910 *  0.726560 *   4.00000    1.000000    
     15 Ge    c    0.160190 *  0.706090 *  0.273440 *   4.00000    1.000000    
     16 Ge    c    0.660660 *  0.294090 *  0.017440 *   4.00000    1.000000    
     17 Ge    c    0.839340 *  0.705910 *  0.017440 *   4.00000    1.000000    
     18 Ge    c    0.339340 *  0.294090 *  0.982560 *   4.00000    1.000000    
     19 Ge    c    0.160660 *  0.705910 *  0.982560 *   4.00000    1.000000    
     20 Ge    c    0.339340 *  0.705910 *  0.982560 *   4.00000    1.000000    
     21 Ge    c    0.160660 *  0.294090 *  0.982560 *   4.00000    1.000000    
     22 Si    c    0.339810 *  0.293910 *  0.273440 *   4.00000    1.000000    
     23 Si    c    0.660660 *  0.705910 *  0.017440 *   4.00000    1.000000    
     24 Si    c    0.839340 *  0.294090 *  0.017440 *   4.00000    1.000000    
     25 O1    c    0.106570 *  0.174340 *  0.366200 *   1.73396    1.000000    
     26 O1    c    0.393430 *  0.825660 *  0.366200 *   1.73396    1.000000    
     27 O1    c    0.893430 *  0.174340 *  0.633800 *   1.73396    1.000000    
     28 O1    c    0.606570 *  0.825660 *  0.633800 *   1.73396    1.000000    
     29 O1    c    0.893430 *  0.825660 *  0.633800 *   1.73396    1.000000    
     30 O1    c    0.606570 *  0.174340 *  0.633800 *   1.73396    1.000000    
     31 O1    c    0.106570 *  0.825660 *  0.366200 *   1.73396    1.000000    
     32 O3    c    0.393430 *  0.174340 *  0.366200 *   1.33043    1.000000    
     33 O1    c    0.000000 *  0.000000 *  0.500000 *   1.73396    1.000000    
     34 O1    c    0.500000 *  0.000000 *  0.500000 *   1.73396    1.000000    
     35 O1    c    0.994520 *  0.000000 *  0.250840 *   1.73396    1.000000    
     36 O1    c    0.505480 *  0.000000 *  0.250840 *   1.73396    1.000000    
     37 O1    c    0.005480 *  0.000000 *  0.749160 *   1.73396    1.000000    
     38 O1    c    0.494520 *  0.000000 *  0.749160 *   1.73396    1.000000    
     39 O1    c    0.610230 *  0.175520 *  0.115390 *   1.73396    1.000000    
     40 O1    c    0.889770 *  0.824480 *  0.115390 *   1.73396    1.000000    
     41 O1    c    0.389770 *  0.175520 *  0.884610 *   1.73396    1.000000    
     42 O1    c    0.110230 *  0.824480 *  0.884610 *   1.73396    1.000000    
     43 O1    c    0.389770 *  0.824480 *  0.884610 *   1.73396    1.000000    
     44 O1    c    0.110230 *  0.175520 *  0.884610 *   1.73396    1.000000    
     45 O3    c    0.610230 *  0.824480 *  0.115390 *   1.33043    1.000000    
     46 O3    c    0.889770 *  0.175520 *  0.115390 *   1.33043    1.000000    
     47 O1    c    0.500000 *  0.000000 *  0.000000 *   1.73396    1.000000    
     48 O1    c    0.000000 *  0.000000 *  0.000000 *   1.73396    1.000000    
     49 O1    c    0.151750 *  0.500000 *  0.313330 *   1.73396    1.000000    
     50 O3    c    0.348250 *  0.500000 *  0.313330 *   1.33043    1.000000    
     51 O1    c    0.848250 *  0.500000 *  0.686670 *   1.73396    1.000000    
     52 O1    c    0.651750 *  0.500000 *  0.686670 *   1.73396    1.000000    
     53 O3    c    0.250000 *  0.234950 *  0.285720 *   1.33043    1.000000    
     54 O1    c    0.250000 *  0.765050 *  0.285720 *   1.73396    1.000000    
     55 O1    c    0.750000 *  0.234950 *  0.714280 *   1.73396    1.000000    
     56 O1    c    0.750000 *  0.765050 *  0.714280 *   1.73396    1.000000    
     57 O1    c    0.131410 *  0.268650 *  0.127790 *   1.73396    1.000000    
     58 O1    c    0.368590 *  0.731350 *  0.127790 *   1.73396    1.000000    
     59 O3    c    0.868590 *  0.268650 *  0.872210 *   1.33043    1.000000    
     60 O3    c    0.631410 *  0.731350 *  0.872210 *   1.33043    1.000000    
     61 O1    c    0.868590 *  0.731350 *  0.872210 *   1.73396    1.000000    
     62 O1    c    0.631410 *  0.268650 *  0.872210 *   1.73396    1.000000    
     63 O1    c    0.131410 *  0.731350 *  0.127790 *   1.73396    1.000000    
     64 O3    c    0.368590 *  0.268650 *  0.127790 *   1.33043    1.000000    
     65 O3    c    0.653920 *  0.500000 *  0.058200 *   1.33043    1.000000    
     66 O3    c    0.846080 *  0.500000 *  0.058200 *   1.33043    1.000000    
     67 O1    c    0.346080 *  0.500000 *  0.941800 *   1.73396    1.000000    
     68 O1    c    0.153920 *  0.500000 *  0.941800 *   1.73396    1.000000    
     69 O3    c    0.750000 *  0.231060 *  0.027050 *   1.33043    1.000000    
     70 O3    c    0.750000 *  0.768940 *  0.027050 *   1.33043    1.000000    
     71 O1    c    0.250000 *  0.231060 *  0.972950 *   1.73396    1.000000    
     72 O1    c    0.250000 *  0.768940 *  0.972950 *   1.73396    1.000000    
     73 O1    s    0.106570 *  0.174340 *  0.366200 *  -3.73396    1.000000    
     74 O1    s    0.393430 *  0.825660 *  0.366200 *  -3.73396    1.000000    
     75 O1    s    0.893430 *  0.174340 *  0.633800 *  -3.73396    1.000000    
     76 O1    s    0.606570 *  0.825660 *  0.633800 *  -3.73396    1.000000    
     77 O1    s    0.893430 *  0.825660 *  0.633800 *  -3.73396    1.000000    
     78 O1    s    0.606570 *  0.174340 *  0.633800 *  -3.73396    1.000000    
     79 O1    s    0.106570 *  0.825660 *  0.366200 *  -3.73396    1.000000    
     80 O3    s    0.393430 *  0.174340 *  0.366200 *  -3.33043    1.000000    
     81 O1    s    0.000000 *  0.000000 *  0.500000 *  -3.73396    1.000000    
     82 O1    s    0.500000 *  0.000000 *  0.500000 *  -3.73396    1.000000    
     83 O1    s    0.994520 *  0.000000 *  0.250840 *  -3.73396    1.000000    
     84 O1    s    0.505480 *  0.000000 *  0.250840 *  -3.73396    1.000000    
     85 O1    s    0.005480 *  0.000000 *  0.749160 *  -3.73396    1.000000    
     86 O1    s    0.494520 *  0.000000 *  0.749160 *  -3.73396    1.000000    
     87 O1    s    0.610230 *  0.175520 *  0.115390 *  -3.73396    1.000000    
     88 O1    s    0.889770 *  0.824480 *  0.115390 *  -3.73396    1.000000    
     89 O1    s    0.389770 *  0.175520 *  0.884610 *  -3.73396    1.000000    
     90 O1    s    0.110230 *  0.824480 *  0.884610 *  -3.73396    1.000000    
     91 O1    s    0.389770 *  0.824480 *  0.884610 *  -3.73396    1.000000    
     92 O1    s    0.110230 *  0.175520 *  0.884610 *  -3.73396    1.000000    
     93 O3    s    0.610230 *  0.824480 *  0.115390 *  -3.33043    1.000000    
     94 O3    s    0.889770 *  0.175520 *  0.115390 *  -3.33043    1.000000    
     95 O1    s    0.500000 *  0.000000 *  0.000000 *  -3.73396    1.000000    
     96 O1    s    0.000000 *  0.000000 *  0.000000 *  -3.73396    1.000000    
     97 O1    s    0.151750 *  0.500000 *  0.313330 *  -3.73396    1.000000    
     98 O3    s    0.348250 *  0.500000 *  0.313330 *  -3.33043    1.000000    
     99 O1    s    0.848250 *  0.500000 *  0.686670 *  -3.73396    1.000000    
    100 O1    s    0.651750 *  0.500000 *  0.686670 *  -3.73396    1.000000    
    101 O3    s    0.250000 *  0.234950 *  0.285720 *  -3.33043    1.000000    
    102 O1    s    0.250000 *  0.765050 *  0.285720 *  -3.73396    1.000000    
    103 O1    s    0.750000 *  0.234950 *  0.714280 *  -3.73396    1.000000    
    104 O1    s    0.750000 *  0.765050 *  0.714280 *  -3.73396    1.000000    
    105 O1    s    0.131410 *  0.268650 *  0.127790 *  -3.73396    1.000000    
    106 O1    s    0.368590 *  0.731350 *  0.127790 *  -3.73396    1.000000    
    107 O3    s    0.868590 *  0.268650 *  0.872210 *  -3.33043    1.000000    
    108 O3    s    0.631410 *  0.731350 *  0.872210 *  -3.33043    1.000000    
    109 O1    s    0.868590 *  0.731350 *  0.872210 *  -3.73396    1.000000    
    110 O1    s    0.631410 *  0.268650 *  0.872210 *  -3.73396    1.000000    
    111 O1    s    0.131410 *  0.731350 *  0.127790 *  -3.73396    1.000000    
    112 O3    s    0.368590 *  0.268650 *  0.127790 *  -3.33043    1.000000    
    113 O3    s    0.653920 *  0.500000 *  0.058200 *  -3.33043    1.000000    
    114 O3    s    0.846080 *  0.500000 *  0.058200 *  -3.33043    1.000000    
    115 O1    s    0.346080 *  0.500000 *  0.941800 *  -3.73396    1.000000    
    116 O1    s    0.153920 *  0.500000 *  0.941800 *  -3.73396    1.000000    
    117 O3    s    0.750000 *  0.231060 *  0.027050 *  -3.33043    1.000000    
    118 O3    s    0.750000 *  0.768940 *  0.027050 *  -3.33043    1.000000    
    119 O1    s    0.250000 *  0.231060 *  0.972950 *  -3.73396    1.000000    
    120 O1    s    0.250000 *  0.768940 *  0.972950 *  -3.73396    1.000000    
--------------------------------------------------------------------------------



********************************************************************************
*  General input information                                                   *
********************************************************************************

  Species output for all configurations : 

--------------------------------------------------------------------------------
  Species    Type    Atomic    Atomic    Charge       Radii (Angs)     Library
                     Number     Mass       (e)     Cova   Ionic  VDW   Symbol
--------------------------------------------------------------------------------
    Ge       Core       32      72.61   4.000000   1.170  0.000  1.750 Ge       
    Si       Core       14      28.09   4.000000   1.200  0.000  2.100 Si       
    O1       Core        8      16.00   1.733957   0.730  0.000  1.360 O1       
    O2       Core        8      16.00   0.870733   0.730  0.000  0.000 O2       
    O3       Core        8      16.00   1.330431   0.730  0.000  1.360 O3       
    O1       Shell       8       0.00  -3.733957   0.730  0.000  0.000 O1       
    O2       Shell       8       0.00  -2.870733   0.730  0.000  0.000 O2       
    O3       Shell       8       0.00  -3.330431   0.730  0.000  0.000 O3       
--------------------------------------------------------------------------------


  Lattice summation method               =    Ewald          (3-D)
                                         =    Parry          (2-D)
                                         =    Saunders et al (1-D)
  Accuracy factor for lattice sums       =   12.000


  Analytic derivatives to be used

  Time limit = Infinity

  Maximum range for interatomic potentials =    100000.000000 Angstroms

  General interatomic potentials :

--------------------------------------------------------------------------------
Atom  Types   Potential      Parameter       Value         Units   Cutoffs(Ang)
  1     2                                                            Min /  Max 
--------------------------------------------------------------------------------
Si   c O1   s Buckingham    Buckingham A     1315.2478    eV        0.000 16.000
                            Buckingham rho  0.31775900    Ang       
                            Buckingham C     10.141118    eV*Ang^6  
--------------------------------------------------------------------------------
Si   c O2   s Buckingham    Buckingham A     1315.2478    eV        0.000 16.000
                            Buckingham rho  0.31775900    Ang       
                            Buckingham C     10.141118    eV*Ang^6  
--------------------------------------------------------------------------------
Si   c O3   s Buckingham    Buckingham A     1315.2478    eV        0.000 16.000
                            Buckingham rho  0.31775900    Ang       
                            Buckingham C     10.141118    eV*Ang^6  
--------------------------------------------------------------------------------
Ge   c O1   s Buckingham    Buckingham A     1497.3996    eV        0.000 16.000
                            Buckingham rho  0.32564600    Ang       
                            Buckingham C     16.808599    eV*Ang^6  
--------------------------------------------------------------------------------
Ge   c O2   s Buckingham    Buckingham A     1497.3996    eV        0.000 16.000
                            Buckingham rho  0.32564600    Ang       
                            Buckingham C     16.808599    eV*Ang^6  
--------------------------------------------------------------------------------
Ge   c O3   s Buckingham    Buckingham A     1497.3996    eV        0.000 16.000
                            Buckingham rho  0.32564600    Ang       
                            Buckingham C     16.808599    eV*Ang^6  
--------------------------------------------------------------------------------
O1   s O1   s Buckingham    Buckingham A     22764.000    eV        0.000 16.000
                            Buckingham rho  0.14900000    Ang       
                            Buckingham C     10.937044    eV*Ang^6  
--------------------------------------------------------------------------------
O1   s O2   s Buckingham    Buckingham A     22764.000    eV        0.000 16.000
                            Buckingham rho  0.14900000    Ang       
                            Buckingham C     10.937044    eV*Ang^6  
--------------------------------------------------------------------------------
O1   s O3   s Buckingham    Buckingham A     22764.000    eV        0.000 16.000
                            Buckingham rho  0.14900000    Ang       
                            Buckingham C     10.937044    eV*Ang^6  
--------------------------------------------------------------------------------
O2   s O2   s Buckingham    Buckingham A     22764.000    eV        0.000 16.000
                            Buckingham rho  0.14900000    Ang       
                            Buckingham C     10.937044    eV*Ang^6  
--------------------------------------------------------------------------------
O2   s O3   s Buckingham    Buckingham A     22764.000    eV        0.000 16.000
                            Buckingham rho  0.14900000    Ang       
                            Buckingham C     10.937044    eV*Ang^6  
--------------------------------------------------------------------------------
O3   s O3   s Buckingham    Buckingham A     22764.000    eV        0.000 16.000
                            Buckingham rho  0.14900000    Ang       
                            Buckingham C     10.937044    eV*Ang^6  
--------------------------------------------------------------------------------
O1   c O1   s Spring (c-s)  Spring k 2       180.31577    eV*Ang^-2 0.000  0.800
                            Spring k 4       0.0000000    eV*Ang^-4 
--------------------------------------------------------------------------------
O2   c O2   s Spring (c-s)  Spring k 2       75.969800    eV*Ang^-2 0.000  0.800
                            Spring k 4       0.0000000    eV*Ang^-4 
--------------------------------------------------------------------------------
O3   c O3   s Spring (c-s)  Spring k 2       128.14270    eV*Ang^-2 0.000  0.800
                            Spring k 4       0.0000000    eV*Ang^-4 
--------------------------------------------------------------------------------

  General Three-body potentials :

--------------------------------------------------------------------------------
  Atoms       Potential      Parameter       Value         Units   Cutoffs(Ang)
  1 / 2 / 3                                                          Min /  Max 
--------------------------------------------------------------------------------
Si    core    Harmonic      Three-body cnst  1.2614000    eV*rad^-2 0.000  1.900
O1    shel                  Three-body angl  109.47000    degrees   0.000  1.900
O1    shel                  Three-body k4    0.0000000    eV*rad^-4 0.000  3.500
                            Three-body k3    0.0000000    eV*rad^-3 
--------------------------------------------------------------------------------
Si    core    Harmonic      Three-body cnst  1.2614000    eV*rad^-2 0.000  1.900
O1    shel                  Three-body angl  109.47000    degrees   0.000  1.900
õ(1   shel                  Three-body k4    0.0000000    eV*rad^-4 0.000  3.500
                            Three-body k3    0.0000000    eV*rad^-3 
--------------------------------------------------------------------------------
Si    core    Harmonic      Three-body cnst  1.2614000    eV*rad^-2 0.000  1.900
õ(1   shel                  Three-body angl  109.47000    degrees   0.000  1.900
õ(1   shel                  Three-body k4    0.0000000    eV*rad^-4 0.000  3.500
                            Three-body k3    0.0000000    eV*rad^-3 
--------------------------------------------------------------------------------
Si    core    Harmonic      Three-body cnst  1.2614000    eV*rad^-2 0.000  1.900
O1    shel                  Three-body angl  109.47000    degrees   0.000  1.900
O2    shel                  Three-body k4    0.0000000    eV*rad^-4 0.000  3.500
                            Three-body k3    0.0000000    eV*rad^-3 
--------------------------------------------------------------------------------
Si    core    Harmonic      Three-body cnst  1.2614000    eV*rad^-2 0.000  1.900
O1    shel                  Three-body angl  109.47000    degrees   0.000  1.900
õ(2   shel                  Three-body k4    0.0000000    eV*rad^-4 0.000  3.500
                            Three-body k3    0.0000000    eV*rad^-3 
--------------------------------------------------------------------------------
Si    core    Harmonic      Three-body cnst  1.2614000    eV*rad^-2 0.000  1.900
O2    shel                  Three-body angl  109.47000    degrees   0.000  1.900
õ(1   shel                  Three-body k4    0.0000000    eV*rad^-4 0.000  3.500
                            Three-body k3    0.0000000    eV*rad^-3 
--------------------------------------------------------------------------------
Si    core    Harmonic      Three-body cnst  1.2614000    eV*rad^-2 0.000  1.900
õ(1   shel                  Three-body angl  109.47000    degrees   0.000  1.900
õ(2   shel                  Three-body k4    0.0000000    eV*rad^-4 0.000  3.500
                            Three-body k3    0.0000000    eV*rad^-3 
--------------------------------------------------------------------------------
Si    core    Harmonic      Three-body cnst  1.2614000    eV*rad^-2 0.000  1.900
O2    shel                  Three-body angl  109.47000    degrees   0.000  1.900
O2    shel                  Three-body k4    0.0000000    eV*rad^-4 0.000  3.500
                            Three-body k3    0.0000000    eV*rad^-3 
--------------------------------------------------------------------------------
Si    core    Harmonic      Three-body cnst  1.2614000    eV*rad^-2 0.000  1.900
O2    shel                  Three-body angl  109.47000    degrees   0.000  1.900
õ(2   shel                  Three-body k4    0.0000000    eV*rad^-4 0.000  3.500
                            Three-body k3    0.0000000    eV*rad^-3 
--------------------------------------------------------------------------------
Si    core    Harmonic      Three-body cnst  1.2614000    eV*rad^-2 0.000  1.900
õ(2   shel                  Three-body angl  109.47000    degrees   0.000  1.900
õ(2   shel                  Three-body k4    0.0000000    eV*rad^-4 0.000  3.500
                            Three-body k3    0.0000000    eV*rad^-3 
--------------------------------------------------------------------------------

********************************************************************************
*  Output for configuration   1 : c00008.vasp                                  *
********************************************************************************


  Components of energy : 

--------------------------------------------------------------------------------
  Interatomic potentials     =         904.61950999 eV    
  Three-body potentials      =           0.00000000 eV    
  Monopole - monopole (real) =       -2676.00317478 eV    
  Monopole - monopole (recip)=       -1115.35404472 eV    
  Monopole - monopole (total)=       -3791.35721950 eV    
--------------------------------------------------------------------------------
  Total lattice energy       =       -2886.73770951 eV    
--------------------------------------------------------------------------------
  Total lattice energy       =         -278526.0611 kJ/(mole unit cells)
--------------------------------------------------------------------------------


  Number of variables =      363

  Maximum number of calculations  =          1000
  Maximum Hessian update interval =            10
  Maximum step size               =   0.100000000
  Maximum parameter tolerance     =   0.000010000
  Maximum function  tolerance     =   0.000010000
  Maximum gradient  tolerance     =   0.001000000
  Maximum gradient  component     =   0.010000000

  Symmetry not applied to optimisation

  Cell parameters to be optimised using strains

  Newton-Raphson optimiser to be used

  BFGS hessian update to be used

  Lower half triangular hessian to be used

  Minimiser to switch to RFO
  When gradient norm is less than     0.050000

  Dumpfile to be written after every cycle

  Start of bulk optimisation :

  Cycle:      0 Energy:     -2886.737710  Gnorm:      5.874692  CPU:    0.116
  ** Hessian calculated **
  Cycle:      1 Energy:     -2931.469921  Gnorm:      1.416953  CPU:    0.260
  ** Hessian calculated **
  Cycle:      2 Energy:     -2937.382955  Gnorm:      0.652798  CPU:    0.510
  ** Hessian calculated **
  Cycle:      3 Energy:     -2938.410990  Gnorm:      0.306513  CPU:    0.699
  Cycle:      4 Energy:     -2938.621728  Gnorm:      0.158291  CPU:    0.793
  Cycle:      5 Energy:     -2938.728802  Gnorm:      0.132143  CPU:    0.908
  Cycle:      6 Energy:     -2938.859193  Gnorm:      0.111415  CPU:    1.021
  Cycle:      7 Energy:     -2938.982616  Gnorm:      0.107670  CPU:    1.133
  Cycle:      8 Energy:     -2939.042031  Gnorm:      0.077734  CPU:    1.232
  Cycle:      9 Energy:     -2939.072805  Gnorm:      0.069386  CPU:    1.329
  Cycle:     10 Energy:     -2939.100945  Gnorm:      0.062815  CPU:    1.439
  Cycle:     11 Energy:     -2939.127420  Gnorm:      0.063775  CPU:    1.554
  Cycle:     12 Energy:     -2939.158378  Gnorm:      0.070440  CPU:    1.668
  ** Hessian calculated **
  Cycle:     13 Energy:     -2939.169438  Gnorm:      0.061315  CPU:    1.914
  Cycle:     14 Energy:     -2939.185138  Gnorm:      0.055786  CPU:    2.028
  Cycle:     15 Energy:     -2939.206464  Gnorm:      0.051187  CPU:    2.142
  Cycle:     16 Energy:     -2939.231631  Gnorm:      0.051800  CPU:    2.251
  Cycle:     17 Energy:     -2939.250837  Gnorm:      0.050048  CPU:    2.350
  Cycle:     18 Energy:     -2939.268143  Gnorm:      0.053460  CPU:    2.469
  Cycle:     19 Energy:     -2939.283320  Gnorm:      0.056596  CPU:    2.586
  Cycle:     20 Energy:     -2939.304790  Gnorm:      0.062113  CPU:    2.703
  Cycle:     21 Energy:     -2939.337597  Gnorm:      0.070210  CPU:    2.819
  Cycle:     22 Energy:     -2939.385880  Gnorm:      0.076841  CPU:    2.938
  ** Hessian calculated **
  Cycle:     23 Energy:     -2939.415149  Gnorm:      0.075060  CPU:    3.153
  Cycle:     24 Energy:     -2939.467700  Gnorm:      0.071589  CPU:    3.290
  Cycle:     25 Energy:     -2939.538232  Gnorm:      0.066973  CPU:    3.407
  Cycle:     26 Energy:     -2939.610954  Gnorm:      0.065948  CPU:    3.524
  ** Hessian calculated **
  Cycle:     27 Energy:     -2939.722753  Gnorm:      0.068583  CPU:    3.749
  ** Hessian calculated **
  Cycle:     28 Energy:     -2939.852770  Gnorm:      0.066093  CPU:    3.962
  Cycle:     29 Energy:     -2939.974986  Gnorm:      0.047658  CPU:    4.054
  ** Hessian has wrong structure
  ** Imaginary eigenvectors =   5
  Cycle:     30 Energy:     -2939.989522  Gnorm:      0.104115  CPU:    4.305
  ** Hessian has wrong structure
  ** Imaginary eigenvectors =   5
  ** Hessian has wrong structure
  ** Imaginary eigenvectors =   4
  Cycle:     31 Energy:     -2940.010273  Gnorm:      0.117797  CPU:    4.825
  ** Hessian calculated **
  Cycle:     32 Energy:     -2940.043320  Gnorm:      0.042963  CPU:    5.021
  ** Hessian has required structure
  Cycle:     33 Energy:     -2940.046377  Gnorm:      0.060787  CPU:    5.163
  ** Hessian has required structure
  Cycle:     34 Energy:     -2940.052475  Gnorm:      0.066515  CPU:    5.306
  ** Hessian has required structure
  Cycle:     35 Energy:     -2940.055394  Gnorm:      0.072668  CPU:    5.449
  ** Hessian has required structure
  Cycle:     36 Energy:     -2940.058223  Gnorm:      0.071906  CPU:    5.591
  ** Hessian has required structure
  Cycle:     37 Energy:     -2940.061844  Gnorm:      0.038771  CPU:    5.732
  ** Hessian has required structure
  Cycle:     38 Energy:     -2940.063148  Gnorm:      0.039671  CPU:    5.873
  ** Hessian has required structure
  Cycle:     39 Energy:     -2940.064250  Gnorm:      0.042141  CPU:    6.032
  ** Hessian has required structure
  Cycle:     40 Energy:     -2940.066320  Gnorm:      0.044896  CPU:    6.190
  ** Hessian has required structure
  Cycle:     41 Energy:     -2940.067722  Gnorm:      0.041419  CPU:    6.331
  ** Hessian has wrong structure
  ** Imaginary eigenvectors =   5
  ** Hessian has wrong structure
  ** Imaginary eigenvectors =   4
  Cycle:     42 Energy:     -2940.117247  Gnorm:      0.067251  CPU:    6.822
  ** Hessian has wrong structure
  ** Imaginary eigenvectors =   3
  ** Hessian has wrong structure
  ** Imaginary eigenvectors =   2
  Cycle:     43 Energy:     -2940.169812  Gnorm:      0.091176  CPU:    7.308
  ** Hessian has wrong structure
  ** Imaginary eigenvectors =   1
  ** Hessian has required structure
  Cycle:     44 Energy:     -2940.317914  Gnorm:      0.092828  CPU:    7.700
  ** Hessian has required structure
  Cycle:     45 Energy:     -2940.412668  Gnorm:      0.051281  CPU:    7.855
  ** Hessian has required structure
  Cycle:     46 Energy:     -2940.467681  Gnorm:      0.053514  CPU:    8.026
  ** Hessian has required structure
  Cycle:     47 Energy:     -2940.507036  Gnorm:      0.051509  CPU:    8.180
  ** Hessian has required structure
  Cycle:     48 Energy:     -2940.522718  Gnorm:      0.072358  CPU:    8.337
  ** Hessian has required structure
  Cycle:     49 Energy:     -2940.561971  Gnorm:      0.078392  CPU:    8.494
  ** Hessian has required structure
  Cycle:     50 Energy:     -2940.582044  Gnorm:      0.067504  CPU:    8.648
  ** Hessian has required structure
  Cycle:     51 Energy:     -2940.602822  Gnorm:      0.062495  CPU:    8.821
  ** Hessian has required structure
  Cycle:     52 Energy:     -2940.620151  Gnorm:      0.039999  CPU:    8.982
  ** Hessian has required structure
  Cycle:     53 Energy:     -2940.636841  Gnorm:      0.044392  CPU:    9.140
  ** Hessian has required structure
  Cycle:     54 Energy:     -2940.678024  Gnorm:      0.035939  CPU:    9.387
  ** Hessian has required structure
  Cycle:     55 Energy:     -2940.697159  Gnorm:      0.026005  CPU:    9.548
  ** Hessian has required structure
  Cycle:     56 Energy:     -2940.707424  Gnorm:      0.014501  CPU:    9.706
  ** Hessian has required structure
  Cycle:     57 Energy:     -2940.711503  Gnorm:      0.014956  CPU:    9.865
  ** Hessian has required structure
  Cycle:     58 Energy:     -2940.713339  Gnorm:      0.007895  CPU:   10.024
  ** Hessian has required structure
  Cycle:     59 Energy:     -2940.714106  Gnorm:      0.005318  CPU:   10.198
  ** Hessian has required structure
  Cycle:     60 Energy:     -2940.714357  Gnorm:      0.002380  CPU:   10.357
  ** Hessian has required structure
  Cycle:     61 Energy:     -2940.714436  Gnorm:      0.001432  CPU:   10.514
  ** Hessian has required structure
  Cycle:     62 Energy:     -2940.714464  Gnorm:      0.000794  CPU:   10.673
  ** Hessian has required structure
  Cycle:     63 Energy:     -2940.714469  Gnorm:      0.000501  CPU:   10.833
  ** Hessian has required structure
  Cycle:     64 Energy:     -2940.714473  Gnorm:      0.000351  CPU:   11.088
  ** Hessian has required structure
  Cycle:     65 Energy:     -2940.714475  Gnorm:      0.000246  CPU:   11.226
  ** Hessian has required structure
  Cycle:     66 Energy:     -2940.714475  Gnorm:      0.000172  CPU:   11.361
  ** Hessian has required structure
  Cycle:     67 Energy:     -2940.714476  Gnorm:      0.000121  CPU:   11.501
  ** Hessian has required structure
  Cycle:     68 Energy:     -2940.714476  Gnorm:      0.000084  CPU:   11.648
  ** Hessian has required structure


  **** Optimisation achieved ****


  Final energy =   -2940.71447587 eV      
  Final Gnorm  =       0.00005912

  Components of energy : 

--------------------------------------------------------------------------------
  Interatomic potentials     =         775.87139225 eV    
  Three-body potentials      =           0.00000000 eV    
  Monopole - monopole (real) =       -1526.64440313 eV    
  Monopole - monopole (recip)=       -2189.94146499 eV    
  Monopole - monopole (total)=       -3716.58586812 eV    
--------------------------------------------------------------------------------
  Total lattice energy       =       -2940.71447587 eV    
--------------------------------------------------------------------------------
  Total lattice energy       =         -283733.9940 kJ/(mole unit cells)
--------------------------------------------------------------------------------

  Final fractional coordinates of atoms :

--------------------------------------------------------------------------------
   No.  Atomic        x           y          z          Radius
        Label       (Frac)      (Frac)     (Frac)       (Angs) 
--------------------------------------------------------------------------------
     1  Ge    c     0.052090    0.000000    0.372270    0.000000
     2  Ge    c     0.448987    0.942110    0.409024    0.000000
     3  Ge    c     0.948405    0.945658    0.623884    0.000000
     4  Ge    c     0.550774    0.005610    0.661550    0.000000
     5  Ge    c     0.561421    0.995321    0.170308    0.000000
     6  Ge    c     0.947954    0.947773    0.115649    0.000000
     7  Ge    c     0.453902    0.935723    0.920850    0.000000
     8  Ge    c     0.056350    0.000140    0.869325    0.000000
     9  Ge    c     0.152581    0.309636    0.305856    0.000000
    10  Ge    c     0.358171    0.625751    0.297982    0.000000
    11  Ge    c     0.827086    0.237315    0.743930    0.000000
    12  Ge    c     0.673723    0.717368    0.740480    0.000000
    13  Ge    c     0.855782    0.637606    0.740056    0.000000
    14  Ge    c     0.645431    0.315563    0.739730    0.000000
    15  Ge    c     0.174986    0.707306    0.302978    0.000000
    16  Ge    c     0.649214    0.314074    0.052369    0.000000
    17  Ge    c     0.853626    0.630867    0.052659    0.000000
    18  Ge    c     0.327705    0.226206    0.985057    0.000000
    19  Ge    c     0.175739    0.710194    0.988743    0.000000
    20  Ge    c     0.358204    0.622582    0.985561    0.000000
    21  Ge    c     0.146705    0.310494    0.988678    0.000000
    22  Si    c     0.331108    0.234314    0.294640    0.000000
    23  Si    c     0.672923    0.706137    0.047385    0.000000
    24  Si    c     0.830308    0.243368    0.051396    0.000000
    25  O1    c     0.091181    0.194211    0.395116    0.000000
    26  O1    c     0.420408    0.738397    0.389405    0.000000
    27  O1    c     0.873111    0.083514    0.655643    0.000000
    28  O1    c     0.624927    0.857942    0.642111    0.000000
    29  O1    c     0.921236    0.741880    0.650028    0.000000
    30  O1    c     0.583543    0.206537    0.644596    0.000000
    31  O1    c     0.124582    0.849815    0.396662    0.000000
    32  O3    c     0.375713    0.087247    0.374091    0.000000
    33  O1    c     0.973635    0.967008    0.463156    0.000000
    34  O1    c     0.472676    0.968275    0.570331    0.000000
    35  O1    c     0.023426    0.988995    0.211319    0.000000
    36  O1    c     0.532231    0.978942    0.328643    0.000000
    37  O1    c     0.028605    0.994045    0.709429    0.000000
    38  O1    c     0.527129    0.981693    0.823676    0.000000
    39  O1    c     0.592248    0.198450    0.148989    0.000000
    40  O1    c     0.909463    0.753236    0.146932    0.000000
    41  O1    c     0.377179    0.077771    0.898272    0.000000
    42  O1    c     0.133861    0.864478    0.893049    0.000000
    43  O1    c     0.421069    0.735464    0.896456    0.000000
    44  O1    c     0.078963    0.205117    0.905656    0.000000
    45  O3    c     0.635709    0.851657    0.136955    0.000000
    46  O3    c     0.874471    0.100320    0.135130    0.000000
    47  O1    c     0.482419    0.955087    0.080505    0.000000
    48  O1    c     0.979447    0.940090    0.957846    0.000000
    49  O1    c     0.159792    0.508373    0.366589    0.000000
    50  O3    c     0.347156    0.419523    0.353928    0.000000
    51  O1    c     0.843742    0.436218    0.682751    0.000000
    52  O1    c     0.656947    0.515735    0.683822    0.000000
    53  O3    c     0.241370    0.203616    0.299928    0.000000
    54  O1    c     0.271128    0.733755    0.303057    0.000000
    55  O1    c     0.731900    0.203659    0.740788    0.000000
    56  O1    c     0.769137    0.749067    0.734900    0.000000
    57  O1    c     0.120412    0.327031    0.148377    0.000000
    58  O1    c     0.392017    0.614724    0.143098    0.000000
    59  O3    c     0.860179    0.234118    0.903274    0.000000
    60  O3    c     0.641045    0.723504    0.900511    0.000000
    61  O1    c     0.888233    0.626564    0.897362    0.000000
    62  O1    c     0.613243    0.316650    0.897876    0.000000
    63  O1    c     0.141865    0.723693    0.145215    0.000000
    64  O3    c     0.358297    0.230648    0.145880    0.000000
    65  O3    c     0.653597    0.522108    0.105223    0.000000
    66  O3    c     0.848600    0.426675    0.111740    0.000000
    67  O1    c     0.345969    0.425631    0.923852    0.000000
    68  O1    c     0.157471    0.511261    0.928823    0.000000
    69  O3    c     0.740189    0.220703    0.050955    0.000000
    70  O3    c     0.763100    0.724626    0.041586    0.000000
    71  O1    c     0.232280    0.195737    0.978024    0.000000
    72  O1    c     0.271933    0.734232    0.992771    0.000000
    73  O1    s     0.092943    0.188665    0.386701    0.000000
    74  O1    s     0.417884    0.745283    0.384033    0.000000
    75  O1    s     0.875275    0.085188    0.660297    0.000000
    76  O1    s     0.623278    0.857827    0.651118    0.000000
    77  O1    s     0.918352    0.749347    0.654836    0.000000
    78  O1    s     0.585643    0.199660    0.652795    0.000000
    79  O1    s     0.123104    0.849926    0.387696    0.000000
    80  O3    s     0.377195    0.090286    0.368857    0.000000
    81  O1    s     0.977959    0.968030    0.467736    0.000000
    82  O1    s     0.477122    0.969301    0.565818    0.000000
    83  O1    s     0.019453    0.986517    0.215096    0.000000
    84  O1    s     0.528287    0.977446    0.322892    0.000000
    85  O1    s     0.024723    0.990907    0.714884    0.000000
    86  O1    s     0.522839    0.979655    0.820113    0.000000
    87  O1    s     0.594447    0.192565    0.142990    0.000000
    88  O1    s     0.907969    0.757685    0.137588    0.000000
    89  O1    s     0.378696    0.079594    0.906874    0.000000
    90  O1    s     0.131210    0.862755    0.898734    0.000000
    91  O1    s     0.418802    0.741612    0.904795    0.000000
    92  O1    s     0.082501    0.198088    0.909356    0.000000
    93  O3    s     0.633498    0.848520    0.130622    0.000000
    94  O3    s     0.875650    0.103062    0.125248    0.000000
    95  O1    s     0.486354    0.956727    0.075866    0.000000
    96  O1    s     0.982817    0.945116    0.962799    0.000000
    97  O1    s     0.160320    0.507048    0.357250    0.000000
    98  O3    s     0.346535    0.418163    0.344296    0.000000
    99  O1    s     0.843435    0.436751    0.691466    0.000000
   100  O1    s     0.657245    0.514412    0.692322    0.000000
   101  O3    s     0.243205    0.214542    0.299842    0.000000
   102  O1    s     0.270228    0.723760    0.302680    0.000000
   103  O1    s     0.732946    0.214336    0.740972    0.000000
   104  O1    s     0.768092    0.738590    0.735709    0.000000
   105  O1    s     0.124788    0.324502    0.148065    0.000000
   106  O1    s     0.386979    0.616148    0.143527    0.000000
   107  O3    s     0.854937    0.235169    0.904840    0.000000
   108  O3    s     0.646380    0.721468    0.902328    0.000000
   109  O1    s     0.883211    0.627710    0.897310    0.000000
   110  O1    s     0.618281    0.316360    0.898139    0.000000
   111  O1    s     0.146687    0.721559    0.145167    0.000000
   112  O3    s     0.353378    0.230673    0.147861    0.000000
   113  O3    s     0.655041    0.523053    0.095778    0.000000
   114  O3    s     0.847322    0.426096    0.101517    0.000000
   115  O1    s     0.345629    0.426866    0.932970    0.000000
   116  O1    s     0.157971    0.510535    0.937586    0.000000
   117  O3    s     0.741903    0.230283    0.051093    0.000000
   118  O3    s     0.761348    0.715351    0.043004    0.000000
   119  O1    s     0.233432    0.206347    0.979346    0.000000
   120  O1    s     0.270919    0.724272    0.991958    0.000000
--------------------------------------------------------------------------------

  Final Cartesian lattice vectors (Angstroms) :

       17.570179    0.356958   -0.037214
        0.157377    7.877083    0.008379
       -0.021676    0.022228   10.296313


  Final cell parameters and derivatives :

--------------------------------------------------------------------------------
       a           17.573844 Angstrom     dE/de1(xx)     0.003157 eV/strain
       b            7.878659 Angstrom     dE/de2(yy)     0.002669 eV/strain
       c           10.296360 Angstrom     dE/de3(zz)     0.002800 eV/strain
       alpha       89.817806 Degrees      dE/de4(yz)    -0.000396 eV/strain
       beta        90.239413 Degrees      dE/de5(xz)     0.000121 eV/strain
       gamma       87.691700 Degrees      dE/de6(xy)    -0.000570 eV/strain
--------------------------------------------------------------------------------

  Primitive cell volume =          1424.439549 Angs**3

  Density of cell =      2.771123 g/cm**3

  Non-primitive cell volume =          1424.439549 Angs**3


  Final internal derivatives :

--------------------------------------------------------------------------------
   No.  Atomic          a             b             c           Radius
        Label          (eV)          (eV)          (eV)        (eV/Angs)
--------------------------------------------------------------------------------
      1 Ge    c       0.000000      0.000000      0.000000      0.000000
      2 Ge    c       0.001513     -0.000167     -0.000985      0.000000
      3 Ge    c       0.000545      0.000172     -0.000313      0.000000
      4 Ge    c       0.000372      0.000454     -0.000456      0.000000
      5 Ge    c       0.000721      0.000445     -0.000075      0.000000
      6 Ge    c      -0.000993     -0.000173     -0.000488      0.000000
      7 Ge    c      -0.000218     -0.000008     -0.000033      0.000000
      8 Ge    c      -0.002000      0.000174     -0.000069      0.000000
      9 Ge    c       0.000188     -0.000106      0.000225      0.000000
     10 Ge    c      -0.000143     -0.000651      0.000484      0.000000
     11 Ge    c       0.000128     -0.000081      0.000020      0.000000
     12 Ge    c       0.000072     -0.000080      0.000139      0.000000
     13 Ge    c       0.000002     -0.000050     -0.000021      0.000000
     14 Ge    c       0.000130     -0.000083     -0.000256      0.000000
     15 Ge    c       0.000070     -0.000064      0.000656      0.000000
     16 Ge    c       0.000114     -0.000090      0.000082      0.000000
     17 Ge    c       0.000056     -0.000007      0.000074      0.000000
     18 Ge    c      -0.001316     -0.000355      0.000225      0.000000
     19 Ge    c      -0.000018     -0.002534      0.003415      0.000000
     20 Ge    c       0.003497     -0.000053      0.000055      0.000000
     21 Ge    c      -0.001608      0.000504     -0.000353      0.000000
     22 Si    c      -0.002344      0.001608      0.000759      0.000000
     23 Si    c       0.000338      0.000010     -0.000207      0.000000
     24 Si    c       0.000091     -0.000025      0.000016      0.000000
     25 O1    c       0.000020      0.000404     -0.000102      0.000000
     26 O1    c      -0.000502     -0.000494      0.000236      0.000000
     27 O1    c      -0.000393      0.000282      0.000122      0.000000
     28 O1    c       0.000918     -0.000426     -0.000164      0.000000
     29 O1    c      -0.000390     -0.000247      0.000086      0.000000
     30 O1    c       0.000304      0.000080      0.000045      0.000000
     31 O1    c      -0.001879      0.001110     -0.000026      0.000000
     32 O3    c       0.002021     -0.001930      0.002178      0.000000
     33 O1    c       0.000182      0.000058     -0.000092      0.000000
     34 O1    c       0.001090      0.000460      0.002213      0.000000
     35 O1    c       0.000089      0.000255     -0.000438      0.000000
     36 O1    c      -0.000115      0.000118      0.000937      0.000000
     37 O1    c      -0.000738     -0.000070     -0.001155      0.000000
     38 O1    c      -0.001548     -0.000409      0.001610      0.000000
     39 O1    c       0.000311     -0.000146     -0.000071      0.000000
     40 O1    c      -0.000043     -0.000053     -0.000037      0.000000
     41 O1    c       0.002169     -0.001045     -0.000236      0.000000
     42 O1    c       0.000276      0.005250     -0.004683      0.000000
     43 O1    c       0.001715      0.000743      0.000374      0.000000
     44 O1    c       0.001297      0.001121      0.000243      0.000000
     45 O3    c       0.000970     -0.000429     -0.000137      0.000000
     46 O3    c       0.000163      0.000374      0.000104      0.000000
     47 O1    c      -0.001590     -0.000329     -0.001209      0.000000
     48 O1    c      -0.000304     -0.000498      0.000231      0.000000
     49 O1    c       0.000013      0.000599     -0.000067      0.000000
     50 O3    c       0.000735      0.000064     -0.000286      0.000000
     51 O1    c      -0.000023      0.000096      0.000015      0.000000
     52 O1    c       0.000059     -0.000018      0.000049      0.000000
     53 O3    c      -0.001449     -0.000179     -0.000173      0.000000
     54 O1    c      -0.001392      0.000229      0.000882      0.000000
     55 O1    c      -0.000358      0.000050      0.000096      0.000000
     56 O1    c      -0.000030      0.000001      0.000030      0.000000
     57 O1    c      -0.001094      0.000248      0.001607      0.000000
     58 O1    c       0.001915      0.000567     -0.001842      0.000000
     59 O3    c      -0.000088     -0.000064      0.000045      0.000000
     60 O3    c      -0.000148      0.000106     -0.000126      0.000000
     61 O1    c       0.000022      0.000060     -0.000048      0.000000
     62 O1    c       0.000048      0.000063      0.000335      0.000000
     63 O1    c      -0.001467      0.000147     -0.001775      0.000000
     64 O3    c       0.004015      0.000541     -0.004586      0.000000
     65 O3    c       0.000210     -0.000122     -0.000096      0.000000
     66 O3    c      -0.000101     -0.000035     -0.000085      0.000000
     67 O1    c      -0.000321     -0.000229     -0.001983      0.000000
     68 O1    c      -0.001739     -0.002345     -0.002049      0.000000
     69 O3    c      -0.000111     -0.000037      0.000022      0.000000
     70 O3    c      -0.000216     -0.000011      0.000030      0.000000
     71 O1    c       0.005967     -0.001380     -0.000754      0.000000
     72 O1    c      -0.007289      0.002457      0.001413      0.000000
     73 O1    s       0.000568     -0.000407     -0.000087      0.000000
     74 O1    s       0.000477      0.000043      0.000064      0.000000
     75 O1    s       0.000367     -0.000276     -0.000102      0.000000
     76 O1    s      -0.000215      0.000105      0.000067      0.000000
     77 O1    s       0.000201      0.000242      0.000063      0.000000
     78 O1    s      -0.000086      0.000089      0.000145      0.000000
     79 O1    s       0.000835     -0.000665     -0.000086      0.000000
     80 O3    s      -0.000460      0.000115      0.000327      0.000000
     81 O1    s      -0.000152     -0.000225      0.000495      0.000000
     82 O1    s      -0.001373     -0.000346     -0.000625      0.000000
     83 O1    s       0.000948     -0.000112      0.000604      0.000000
     84 O1    s       0.000619     -0.000242     -0.000941      0.000000
     85 O1    s      -0.000077     -0.000129      0.000196      0.000000
     86 O1    s      -0.000077      0.000385     -0.000670      0.000000
     87 O1    s      -0.000260      0.000294     -0.000107      0.000000
     88 O1    s      -0.000440     -0.000126     -0.000035      0.000000
     89 O1    s      -0.000533      0.000063     -0.000067      0.000000
     90 O1    s       0.000993     -0.002125      0.001802      0.000000
     91 O1    s      -0.000062     -0.000026     -0.001047      0.000000
     92 O1    s      -0.001585     -0.000353     -0.000033      0.000000
     93 O3    s      -0.000412     -0.000023      0.000188      0.000000
     94 O3    s      -0.000628     -0.000119     -0.000249      0.000000
     95 O1    s       0.000168      0.000496      0.000735      0.000000
     96 O1    s      -0.000932      0.000409     -0.000300      0.000000
     97 O1    s       0.000348     -0.000245      0.000020      0.000000
     98 O3    s      -0.001573      0.001057      0.000757      0.000000
     99 O1    s       0.000098     -0.000001      0.000040      0.000000
    100 O1    s      -0.000098      0.000010      0.000009      0.000000
    101 O3    s      -0.002031      0.000109      0.000716      0.000000
    102 O1    s       0.000310     -0.000791     -0.001924      0.000000
    103 O1    s       0.000122     -0.000024     -0.000163      0.000000
    104 O1    s       0.000121     -0.000008     -0.000052      0.000000
    105 O1    s      -0.000103     -0.000521     -0.000065      0.000000
    106 O1    s       0.000545     -0.000658      0.001835      0.000000
    107 O3    s       0.000033      0.000094     -0.000017      0.000000
    108 O3    s       0.000249     -0.000109      0.000051      0.000000
    109 O1    s      -0.000048     -0.000073     -0.000143      0.000000
    110 O1    s      -0.000069     -0.000100     -0.000180      0.000000
    111 O1    s       0.000885     -0.000115      0.002520      0.000000
    112 O3    s      -0.000831     -0.000632      0.000428      0.000000
    113 O3    s      -0.000136      0.000080      0.000068      0.000000
    114 O3    s      -0.000166      0.000021     -0.000070      0.000000
    115 O1    s       0.001533     -0.000189      0.001023      0.000000
    116 O1    s      -0.001680      0.000831     -0.000511      0.000000
    117 O3    s       0.000103      0.000096     -0.000039      0.000000
    118 O3    s      -0.000071     -0.000069     -0.000069      0.000000
    119 O1    s      -0.002773      0.000296      0.000463      0.000000
    120 O1    s       0.005861      0.000375      0.000167      0.000000
--------------------------------------------------------------------------------
  Maximum abs         0.007289      0.005250      0.004683      0.000000
--------------------------------------------------------------------------------


  Born effective charge tensors : 

-------------------------------------------------------------------------------
  Atom             x           y             z
-------------------------------------------------------------------------------
    1 Ge    x       4.2205      0.2325      0.1348
            y      -0.0580      3.9220     -0.0036
            z      -0.7577     -0.1339      4.2154
-------------------------------------------------------------------------------
    2 Ge    x       4.0993      0.3042      0.4304
            y      -0.0900      3.9808      0.0382
            z       0.1595      0.0881      4.4475
-------------------------------------------------------------------------------
    3 Ge    x       4.1363      0.2826     -0.4795
            y      -0.1293      3.9345     -0.0263
            z      -0.2430     -0.0337      4.4921
-------------------------------------------------------------------------------
    4 Ge    x       4.0904      0.2446     -0.0083
            y      -0.0807      3.9533     -0.0355
            z       0.8627      0.1249      4.2624
-------------------------------------------------------------------------------
    5 Ge    x       4.2206      0.3035     -0.4184
            y      -0.0739      3.9960      0.0188
            z      -0.3628     -0.0320      3.9458
-------------------------------------------------------------------------------
    6 Ge    x       4.2845      0.2241     -0.0353
            y      -0.0431      3.9676     -0.0305
            z       0.6790      0.1573      3.6535
-------------------------------------------------------------------------------
    7 Ge    x       4.2984      0.2257      0.0297
            y      -0.1004      3.9612      0.0026
            z      -0.6510     -0.1346      3.6760
-------------------------------------------------------------------------------
    8 Ge    x       4.2727      0.2424      0.3865
            y      -0.1886      3.9394      0.0865
            z       0.2983      0.0246      3.9642
-------------------------------------------------------------------------------
    9 Ge    x       3.9183      0.1446     -0.2326
            y       0.4843      4.1470     -0.0853
            z      -0.0685     -0.1698      3.5633
-------------------------------------------------------------------------------
   10 Ge    x       3.9272      0.0900      0.1577
            y       0.4562      4.1758      0.1820
            z       0.0305      0.2896      3.5545
-------------------------------------------------------------------------------
   11 Ge    x       3.9258     -0.2205     -0.3163
            y      -0.2067      4.2141      0.1170
            z      -0.0262      0.2418      3.5307
-------------------------------------------------------------------------------
   12 Ge    x       3.9667     -0.2173      0.3355
            y      -0.2232      4.1444     -0.1437
            z       0.0429     -0.1955      3.5350
-------------------------------------------------------------------------------
   13 Ge    x       3.9331      0.0820     -0.2328
            y       0.4632      4.1796     -0.1228
            z      -0.0954     -0.2076      3.6169
-------------------------------------------------------------------------------
   14 Ge    x       3.8818      0.1043      0.2607
            y       0.4435      4.2140      0.1177
            z       0.0826      0.1627      3.5955
-------------------------------------------------------------------------------
   15 Ge    x       4.0307     -0.2752     -0.2794
            y      -0.3010      4.1590      0.0506
            z      -0.0344      0.1295      3.5559
-------------------------------------------------------------------------------
   16 Ge    x       3.9367      0.1504     -0.2902
            y       0.4515      4.1347     -0.1929
            z      -0.0946     -0.2475      3.4653
-------------------------------------------------------------------------------
   17 Ge    x       3.9255      0.1967      0.3013
            y       0.4541      4.1359      0.1445
            z       0.0594      0.2195      3.3785
-------------------------------------------------------------------------------
   18 Ge    x       4.0702     -0.2298     -0.3442
            y      -0.2234      4.1549      0.1140
            z      -0.0585      0.2079      3.3988
-------------------------------------------------------------------------------
   19 Ge    x       4.0311     -0.2395      0.3477
            y      -0.2074      4.2067     -0.1032
            z       0.0259     -0.2034      3.5142
-------------------------------------------------------------------------------
   20 Ge    x       4.0164      0.1218     -0.3038
            y       0.4413      4.2022     -0.0622
            z      -0.0832     -0.1532      3.4266
-------------------------------------------------------------------------------
   21 Ge    x       4.0503      0.0811      0.2775
            y       0.4492      4.1729      0.0855
            z       0.1552      0.1888      3.5013
-------------------------------------------------------------------------------
   22 Si    x       3.7116     -0.2453      0.2253
            y      -0.2335      3.9442     -0.0644
            z      -0.0037     -0.2271      3.3235
-------------------------------------------------------------------------------
   23 Si    x       3.6998     -0.2669     -0.3346
            y      -0.1926      3.9353      0.0825
            z      -0.0351      0.1825      3.2576
-------------------------------------------------------------------------------
   24 Si    x       3.7494     -0.2721      0.2994
            y      -0.2402      3.8900     -0.0529
            z       0.0302     -0.1459      3.1672
-------------------------------------------------------------------------------
   25 O1    x      -2.0294     -0.9135      0.3349
            y      -0.8938     -2.5088      0.2899
            z       0.4200      0.3328     -1.5788
-------------------------------------------------------------------------------
   26 O1    x      -1.9151     -0.8585     -0.5008
            y      -0.8090     -2.6582     -0.5197
            z      -0.4515     -0.5311     -1.6428
-------------------------------------------------------------------------------
   27 O1    x      -2.1666      0.9048      0.5619
            y       0.9408     -2.3466     -0.5685
            z       0.5044     -0.5841     -1.6980
-------------------------------------------------------------------------------
   28 O1    x      -2.1485      0.8881     -0.3346
            y       0.9394     -2.2797      0.3903
            z      -0.4005      0.3929     -1.6667
-------------------------------------------------------------------------------
   29 O1    x      -1.9434     -0.8306      0.5342
            y      -0.7855     -2.5300      0.5286
            z       0.4896      0.5326     -1.6751
-------------------------------------------------------------------------------
   30 O1    x      -1.9164     -0.8536     -0.3781
            y      -0.8156     -2.5303     -0.3322
            z      -0.4499     -0.3655     -1.6283
-------------------------------------------------------------------------------
   31 O1    x      -2.1646      0.8939      0.2913
            y       0.9737     -2.3222     -0.3399
            z       0.3801     -0.3592     -1.6021
-------------------------------------------------------------------------------
   32 O3    x      -2.0045      0.8787     -0.5185
            y       0.9068     -2.2944      0.5528
            z      -0.4777      0.5823     -1.5770
-------------------------------------------------------------------------------
   33 O1    x      -2.0751     -0.2294      0.9115
            y      -0.0977     -1.2786      0.1560
            z       1.1324      0.2752     -3.0976
-------------------------------------------------------------------------------
   34 O1    x      -2.0562     -0.2508     -0.9253
            y      -0.0982     -1.2953     -0.1653
            z      -1.1303     -0.3279     -3.1259
-------------------------------------------------------------------------------
   35 O1    x      -2.1822     -0.2109     -0.8883
            y      -0.0855     -1.3428     -0.1325
            z      -0.8721     -0.2031     -2.6307
-------------------------------------------------------------------------------
   36 O1    x      -2.1850     -0.2173      0.8163
            y      -0.0790     -1.3040      0.1218
            z       0.8472      0.1868     -2.7138
-------------------------------------------------------------------------------
   37 O1    x      -2.0961     -0.2434     -0.7771
            y      -0.1117     -1.3026     -0.1549
            z      -0.7882     -0.1934     -2.7384
-------------------------------------------------------------------------------
   38 O1    x      -2.0855     -0.2440      0.8228
            y      -0.1163     -1.3711      0.2162
            z       0.7849      0.2833     -2.6309
-------------------------------------------------------------------------------
   39 O1    x      -1.9695     -0.8748      0.5553
            y      -0.8012     -2.6765      0.5725
            z       0.4728      0.5467     -1.5776
-------------------------------------------------------------------------------
   40 O1    x      -2.0067     -0.9067     -0.3346
            y      -0.8625     -2.6322     -0.2814
            z      -0.3687     -0.3193     -1.4800
-------------------------------------------------------------------------------
   41 O1    x      -2.2558      0.9291      0.2985
            y       0.9660     -2.3099     -0.3369
            z       0.3613     -0.3687     -1.4928
-------------------------------------------------------------------------------
   42 O1    x      -2.2062      0.8907     -0.5383
            y       0.9000     -2.3218      0.5403
            z      -0.4570      0.5357     -1.5916
-------------------------------------------------------------------------------
   43 O1    x      -2.0228     -0.8610      0.3514
            y      -0.8118     -2.5380      0.2678
            z       0.3958      0.3153     -1.4633
-------------------------------------------------------------------------------
   44 O1    x      -2.0401     -0.8318     -0.5442
            y      -0.7413     -2.5298     -0.5528
            z      -0.4758     -0.5367     -1.5457
-------------------------------------------------------------------------------
   45 O3    x      -1.9484      0.8231      0.5457
            y       0.8323     -2.2883     -0.6223
            z       0.4591     -0.5921     -1.5605
-------------------------------------------------------------------------------
   46 O3    x      -2.0044      0.8672     -0.3240
            y       0.9042     -2.2778      0.3917
            z      -0.3796      0.4202     -1.4081
-------------------------------------------------------------------------------
   47 O1    x      -2.1963     -0.2118     -0.7179
            y      -0.0916     -1.3671     -0.1740
            z      -0.4898     -0.1721     -2.2621
-------------------------------------------------------------------------------
   48 O1    x      -2.1962     -0.2280      0.7468
            y      -0.1201     -1.3859      0.1248
            z       0.5194      0.1030     -2.2519
-------------------------------------------------------------------------------
   49 O1    x      -1.3500     -0.1442      0.0903
            y      -0.2509     -3.1363     -0.0056
            z       0.0424     -0.0227     -1.3935
-------------------------------------------------------------------------------
   50 O3    x      -1.2945     -0.2100     -0.0820
            y      -0.3056     -2.9872     -0.1095
            z      -0.0461     -0.1107     -1.3106
-------------------------------------------------------------------------------
   51 O1    x      -1.3457     -0.2164      0.0810
            y      -0.3298     -3.1529      0.0186
            z       0.0347      0.0375     -1.4134
-------------------------------------------------------------------------------
   52 O1    x      -1.3392     -0.2084     -0.0849
            y      -0.3296     -3.1672      0.0014
            z      -0.0378     -0.0222     -1.3925
-------------------------------------------------------------------------------
   53 O3    x      -2.9440      0.1734      0.0584
            y       0.0892     -1.4361      0.0018
            z       0.0654      0.0397     -1.1540
-------------------------------------------------------------------------------
   54 O1    x      -3.0533      0.2862      0.0316
            y       0.2044     -1.5840     -0.0222
            z       0.0105     -0.0541     -1.2082
-------------------------------------------------------------------------------
   55 O1    x      -3.0204      0.2460     -0.0324
            y       0.1807     -1.5676     -0.0217
            z      -0.0467     -0.0502     -1.2291
-------------------------------------------------------------------------------
   56 O1    x      -3.0203      0.2562      0.0260
            y       0.1794     -1.5582      0.0329
            z       0.0459      0.0555     -1.2308
-------------------------------------------------------------------------------
   57 O1    x      -1.4811     -0.0145     -0.1144
            y      -0.0855     -1.4181      0.0015
            z      -0.0789      0.0100     -2.7493
-------------------------------------------------------------------------------
   58 O1    x      -1.4788     -0.0395      0.0592
            y      -0.1064     -1.4343      0.0301
            z       0.0552     -0.0048     -2.6880
-------------------------------------------------------------------------------
   59 O3    x      -1.3992      0.0994      0.0640
            y       0.1012     -1.3557     -0.0306
            z       0.0196     -0.0269     -2.5392
-------------------------------------------------------------------------------
   60 O3    x      -1.4153      0.1068     -0.0941
            y       0.1126     -1.3488      0.0603
            z      -0.0457      0.0507     -2.5493
-------------------------------------------------------------------------------
   61 O1    x      -1.4972     -0.0407      0.0330
            y      -0.1061     -1.4326      0.0473
            z      -0.0050      0.0241     -2.6860
-------------------------------------------------------------------------------
   62 O1    x      -1.4957     -0.0437     -0.0381
            y      -0.1117     -1.4294     -0.0477
            z      -0.0176     -0.0113     -2.6951
-------------------------------------------------------------------------------
   63 O1    x      -1.5067      0.1113     -0.0145
            y       0.1224     -1.4278     -0.0065
            z      -0.0094      0.0090     -2.6991
-------------------------------------------------------------------------------
   64 O3    x      -1.3797      0.0800      0.0996
            y       0.0815     -1.3518     -0.0331
            z       0.0797     -0.0319     -2.5947
-------------------------------------------------------------------------------
   65 O3    x      -1.3252     -0.1679      0.1239
            y      -0.2688     -2.9993      0.1105
            z       0.0732      0.1070     -1.2479
-------------------------------------------------------------------------------
   66 O3    x      -1.3174     -0.1616     -0.1215
            y      -0.2618     -2.9437     -0.0973
            z      -0.0678     -0.0979     -1.2564
-------------------------------------------------------------------------------
   67 O1    x      -1.3954     -0.2367      0.0949
            y      -0.3460     -3.1071     -0.0146
            z       0.0415      0.0234     -1.3762
-------------------------------------------------------------------------------
   68 O1    x      -1.4052     -0.2188     -0.0970
            y      -0.3274     -3.1418      0.0180
            z      -0.0468      0.0110     -1.3509
-------------------------------------------------------------------------------
   69 O3    x      -2.9727      0.1892      0.0066
            y       0.1111     -1.4281      0.0119
            z       0.0347      0.0354     -1.1175
-------------------------------------------------------------------------------
   70 O3    x      -2.9733      0.2099     -0.0010
            y       0.1382     -1.4307      0.0024
            z      -0.0034     -0.0311     -1.1202
-------------------------------------------------------------------------------
   71 O1    x      -3.0740      0.2723     -0.0032
            y       0.1894     -1.5621     -0.0388
            z      -0.0484     -0.0623     -1.2067
-------------------------------------------------------------------------------
   72 O1    x      -3.0976      0.2983      0.0147
            y       0.2259     -1.5722      0.0023
            z       0.0128      0.0359     -1.1931
-------------------------------------------------------------------------------




  Elastic Constant Matrix: (Units=GPa)

-------------------------------------------------------------------------------
  Indices      1         2         3         4         5         6    
-------------------------------------------------------------------------------
       1     24.6390   10.6112    7.8438   -0.4973    0.3280    8.3042
       2     10.6112   36.1439    6.3371   -0.4452    0.4619    9.8575
       3      7.8438    6.3371   13.5330   -0.1257    0.0183    3.2298
       4     -0.4973   -0.4452   -0.1257    8.5091    2.6902   -0.1411
       5      0.3280    0.4619    0.0183    2.6902   14.4887    0.1463
       6      8.3042    9.8575    3.2298   -0.1411    0.1463   20.3855
-------------------------------------------------------------------------------


  Elastic Compliance Matrix: (Units=1/GPa)

-------------------------------------------------------------------------------
  Indices      1         2         3         4         5         6    
-------------------------------------------------------------------------------
       1    0.057583 -0.008117 -0.025871  0.002734 -0.001364 -0.015404
       2   -0.008117  0.034935 -0.008732  0.001354 -0.001047 -0.012186
       3   -0.025871 -0.008732  0.092964 -0.000883  0.000910  0.000020
       4    0.002734  0.001354 -0.000883  0.125105 -0.023327 -0.000595
       5   -0.001364 -0.001047  0.000910 -0.023327  0.073411  0.000230
       6   -0.015404 -0.012186  0.000020 -0.000595  0.000230  0.061213
-------------------------------------------------------------------------------

  Mechanical properties :

-------------------------------------------------------------------------------
  Convention :                    Reuss         Voigt         Hill
-------------------------------------------------------------------------------
  Bulk  Modulus (GPa)     =       9.99587      13.76670      11.88128
  Shear Modulus (GPa)     =       8.86528      11.97823      10.42176
-------------------------------------------------------------------------------
  Velocity S-wave (km/s)  =       1.78862       2.07907       1.93929
  Velocity P-wave (km/s)  =       2.80583       3.27586       3.04992
-------------------------------------------------------------------------------
  Compressibility (1/GPa) =    0.10004136
-------------------------------------------------------------------------------
  Stress axis :                     x             y             z
-------------------------------------------------------------------------------
  Youngs Moduli (GPa)     =      17.36627      28.62480      10.75690
-------------------------------------------------------------------------------
  Poissons Ratio (x)      =                     0.23235       0.27829
  Poissons Ratio (y)      =       0.14096                     0.09393
  Poissons Ratio (z)      =       0.44928       0.24995
-------------------------------------------------------------------------------


  Piezoelectric Strain Matrix: (Units=C/m**2)

-------------------------------------------------------------------------------
  Indices      1         2         3         4         5         6    
-------------------------------------------------------------------------------
       x    -0.13694  -0.18033   0.23436  -0.09628   0.11152   0.09384
       y    -0.45066  -0.41282   0.10805  -0.21087   0.05950  -0.00114
       z    -0.18707   0.08005   0.15252   0.00995  -0.47706   0.05972
-------------------------------------------------------------------------------


  Piezoelectric Stress Matrix: (Units=10**-11 C/N)

-------------------------------------------------------------------------------
  Indices      1         2         3         4         5         6    
-------------------------------------------------------------------------------
       x    -1.43456  -0.86254   2.70929  -1.55279   1.10432   1.01388
       y    -2.60347  -1.20411   2.55483  -2.96543   1.04324   1.20441
       z    -1.56098   0.27686   1.78781   1.18000  -3.49298   0.54491
-------------------------------------------------------------------------------


  Static dielectric constant tensor : 

-------------------------------------------------------------------------------
              x         y         z
-------------------------------------------------------------------------------
       x     5.26713   0.06287  -0.01160
       y     0.06287   6.28167  -0.02258
       z    -0.01160  -0.02258   4.32376
--------------------------------------------------------------------------------

  High frequency dielectric constant tensor : 

-------------------------------------------------------------------------------
              x         y         z
-------------------------------------------------------------------------------
       x     1.53879   0.00168  -0.00007
       y     0.00168   1.54640   0.00011
       z    -0.00007   0.00011   1.49884
-------------------------------------------------------------------------------

  Static refractive indices : 

-------------------------------------------------------------------------------
    1 =    2.07927      2 =    2.29420      3 =    2.50716
-------------------------------------------------------------------------------

  High frequency refractive indices : 

-------------------------------------------------------------------------------
    1 =    1.22427      2 =    1.24034      3 =    1.24369
-------------------------------------------------------------------------------


  Time to end of optimisation =      11.9821 seconds


  Peak dynamic memory used =       5.01 MB 


  Timing analysis for GULP :

--------------------------------------------------------------------------------
  Task / Subroutine                                          Time (Seconds)
--------------------------------------------------------------------------------
  Calculation of reciprocal space energy and derivatives          0.8272
  Calculation of real space energy and derivatives                8.3021
  Calculation of three-body energy and derivatives                0.0879
  Calculation and manipulation of Hessian matrix                  3.1179
  Calculation of matrix inversion                                 0.0644
  Global summation overhead                                       0.0002
--------------------------------------------------------------------------------
  Total CPU time                                                 11.9822
--------------------------------------------------------------------------------


  Dump file written as c00008.vasp.grs
  CIF file written as c00008.vasp.cif


  Job Finished at 11:39.20 31st October    2025                               

