********************************************************************************
*                       GENERAL UTILITY LATTICE PROGRAM                        *
*                                 Julian Gale                                  *
*                       Curtin Institute for Computation                       *
*                    School of Molecular and Life Sciences                     *
*                    Curtin University, Western Australia                      *
********************************************************************************
* Version = 6.1.2 * Last modified =   3rd November 2022                        *
********************************************************************************
*  optimise     - perform optimisation run                                     *
*  conp         - constant pressure calculation                                *
*  property     - calculate properties for final geometry                      *
********************************************************************************

  Job Started  at 12:08.46 31st October    2025                               

  Number of CPUs =     1


  Total number of configurations input =      1

********************************************************************************
*  Input for Configuration =   1 : c00145.vasp                                 *
********************************************************************************

  Formula = Ge21Si3O48                                                  

  Number of irreducible atoms/shells =     120


  Total number atoms/shells =     120

  Dimensionality = 3               :  Bulk   



  Cartesian lattice vectors (Angstroms) :

       17.182800    0.000000    0.000000
        0.000000    7.513760    0.000000
        0.000000    0.000000   10.447700

  Cell parameters (Angstroms/Degrees):

  a =      17.1828    alpha =  90.0000
  b =       7.5138    beta  =  90.0000
  c =      10.4477    gamma =  90.0000

  Initial cell volume =        1348.875752 Angs**3

  Temperature of configuration =   0.00     K 

  Pressure of configuration =         0.000 GPa 

  Fractional coordinates of asymmetric unit :

--------------------------------------------------------------------------------
   No.  Atomic       x           y          z         Charge      Occupancy
        Label      (Frac)      (Frac)     (Frac)        (e)         (Frac)  
--------------------------------------------------------------------------------
      1 Ge    c    0.052090    0.000000    0.372270     4.00000    1.000000    
      2 Ge    c    0.447910 *  0.000000 *  0.372270 *   4.00000    1.000000    
      3 Ge    c    0.947910 *  0.000000 *  0.627730 *   4.00000    1.000000    
      4 Ge    c    0.552090 *  0.000000 *  0.627730 *   4.00000    1.000000    
      5 Ge    c    0.556730 *  0.000000 *  0.122130 *   4.00000    1.000000    
      6 Ge    c    0.056730 *  0.000000 *  0.877870 *   4.00000    1.000000    
      7 Ge    c    0.160190 *  0.293910 *  0.273440 *   4.00000    1.000000    
      8 Ge    c    0.339810 *  0.706090 *  0.273440 *   4.00000    1.000000    
      9 Ge    c    0.839810 *  0.293910 *  0.726560 *   4.00000    1.000000    
     10 Ge    c    0.660190 *  0.706090 *  0.726560 *   4.00000    1.000000    
     11 Ge    c    0.839810 *  0.706090 *  0.726560 *   4.00000    1.000000    
     12 Ge    c    0.660190 *  0.293910 *  0.726560 *   4.00000    1.000000    
     13 Ge    c    0.160190 *  0.706090 *  0.273440 *   4.00000    1.000000    
     14 Ge    c    0.660660 *  0.294090 *  0.017440 *   4.00000    1.000000    
     15 Ge    c    0.839340 *  0.705910 *  0.017440 *   4.00000    1.000000    
     16 Ge    c    0.339340 *  0.294090 *  0.982560 *   4.00000    1.000000    
     17 Ge    c    0.160660 *  0.705910 *  0.982560 *   4.00000    1.000000    
     18 Ge    c    0.339340 *  0.705910 *  0.982560 *   4.00000    1.000000    
     19 Ge    c    0.160660 *  0.294090 *  0.982560 *   4.00000    1.000000    
     20 Ge    c    0.660660 *  0.705910 *  0.017440 *   4.00000    1.000000    
     21 Ge    c    0.839340 *  0.294090 *  0.017440 *   4.00000    1.000000    
     22 Si    c    0.943270 *  0.000000 *  0.122130 *   4.00000    1.000000    
     23 Si    c    0.443270 *  0.000000 *  0.877870 *   4.00000    1.000000    
     24 Si    c    0.339810 *  0.293910 *  0.273440 *   4.00000    1.000000    
     25 O1    c    0.106570 *  0.174340 *  0.366200 *   1.73396    1.000000    
     26 O1    c    0.393430 *  0.825660 *  0.366200 *   1.73396    1.000000    
     27 O1    c    0.893430 *  0.174340 *  0.633800 *   1.73396    1.000000    
     28 O1    c    0.606570 *  0.825660 *  0.633800 *   1.73396    1.000000    
     29 O1    c    0.893430 *  0.825660 *  0.633800 *   1.73396    1.000000    
     30 O1    c    0.606570 *  0.174340 *  0.633800 *   1.73396    1.000000    
     31 O1    c    0.106570 *  0.825660 *  0.366200 *   1.73396    1.000000    
     32 O3    c    0.393430 *  0.174340 *  0.366200 *   1.33043    1.000000    
     33 O1    c    0.000000 *  0.000000 *  0.500000 *   1.73396    1.000000    
     34 O1    c    0.500000 *  0.000000 *  0.500000 *   1.73396    1.000000    
     35 O3    c    0.994520 *  0.000000 *  0.250840 *   1.33043    1.000000    
     36 O1    c    0.505480 *  0.000000 *  0.250840 *   1.73396    1.000000    
     37 O1    c    0.005480 *  0.000000 *  0.749160 *   1.73396    1.000000    
     38 O3    c    0.494520 *  0.000000 *  0.749160 *   1.33043    1.000000    
     39 O1    c    0.610230 *  0.175520 *  0.115390 *   1.73396    1.000000    
     40 O3    c    0.889770 *  0.824480 *  0.115390 *   1.33043    1.000000    
     41 O3    c    0.389770 *  0.175520 *  0.884610 *   1.33043    1.000000    
     42 O1    c    0.110230 *  0.824480 *  0.884610 *   1.73396    1.000000    
     43 O3    c    0.389770 *  0.824480 *  0.884610 *   1.33043    1.000000    
     44 O1    c    0.110230 *  0.175520 *  0.884610 *   1.73396    1.000000    
     45 O1    c    0.610230 *  0.824480 *  0.115390 *   1.73396    1.000000    
     46 O3    c    0.889770 *  0.175520 *  0.115390 *   1.33043    1.000000    
     47 O3    c    0.500000 *  0.000000 *  0.000000 *   1.33043    1.000000    
     48 O3    c    0.000000 *  0.000000 *  0.000000 *   1.33043    1.000000    
     49 O1    c    0.151750 *  0.500000 *  0.313330 *   1.73396    1.000000    
     50 O3    c    0.348250 *  0.500000 *  0.313330 *   1.33043    1.000000    
     51 O1    c    0.848250 *  0.500000 *  0.686670 *   1.73396    1.000000    
     52 O1    c    0.651750 *  0.500000 *  0.686670 *   1.73396    1.000000    
     53 O3    c    0.250000 *  0.234950 *  0.285720 *   1.33043    1.000000    
     54 O1    c    0.250000 *  0.765050 *  0.285720 *   1.73396    1.000000    
     55 O1    c    0.750000 *  0.234950 *  0.714280 *   1.73396    1.000000    
     56 O1    c    0.750000 *  0.765050 *  0.714280 *   1.73396    1.000000    
     57 O1    c    0.131410 *  0.268650 *  0.127790 *   1.73396    1.000000    
     58 O1    c    0.368590 *  0.731350 *  0.127790 *   1.73396    1.000000    
     59 O1    c    0.868590 *  0.268650 *  0.872210 *   1.73396    1.000000    
     60 O1    c    0.631410 *  0.731350 *  0.872210 *   1.73396    1.000000    
     61 O1    c    0.868590 *  0.731350 *  0.872210 *   1.73396    1.000000    
     62 O1    c    0.631410 *  0.268650 *  0.872210 *   1.73396    1.000000    
     63 O1    c    0.131410 *  0.731350 *  0.127790 *   1.73396    1.000000    
     64 O3    c    0.368590 *  0.268650 *  0.127790 *   1.33043    1.000000    
     65 O1    c    0.653920 *  0.500000 *  0.058200 *   1.73396    1.000000    
     66 O1    c    0.846080 *  0.500000 *  0.058200 *   1.73396    1.000000    
     67 O1    c    0.346080 *  0.500000 *  0.941800 *   1.73396    1.000000    
     68 O1    c    0.153920 *  0.500000 *  0.941800 *   1.73396    1.000000    
     69 O1    c    0.750000 *  0.231060 *  0.027050 *   1.73396    1.000000    
     70 O1    c    0.750000 *  0.768940 *  0.027050 *   1.73396    1.000000    
     71 O1    c    0.250000 *  0.231060 *  0.972950 *   1.73396    1.000000    
     72 O1    c    0.250000 *  0.768940 *  0.972950 *   1.73396    1.000000    
     73 O1    s    0.106570 *  0.174340 *  0.366200 *  -3.73396    1.000000    
     74 O1    s    0.393430 *  0.825660 *  0.366200 *  -3.73396    1.000000    
     75 O1    s    0.893430 *  0.174340 *  0.633800 *  -3.73396    1.000000    
     76 O1    s    0.606570 *  0.825660 *  0.633800 *  -3.73396    1.000000    
     77 O1    s    0.893430 *  0.825660 *  0.633800 *  -3.73396    1.000000    
     78 O1    s    0.606570 *  0.174340 *  0.633800 *  -3.73396    1.000000    
     79 O1    s    0.106570 *  0.825660 *  0.366200 *  -3.73396    1.000000    
     80 O3    s    0.393430 *  0.174340 *  0.366200 *  -3.33043    1.000000    
     81 O1    s    0.000000 *  0.000000 *  0.500000 *  -3.73396    1.000000    
     82 O1    s    0.500000 *  0.000000 *  0.500000 *  -3.73396    1.000000    
     83 O3    s    0.994520 *  0.000000 *  0.250840 *  -3.33043    1.000000    
     84 O1    s    0.505480 *  0.000000 *  0.250840 *  -3.73396    1.000000    
     85 O1    s    0.005480 *  0.000000 *  0.749160 *  -3.73396    1.000000    
     86 O3    s    0.494520 *  0.000000 *  0.749160 *  -3.33043    1.000000    
     87 O1    s    0.610230 *  0.175520 *  0.115390 *  -3.73396    1.000000    
     88 O3    s    0.889770 *  0.824480 *  0.115390 *  -3.33043    1.000000    
     89 O3    s    0.389770 *  0.175520 *  0.884610 *  -3.33043    1.000000    
     90 O1    s    0.110230 *  0.824480 *  0.884610 *  -3.73396    1.000000    
     91 O3    s    0.389770 *  0.824480 *  0.884610 *  -3.33043    1.000000    
     92 O1    s    0.110230 *  0.175520 *  0.884610 *  -3.73396    1.000000    
     93 O1    s    0.610230 *  0.824480 *  0.115390 *  -3.73396    1.000000    
     94 O3    s    0.889770 *  0.175520 *  0.115390 *  -3.33043    1.000000    
     95 O3    s    0.500000 *  0.000000 *  0.000000 *  -3.33043    1.000000    
     96 O3    s    0.000000 *  0.000000 *  0.000000 *  -3.33043    1.000000    
     97 O1    s    0.151750 *  0.500000 *  0.313330 *  -3.73396    1.000000    
     98 O3    s    0.348250 *  0.500000 *  0.313330 *  -3.33043    1.000000    
     99 O1    s    0.848250 *  0.500000 *  0.686670 *  -3.73396    1.000000    
    100 O1    s    0.651750 *  0.500000 *  0.686670 *  -3.73396    1.000000    
    101 O3    s    0.250000 *  0.234950 *  0.285720 *  -3.33043    1.000000    
    102 O1    s    0.250000 *  0.765050 *  0.285720 *  -3.73396    1.000000    
    103 O1    s    0.750000 *  0.234950 *  0.714280 *  -3.73396    1.000000    
    104 O1    s    0.750000 *  0.765050 *  0.714280 *  -3.73396    1.000000    
    105 O1    s    0.131410 *  0.268650 *  0.127790 *  -3.73396    1.000000    
    106 O1    s    0.368590 *  0.731350 *  0.127790 *  -3.73396    1.000000    
    107 O1    s    0.868590 *  0.268650 *  0.872210 *  -3.73396    1.000000    
    108 O1    s    0.631410 *  0.731350 *  0.872210 *  -3.73396    1.000000    
    109 O1    s    0.868590 *  0.731350 *  0.872210 *  -3.73396    1.000000    
    110 O1    s    0.631410 *  0.268650 *  0.872210 *  -3.73396    1.000000    
    111 O1    s    0.131410 *  0.731350 *  0.127790 *  -3.73396    1.000000    
    112 O3    s    0.368590 *  0.268650 *  0.127790 *  -3.33043    1.000000    
    113 O1    s    0.653920 *  0.500000 *  0.058200 *  -3.73396    1.000000    
    114 O1    s    0.846080 *  0.500000 *  0.058200 *  -3.73396    1.000000    
    115 O1    s    0.346080 *  0.500000 *  0.941800 *  -3.73396    1.000000    
    116 O1    s    0.153920 *  0.500000 *  0.941800 *  -3.73396    1.000000    
    117 O1    s    0.750000 *  0.231060 *  0.027050 *  -3.73396    1.000000    
    118 O1    s    0.750000 *  0.768940 *  0.027050 *  -3.73396    1.000000    
    119 O1    s    0.250000 *  0.231060 *  0.972950 *  -3.73396    1.000000    
    120 O1    s    0.250000 *  0.768940 *  0.972950 *  -3.73396    1.000000    
--------------------------------------------------------------------------------



********************************************************************************
*  General input information                                                   *
********************************************************************************

  Species output for all configurations : 

--------------------------------------------------------------------------------
  Species    Type    Atomic    Atomic    Charge       Radii (Angs)     Library
                     Number     Mass       (e)     Cova   Ionic  VDW   Symbol
--------------------------------------------------------------------------------
    Ge       Core       32      72.61   4.000000   1.170  0.000  1.750 Ge       
    Si       Core       14      28.09   4.000000   1.200  0.000  2.100 Si       
    O1       Core        8      16.00   1.733957   0.730  0.000  1.360 O1       
    O2       Core        8      16.00   0.870733   0.730  0.000  0.000 O2       
    O3       Core        8      16.00   1.330431   0.730  0.000  1.360 O3       
    O1       Shell       8       0.00  -3.733957   0.730  0.000  0.000 O1       
    O2       Shell       8       0.00  -2.870733   0.730  0.000  0.000 O2       
    O3       Shell       8       0.00  -3.330431   0.730  0.000  0.000 O3       
--------------------------------------------------------------------------------


  Lattice summation method               =    Ewald          (3-D)
                                         =    Parry          (2-D)
                                         =    Saunders et al (1-D)
  Accuracy factor for lattice sums       =   12.000


  Analytic derivatives to be used

  Time limit = Infinity

  Maximum range for interatomic potentials =    100000.000000 Angstroms

  General interatomic potentials :

--------------------------------------------------------------------------------
Atom  Types   Potential      Parameter       Value         Units   Cutoffs(Ang)
  1     2                                                            Min /  Max 
--------------------------------------------------------------------------------
Si   c O1   s Buckingham    Buckingham A     1315.2478    eV        0.000 16.000
                            Buckingham rho  0.31775900    Ang       
                            Buckingham C     10.141118    eV*Ang^6  
--------------------------------------------------------------------------------
Si   c O2   s Buckingham    Buckingham A     1315.2478    eV        0.000 16.000
                            Buckingham rho  0.31775900    Ang       
                            Buckingham C     10.141118    eV*Ang^6  
--------------------------------------------------------------------------------
Si   c O3   s Buckingham    Buckingham A     1315.2478    eV        0.000 16.000
                            Buckingham rho  0.31775900    Ang       
                            Buckingham C     10.141118    eV*Ang^6  
--------------------------------------------------------------------------------
Ge   c O1   s Buckingham    Buckingham A     1497.3996    eV        0.000 16.000
                            Buckingham rho  0.32564600    Ang       
                            Buckingham C     16.808599    eV*Ang^6  
--------------------------------------------------------------------------------
Ge   c O2   s Buckingham    Buckingham A     1497.3996    eV        0.000 16.000
                            Buckingham rho  0.32564600    Ang       
                            Buckingham C     16.808599    eV*Ang^6  
--------------------------------------------------------------------------------
Ge   c O3   s Buckingham    Buckingham A     1497.3996    eV        0.000 16.000
                            Buckingham rho  0.32564600    Ang       
                            Buckingham C     16.808599    eV*Ang^6  
--------------------------------------------------------------------------------
O1   s O1   s Buckingham    Buckingham A     22764.000    eV        0.000 16.000
                            Buckingham rho  0.14900000    Ang       
                            Buckingham C     10.937044    eV*Ang^6  
--------------------------------------------------------------------------------
O1   s O2   s Buckingham    Buckingham A     22764.000    eV        0.000 16.000
                            Buckingham rho  0.14900000    Ang       
                            Buckingham C     10.937044    eV*Ang^6  
--------------------------------------------------------------------------------
O1   s O3   s Buckingham    Buckingham A     22764.000    eV        0.000 16.000
                            Buckingham rho  0.14900000    Ang       
                            Buckingham C     10.937044    eV*Ang^6  
--------------------------------------------------------------------------------
O2   s O2   s Buckingham    Buckingham A     22764.000    eV        0.000 16.000
                            Buckingham rho  0.14900000    Ang       
                            Buckingham C     10.937044    eV*Ang^6  
--------------------------------------------------------------------------------
O2   s O3   s Buckingham    Buckingham A     22764.000    eV        0.000 16.000
                            Buckingham rho  0.14900000    Ang       
                            Buckingham C     10.937044    eV*Ang^6  
--------------------------------------------------------------------------------
O3   s O3   s Buckingham    Buckingham A     22764.000    eV        0.000 16.000
                            Buckingham rho  0.14900000    Ang       
                            Buckingham C     10.937044    eV*Ang^6  
--------------------------------------------------------------------------------
O1   c O1   s Spring (c-s)  Spring k 2       180.31577    eV*Ang^-2 0.000  0.800
                            Spring k 4       0.0000000    eV*Ang^-4 
--------------------------------------------------------------------------------
O2   c O2   s Spring (c-s)  Spring k 2       75.969800    eV*Ang^-2 0.000  0.800
                            Spring k 4       0.0000000    eV*Ang^-4 
--------------------------------------------------------------------------------
O3   c O3   s Spring (c-s)  Spring k 2       128.14270    eV*Ang^-2 0.000  0.800
                            Spring k 4       0.0000000    eV*Ang^-4 
--------------------------------------------------------------------------------

  General Three-body potentials :

--------------------------------------------------------------------------------
  Atoms       Potential      Parameter       Value         Units   Cutoffs(Ang)
  1 / 2 / 3                                                          Min /  Max 
--------------------------------------------------------------------------------
Si    core    Harmonic      Three-body cnst  1.2614000    eV*rad^-2 0.000  1.900
O1    shel                  Three-body angl  109.47000    degrees   0.000  1.900
O1    shel                  Three-body k4    0.0000000    eV*rad^-4 0.000  3.500
                            Three-body k3    0.0000000    eV*rad^-3 
--------------------------------------------------------------------------------
Si    core    Harmonic      Three-body cnst  1.2614000    eV*rad^-2 0.000  1.900
O1    shel                  Three-body angl  109.47000    degrees   0.000  1.900
õ(1   shel                  Three-body k4    0.0000000    eV*rad^-4 0.000  3.500
                            Three-body k3    0.0000000    eV*rad^-3 
--------------------------------------------------------------------------------
Si    core    Harmonic      Three-body cnst  1.2614000    eV*rad^-2 0.000  1.900
õ(1   shel                  Three-body angl  109.47000    degrees   0.000  1.900
õ(1   shel                  Three-body k4    0.0000000    eV*rad^-4 0.000  3.500
                            Three-body k3    0.0000000    eV*rad^-3 
--------------------------------------------------------------------------------
Si    core    Harmonic      Three-body cnst  1.2614000    eV*rad^-2 0.000  1.900
O1    shel                  Three-body angl  109.47000    degrees   0.000  1.900
O2    shel                  Three-body k4    0.0000000    eV*rad^-4 0.000  3.500
                            Three-body k3    0.0000000    eV*rad^-3 
--------------------------------------------------------------------------------
Si    core    Harmonic      Three-body cnst  1.2614000    eV*rad^-2 0.000  1.900
O1    shel                  Three-body angl  109.47000    degrees   0.000  1.900
õ(2   shel                  Three-body k4    0.0000000    eV*rad^-4 0.000  3.500
                            Three-body k3    0.0000000    eV*rad^-3 
--------------------------------------------------------------------------------
Si    core    Harmonic      Three-body cnst  1.2614000    eV*rad^-2 0.000  1.900
O2    shel                  Three-body angl  109.47000    degrees   0.000  1.900
õ(1   shel                  Three-body k4    0.0000000    eV*rad^-4 0.000  3.500
                            Three-body k3    0.0000000    eV*rad^-3 
--------------------------------------------------------------------------------
Si    core    Harmonic      Three-body cnst  1.2614000    eV*rad^-2 0.000  1.900
õ(1   shel                  Three-body angl  109.47000    degrees   0.000  1.900
õ(2   shel                  Three-body k4    0.0000000    eV*rad^-4 0.000  3.500
                            Three-body k3    0.0000000    eV*rad^-3 
--------------------------------------------------------------------------------
Si    core    Harmonic      Three-body cnst  1.2614000    eV*rad^-2 0.000  1.900
O2    shel                  Three-body angl  109.47000    degrees   0.000  1.900
O2    shel                  Three-body k4    0.0000000    eV*rad^-4 0.000  3.500
                            Three-body k3    0.0000000    eV*rad^-3 
--------------------------------------------------------------------------------
Si    core    Harmonic      Three-body cnst  1.2614000    eV*rad^-2 0.000  1.900
O2    shel                  Three-body angl  109.47000    degrees   0.000  1.900
õ(2   shel                  Three-body k4    0.0000000    eV*rad^-4 0.000  3.500
                            Three-body k3    0.0000000    eV*rad^-3 
--------------------------------------------------------------------------------
Si    core    Harmonic      Three-body cnst  1.2614000    eV*rad^-2 0.000  1.900
õ(2   shel                  Three-body angl  109.47000    degrees   0.000  1.900
õ(2   shel                  Three-body k4    0.0000000    eV*rad^-4 0.000  3.500
                            Three-body k3    0.0000000    eV*rad^-3 
--------------------------------------------------------------------------------

********************************************************************************
*  Output for configuration   1 : c00145.vasp                                  *
********************************************************************************


  Components of energy : 

--------------------------------------------------------------------------------
  Interatomic potentials     =         904.55723064 eV    
  Three-body potentials      =           0.00000000 eV    
  Monopole - monopole (real) =       -2676.00317478 eV    
  Monopole - monopole (recip)=       -1115.35404472 eV    
  Monopole - monopole (total)=       -3791.35721950 eV    
--------------------------------------------------------------------------------
  Total lattice energy       =       -2886.79998887 eV    
--------------------------------------------------------------------------------
  Total lattice energy       =         -278532.0701 kJ/(mole unit cells)
--------------------------------------------------------------------------------


  Number of variables =      363

  Maximum number of calculations  =          1000
  Maximum Hessian update interval =            10
  Maximum step size               =   0.100000000
  Maximum parameter tolerance     =   0.000010000
  Maximum function  tolerance     =   0.000010000
  Maximum gradient  tolerance     =   0.001000000
  Maximum gradient  component     =   0.010000000

  Symmetry not applied to optimisation

  Cell parameters to be optimised using strains

  Newton-Raphson optimiser to be used

  BFGS hessian update to be used

  Lower half triangular hessian to be used

  Minimiser to switch to RFO
  When gradient norm is less than     0.050000

  Dumpfile to be written after every cycle

  Start of bulk optimisation :

  Cycle:      0 Energy:     -2886.799989  Gnorm:      5.975258  CPU:    0.114
  ** Hessian calculated **
  Cycle:      1 Energy:     -2899.913502  Gnorm:      5.187207  CPU:    0.304
  ** Hessian calculated **
  Cycle:      2 Energy:     -2932.914916  Gnorm:      1.250311  CPU:    0.544
  ** Hessian calculated **
  Cycle:      3 Energy:     -2936.671253  Gnorm:      0.823192  CPU:    0.793
  ** Hessian calculated **
  Cycle:      4 Energy:     -2938.116614  Gnorm:      0.385452  CPU:    1.005
  Cycle:      5 Energy:     -2938.433919  Gnorm:      0.213833  CPU:    1.113
  Cycle:      6 Energy:     -2938.632971  Gnorm:      0.179393  CPU:    1.239
  Cycle:      7 Energy:     -2938.868715  Gnorm:      0.148920  CPU:    1.370
  Cycle:      8 Energy:     -2939.094038  Gnorm:      0.142497  CPU:    1.494
  Cycle:      9 Energy:     -2939.188749  Gnorm:      0.095955  CPU:    1.605
  Cycle:     10 Energy:     -2939.228940  Gnorm:      0.077647  CPU:    1.709
  Cycle:     11 Energy:     -2939.261734  Gnorm:      0.070783  CPU:    1.839
  Cycle:     12 Energy:     -2939.292250  Gnorm:      0.068999  CPU:    1.964
  Cycle:     13 Energy:     -2939.327135  Gnorm:      0.075791  CPU:    2.088
  ** Hessian calculated **
  Cycle:     14 Energy:     -2939.339065  Gnorm:      0.063778  CPU:    2.322
  Cycle:     15 Energy:     -2939.355211  Gnorm:      0.057031  CPU:    2.449
  Cycle:     16 Energy:     -2939.376993  Gnorm:      0.056495  CPU:    2.576
  Cycle:     17 Energy:     -2939.403334  Gnorm:      0.054014  CPU:    2.703
  Cycle:     18 Energy:     -2939.429510  Gnorm:      0.060301  CPU:    2.826
  Cycle:     19 Energy:     -2939.444960  Gnorm:      0.053028  CPU:    2.938
  Cycle:     20 Energy:     -2939.461525  Gnorm:      0.056498  CPU:    3.061
  Cycle:     21 Energy:     -2939.483646  Gnorm:      0.061855  CPU:    3.186
  Cycle:     22 Energy:     -2939.513474  Gnorm:      0.067367  CPU:    3.307
  Cycle:     23 Energy:     -2939.548809  Gnorm:      0.068274  CPU:    3.425
  ** Hessian calculated **
  Cycle:     24 Energy:     -2939.558532  Gnorm:      0.057371  CPU:    3.651
  Cycle:     25 Energy:     -2939.571872  Gnorm:      0.049226  CPU:    3.774
  ** Hessian has required structure
  Cycle:     26 Energy:     -2939.576664  Gnorm:      0.081352  CPU:    3.930
  ** Hessian has required structure
  Cycle:     27 Energy:     -2939.582809  Gnorm:      0.089137  CPU:    4.102
  ** Hessian has required structure
  Cycle:     28 Energy:     -2939.590768  Gnorm:      0.079598  CPU:    4.254
  ** Hessian has required structure
  Cycle:     29 Energy:     -2939.598811  Gnorm:      0.084346  CPU:    4.403
  ** Hessian has required structure
  Cycle:     30 Energy:     -2939.603937  Gnorm:      0.072242  CPU:    4.549
  ** Hessian has required structure
  Cycle:     31 Energy:     -2939.606492  Gnorm:      0.073964  CPU:    4.701
  ** Hessian has required structure
  Cycle:     32 Energy:     -2939.610122  Gnorm:      0.081364  CPU:    4.869
  ** Hessian has required structure
  Cycle:     33 Energy:     -2939.614879  Gnorm:      0.100707  CPU:    5.017
  ** Hessian has wrong structure
  ** Imaginary eigenvectors =   4
  Cycle:     34 Energy:     -2939.667934  Gnorm:      0.101145  CPU:    5.499
  ** Hessian has wrong structure
  ** Imaginary eigenvectors =   4
  ** Hessian has wrong structure
  ** Imaginary eigenvectors =   4
  Cycle:     35 Energy:     -2939.723541  Gnorm:      0.107983  CPU:    6.111
  ** Hessian has wrong structure
  ** Imaginary eigenvectors =   2
  Cycle:     36 Energy:     -2939.786034  Gnorm:      0.129731  CPU:    6.514
  ** Hessian has required structure
  Cycle:     37 Energy:     -2940.140414  Gnorm:      0.128698  CPU:    6.836
  ** Hessian has required structure
  Cycle:     38 Energy:     -2940.369597  Gnorm:      0.093975  CPU:    7.024
  ** Hessian has required structure
  Cycle:     39 Energy:     -2940.460609  Gnorm:      0.068470  CPU:    7.193
  ** Hessian has required structure
  Cycle:     40 Energy:     -2940.528265  Gnorm:      0.050214  CPU:    7.362
  ** Hessian has required structure
  Cycle:     41 Energy:     -2940.559863  Gnorm:      0.043407  CPU:    7.509
  ** Hessian has required structure
  Cycle:     42 Energy:     -2940.583298  Gnorm:      0.046391  CPU:    7.682
  ** Hessian has required structure
  Cycle:     43 Energy:     -2940.596621  Gnorm:      0.029278  CPU:    7.845
  ** Hessian has required structure
  Cycle:     44 Energy:     -2940.601820  Gnorm:      0.026167  CPU:    8.016
  ** Hessian has required structure
  Cycle:     45 Energy:     -2940.605300  Gnorm:      0.015716  CPU:    8.187
  ** Hessian has required structure
  Cycle:     46 Energy:     -2940.608153  Gnorm:      0.017957  CPU:    8.373
  ** Hessian has wrong structure
  ** Imaginary eigenvectors =   1
  Cycle:     47 Energy:     -2940.626606  Gnorm:      0.027168  CPU:    8.799
  ** Hessian has wrong structure
  ** Imaginary eigenvectors =   1
  ** Hessian has required structure
  Cycle:     48 Energy:     -2940.677588  Gnorm:      0.035854  CPU:    9.416
  ** Hessian has required structure
  Cycle:     49 Energy:     -2940.708272  Gnorm:      0.041860  CPU:    9.599
  ** Hessian has required structure
  Cycle:     50 Energy:     -2940.733985  Gnorm:      0.026479  CPU:    9.795
  ** Hessian has required structure
  Cycle:     51 Energy:     -2940.742945  Gnorm:      0.017292  CPU:    9.981
  ** Hessian has required structure
  Cycle:     52 Energy:     -2940.749287  Gnorm:      0.008212  CPU:   10.182
  ** Hessian has required structure
  Cycle:     53 Energy:     -2940.751069  Gnorm:      0.007571  CPU:   10.362
  ** Hessian has required structure
  Cycle:     54 Energy:     -2940.751793  Gnorm:      0.002926  CPU:   10.542
  ** Hessian has required structure
  Cycle:     55 Energy:     -2940.751977  Gnorm:      0.002032  CPU:   10.719
  ** Hessian has required structure
  Cycle:     56 Energy:     -2940.752069  Gnorm:      0.001322  CPU:   10.899
  ** Hessian has required structure
  Cycle:     57 Energy:     -2940.752103  Gnorm:      0.001042  CPU:   11.071
  ** Hessian has required structure
  Cycle:     58 Energy:     -2940.752129  Gnorm:      0.000521  CPU:   11.373
  ** Hessian has required structure
  Cycle:     59 Energy:     -2940.752136  Gnorm:      0.000261  CPU:   11.569
  ** Hessian has required structure
  Cycle:     60 Energy:     -2940.752137  Gnorm:      0.000183  CPU:   11.731
  ** Hessian has required structure
  Cycle:     61 Energy:     -2940.752138  Gnorm:      0.000128  CPU:   11.886
  ** Hessian has required structure
  Cycle:     62 Energy:     -2940.752138  Gnorm:      0.000090  CPU:   12.047
  ** Hessian has required structure


  **** Optimisation achieved ****


  Final energy =   -2940.75213836 eV      
  Final Gnorm  =       0.00006269

  Components of energy : 

--------------------------------------------------------------------------------
  Interatomic potentials     =         776.03375565 eV    
  Three-body potentials      =           0.00000000 eV    
  Monopole - monopole (real) =       -1523.08218471 eV    
  Monopole - monopole (recip)=       -2193.70370930 eV    
  Monopole - monopole (total)=       -3716.78589401 eV    
--------------------------------------------------------------------------------
  Total lattice energy       =       -2940.75213836 eV    
--------------------------------------------------------------------------------
  Total lattice energy       =         -283737.6278 kJ/(mole unit cells)
--------------------------------------------------------------------------------

  Final fractional coordinates of atoms :

--------------------------------------------------------------------------------
   No.  Atomic        x           y          z          Radius
        Label       (Frac)      (Frac)     (Frac)       (Angs) 
--------------------------------------------------------------------------------
     1  Ge    c     0.052090    0.000000    0.372270    0.000000
     2  Ge    c     0.446017    0.055233    0.424693    0.000000
     3  Ge    c     0.948040    0.067015    0.623204    0.000000
     4  Ge    c     0.549666    0.015355    0.679150    0.000000
     5  Ge    c     0.561655    0.008849    0.185725    0.000000
     6  Ge    c     0.059695    0.012756    0.869636    0.000000
     7  Ge    c     0.176643    0.284303    0.300113    0.000000
     8  Ge    c     0.331090    0.758256    0.315264    0.000000
     9  Ge    c     0.856386    0.379322    0.740986    0.000000
    10  Ge    c     0.646517    0.698330    0.750651    0.000000
    11  Ge    c     0.827488    0.780147    0.739230    0.000000
    12  Ge    c     0.675414    0.295642    0.751491    0.000000
    13  Ge    c     0.149053    0.684194    0.307340    0.000000
    14  Ge    c     0.681333    0.297044    0.066937    0.000000
    15  Ge    c     0.838026    0.781165    0.053319    0.000000
    16  Ge    c     0.360085    0.380505    0.994017    0.000000
    17  Ge    c     0.156816    0.703919    0.991553    0.000000
    18  Ge    c     0.338982    0.783824    0.002550    0.000000
    19  Ge    c     0.180519    0.299001    0.983294    0.000000
    20  Ge    c     0.655971    0.701490    0.065716    0.000000
    21  Ge    c     0.862391    0.379369    0.056599    0.000000
    22  Si    c     0.957971    0.068694    0.117474    0.000000
    23  Si    c     0.458558    0.073837    0.937683    0.000000
    24  Si    c     0.353557    0.364769    0.304146    0.000000
    25  O1    c     0.130206    0.134510    0.393181    0.000000
    26  O1    c     0.377441    0.897326    0.416455    0.000000
    27  O1    c     0.922428    0.272149    0.653519    0.000000
    28  O1    c     0.580632    0.810766    0.663366    0.000000
    29  O1    c     0.871114    0.931564    0.642851    0.000000
    30  O1    c     0.625728    0.154976    0.656609    0.000000
    31  O1    c     0.082765    0.795491    0.392107    0.000000
    32  O3    c     0.415247    0.255500    0.380398    0.000000
    33  O1    c     0.976423    0.050519    0.463481    0.000000
    34  O1    c     0.473619    0.062261    0.585554    0.000000
    35  O3    c     0.028319    0.027651    0.208391    0.000000
    36  O1    c     0.527336    0.010477    0.341378    0.000000
    37  O1    c     0.026076    0.011311    0.713284    0.000000
    38  O3    c     0.527004    0.037991    0.843242    0.000000
    39  O1    c     0.636535    0.151447    0.167311    0.000000
    40  O3    c     0.889569    0.930139    0.141088    0.000000
    41  O3    c     0.428653    0.265502    0.916601    0.000000
    42  O1    c     0.091803    0.812032    0.901524    0.000000
    43  O3    c     0.389515    0.937058    0.914921    0.000000
    44  O1    c     0.133008    0.159886    0.884032    0.000000
    45  O1    c     0.592187    0.806616    0.157977    0.000000
    46  O3    c     0.927715    0.258161    0.141295    0.000000
    47  O3    c     0.485850    0.060154    0.086839    0.000000
    48  O3    c     0.983682    0.062146    0.967086    0.000000
    49  O1    c     0.156842    0.480515    0.364298    0.000000
    50  O3    c     0.342093    0.547988    0.368844    0.000000
    51  O1    c     0.841799    0.579381    0.677961    0.000000
    52  O1    c     0.658761    0.499068    0.692004    0.000000
    53  O3    c     0.274232    0.256467    0.303291    0.000000
    54  O1    c     0.235490    0.793338    0.314113    0.000000
    55  O1    c     0.771593    0.263747    0.744326    0.000000
    56  O1    c     0.731852    0.813043    0.746928    0.000000
    57  O1    c     0.148364    0.275602    0.140189    0.000000
    58  O1    c     0.367561    0.791770    0.162409    0.000000
    59  O1    c     0.888897    0.404676    0.896952    0.000000
    60  O1    c     0.620227    0.682838    0.911162    0.000000
    61  O1    c     0.865435    0.791488    0.893288    0.000000
    62  O1    c     0.646703    0.281380    0.911340    0.000000
    63  O1    c     0.122973    0.676338    0.146508    0.000000
    64  O3    c     0.380487    0.404116    0.157883    0.000000
    65  O1    c     0.669423    0.499735    0.125531    0.000000
    66  O1    c     0.855027    0.580070    0.117561    0.000000
    67  O1    c     0.355363    0.585476    0.936864    0.000000
    68  O1    c     0.169492    0.505679    0.928647    0.000000
    69  O1    c     0.777499    0.266073    0.061644    0.000000
    70  O1    c     0.742040    0.813297    0.061850    0.000000
    71  O1    c     0.276563    0.265388    0.979434    0.000000
    72  O1    c     0.242798    0.815681    0.995692    0.000000
    73  O1    s     0.128131    0.136418    0.384399    0.000000
    74  O1    s     0.379155    0.898762    0.409211    0.000000
    75  O1    s     0.919384    0.264732    0.657807    0.000000
    76  O1    s     0.583177    0.817600    0.670902    0.000000
    77  O1    s     0.873668    0.930214    0.648889    0.000000
    78  O1    s     0.623930    0.155491    0.665551    0.000000
    79  O1    s     0.085320    0.802565    0.384481    0.000000
    80  O3    s     0.411536    0.250384    0.376323    0.000000
    81  O1    s     0.980517    0.047631    0.467740    0.000000
    82  O1    s     0.477729    0.057983    0.581324    0.000000
    83  O3    s     0.022959    0.029729    0.211220    0.000000
    84  O1    s     0.523846    0.013716    0.335964    0.000000
    85  O1    s     0.022791    0.015589    0.718291    0.000000
    86  O3    s     0.521651    0.039951    0.840859    0.000000
    87  O1    s     0.634295    0.151852    0.160938    0.000000
    88  O3    s     0.891802    0.931072    0.131904    0.000000
    89  O3    s     0.426013    0.256952    0.924590    0.000000
    90  O1    s     0.094426    0.818925    0.906116    0.000000
    91  O3    s     0.391851    0.937407    0.924037    0.000000
    92  O1    s     0.131128    0.159537    0.890694    0.000000
    93  O1    s     0.594819    0.813782    0.152937    0.000000
    94  O3    s     0.925541    0.249877    0.132649    0.000000
    95  O3    s     0.489209    0.057416    0.080613    0.000000
    96  O3    s     0.987211    0.058916    0.973298    0.000000
    97  O1    s     0.157669    0.482136    0.355223    0.000000
    98  O3    s     0.342361    0.546289    0.358742    0.000000
    99  O1    s     0.841865    0.578859    0.687040    0.000000
   100  O1    s     0.658996    0.500123    0.700812    0.000000
   101  O3    s     0.274119    0.268638    0.303115    0.000000
   102  O1    s     0.236470    0.782781    0.313692    0.000000
   103  O1    s     0.770634    0.274465    0.744625    0.000000
   104  O1    s     0.732969    0.802379    0.746636    0.000000
   105  O1    s     0.152841    0.277973    0.140342    0.000000
   106  O1    s     0.362766    0.788720    0.162098    0.000000
   107  O1    s     0.884489    0.400905    0.897174    0.000000
   108  O1    s     0.624838    0.685368    0.910801    0.000000
   109  O1    s     0.860647    0.789912    0.893820    0.000000
   110  O1    s     0.651371    0.283574    0.911274    0.000000
   111  O1    s     0.127465    0.678991    0.146788    0.000000
   112  O3    s     0.376285    0.398516    0.159359    0.000000
   113  O1    s     0.669274    0.500248    0.116764    0.000000
   114  O1    s     0.854396    0.579048    0.108442    0.000000
   115  O1    s     0.354574    0.583836    0.945836    0.000000
   116  O1    s     0.169339    0.505582    0.937387    0.000000
   117  O1    s     0.776603    0.276794    0.061636    0.000000
   118  O1    s     0.743025    0.802915    0.061486    0.000000
   119  O1    s     0.275704    0.276611    0.980857    0.000000
   120  O1    s     0.243751    0.805312    0.995906    0.000000
--------------------------------------------------------------------------------

  Final Cartesian lattice vectors (Angstroms) :

       17.573187   -0.225338   -0.018212
       -0.100111    7.835382    0.050287
       -0.015091    0.069102   10.293909


  Final cell parameters and derivatives :

--------------------------------------------------------------------------------
       a           17.574641 Angstrom     dE/de1(xx)    -0.001764 eV/strain
       b            7.836182 Angstrom     dE/de2(yy)    -0.000869 eV/strain
       c           10.294152 Angstrom     dE/de3(zz)     0.000145 eV/strain
       alpha       89.246657 Degrees      dE/de4(yz)    -0.000125 eV/strain
       beta        90.148293 Degrees      dE/de5(xz)     0.000190 eV/strain
       gamma       91.467022 Degrees      dE/de6(xy)    -0.000178 eV/strain
--------------------------------------------------------------------------------

  Primitive cell volume =          1417.100236 Angs**3

  Density of cell =      2.785475 g/cm**3

  Non-primitive cell volume =          1417.100236 Angs**3


  Final internal derivatives :

--------------------------------------------------------------------------------
   No.  Atomic          a             b             c           Radius
        Label          (eV)          (eV)          (eV)        (eV/Angs)
--------------------------------------------------------------------------------
      1 Ge    c       0.000000      0.000000      0.000000      0.000000
      2 Ge    c       0.000312     -0.000533      0.000208      0.000000
      3 Ge    c      -0.003023      0.000267      0.001628      0.000000
      4 Ge    c       0.001138     -0.000147     -0.000884      0.000000
      5 Ge    c       0.001023     -0.000112      0.001953      0.000000
      6 Ge    c      -0.000376      0.000299      0.000437      0.000000
      7 Ge    c       0.000123     -0.000014      0.000111      0.000000
      8 Ge    c      -0.000171      0.000042      0.000237      0.000000
      9 Ge    c      -0.000677     -0.000264      0.000433      0.000000
     10 Ge    c       0.002044     -0.000506     -0.000473      0.000000
     11 Ge    c      -0.000567      0.000447     -0.000652      0.000000
     12 Ge    c       0.002349     -0.000210      0.000368      0.000000
     13 Ge    c       0.000258      0.000070      0.000291      0.000000
     14 Ge    c       0.001651     -0.000693     -0.002320      0.000000
     15 Ge    c       0.000451      0.000657     -0.000761      0.000000
     16 Ge    c      -0.000085      0.000279     -0.000919      0.000000
     17 Ge    c      -0.000227     -0.000059     -0.000259      0.000000
     18 Ge    c      -0.000020      0.000337     -0.000064      0.000000
     19 Ge    c      -0.000195      0.000106     -0.000239      0.000000
     20 Ge    c       0.001753     -0.000275      0.000260      0.000000
     21 Ge    c      -0.002696     -0.000657     -0.000356      0.000000
     22 Si    c       0.000329      0.000120     -0.000131      0.000000
     23 Si    c      -0.001081     -0.000005     -0.000506      0.000000
     24 Si    c      -0.002520      0.000631      0.001206      0.000000
     25 O1    c      -0.001125     -0.000431     -0.000104      0.000000
     26 O1    c       0.000572      0.000282      0.000123      0.000000
     27 O1    c       0.002750     -0.003234     -0.000166      0.000000
     28 O1    c      -0.001503      0.001040      0.000228      0.000000
     29 O1    c       0.003585      0.002396      0.000699      0.000000
     30 O1    c      -0.002027     -0.000781     -0.000327      0.000000
     31 O1    c       0.000376      0.000062     -0.000420      0.000000
     32 O3    c       0.001046     -0.000084      0.000640      0.000000
     33 O1    c       0.000752     -0.000128     -0.001027      0.000000
     34 O1    c       0.001211      0.000023      0.000450      0.000000
     35 O3    c      -0.000143     -0.000436      0.000443      0.000000
     36 O1    c       0.001902     -0.000027     -0.001163      0.000000
     37 O1    c      -0.004832      0.000502     -0.002002      0.000000
     38 O3    c       0.000717     -0.000035      0.000691      0.000000
     39 O1    c       0.001406      0.000579      0.001912      0.000000
     40 O3    c      -0.001978      0.000006      0.000594      0.000000
     41 O3    c       0.000242     -0.000333      0.000013      0.000000
     42 O1    c       0.000268      0.000251      0.000109      0.000000
     43 O3    c       0.001004      0.000412      0.000170      0.000000
     44 O1    c      -0.001791     -0.000818     -0.000317      0.000000
     45 O1    c       0.003240     -0.001874     -0.000957      0.000000
     46 O3    c       0.000639      0.000464     -0.000537      0.000000
     47 O3    c      -0.007940     -0.000218     -0.003042      0.000000
     48 O3    c       0.002004     -0.000118     -0.001041      0.000000
     49 O1    c       0.000253      0.000163     -0.000104      0.000000
     50 O3    c       0.000332     -0.000750     -0.000119      0.000000
     51 O1    c      -0.000722     -0.000373      0.000643      0.000000
     52 O1    c       0.000598      0.001593      0.000351      0.000000
     53 O3    c       0.000024     -0.000091     -0.000163      0.000000
     54 O1    c      -0.000926     -0.000283      0.000065      0.000000
     55 O1    c       0.001965      0.001650     -0.000450      0.000000
     56 O1    c      -0.001335     -0.001710     -0.000185      0.000000
     57 O1    c      -0.000154      0.000054      0.000198      0.000000
     58 O1    c       0.000476      0.000288     -0.000303      0.000000
     59 O1    c      -0.001751      0.000287     -0.000524      0.000000
     60 O1    c      -0.000119      0.000298      0.000271      0.000000
     61 O1    c       0.000083     -0.000239      0.000433      0.000000
     62 O1    c       0.000290     -0.000233      0.000515      0.000000
     63 O1    c       0.000057     -0.000128     -0.000069      0.000000
     64 O3    c       0.003262      0.000251     -0.001887      0.000000
     65 O1    c      -0.000431      0.004786      0.000581      0.000000
     66 O1    c       0.000714     -0.001602      0.000413      0.000000
     67 O1    c       0.000008     -0.000999     -0.000149      0.000000
     68 O1    c       0.000188      0.000056      0.000075      0.000000
     69 O1    c       0.009160      0.001372      0.000221      0.000000
     70 O1    c      -0.006614     -0.000988      0.000402      0.000000
     71 O1    c      -0.000348     -0.000225      0.000019      0.000000
     72 O1    c      -0.000044     -0.000111     -0.000083      0.000000
     73 O1    s      -0.000035      0.000041     -0.000079      0.000000
     74 O1    s      -0.000424     -0.000192      0.000087      0.000000
     75 O1    s      -0.001723      0.001055      0.000601      0.000000
     76 O1    s       0.001774     -0.000840      0.000037      0.000000
     77 O1    s       0.000059     -0.000864     -0.000014      0.000000
     78 O1    s       0.000398      0.000547     -0.000205      0.000000
     79 O1    s      -0.000081      0.000196      0.000036      0.000000
     80 O3    s       0.000054     -0.000120      0.000269      0.000000
     81 O1    s      -0.000751      0.000171      0.001466      0.000000
     82 O1    s      -0.000778     -0.000012      0.000123      0.000000
     83 O3    s       0.001260      0.000144      0.000058      0.000000
     84 O1    s      -0.001512      0.000015      0.001298      0.000000
     85 O1    s       0.000203     -0.000456      0.001079      0.000000
     86 O3    s      -0.000914     -0.000240     -0.000666      0.000000
     87 O1    s      -0.000440      0.000422      0.000118      0.000000
     88 O3    s       0.000678      0.000023      0.000074      0.000000
     89 O3    s       0.000000     -0.000007      0.000047      0.000000
     90 O1    s      -0.000288      0.000153      0.000135      0.000000
     91 O3    s      -0.000318     -0.000011     -0.000158      0.000000
     92 O1    s       0.000370      0.000192      0.000291      0.000000
     93 O1    s       0.000662     -0.000636      0.000940      0.000000
     94 O3    s      -0.000586      0.000689      0.000156      0.000000
     95 O3    s       0.000631     -0.000047      0.001326      0.000000
     96 O3    s       0.000269     -0.000146      0.000014      0.000000
     97 O1    s      -0.000445      0.000050      0.000048      0.000000
     98 O3    s      -0.000650      0.000711      0.000110      0.000000
     99 O1    s       0.000637      0.000047     -0.000568      0.000000
    100 O1    s      -0.000863     -0.000447      0.000043      0.000000
    101 O3    s      -0.001442     -0.000040      0.000473      0.000000
    102 O1    s      -0.000082      0.000121     -0.000213      0.000000
    103 O1    s       0.000650     -0.001005      0.000933      0.000000
    104 O1    s       0.000741      0.001369      0.000365      0.000000
    105 O1    s      -0.000170     -0.000134     -0.000068      0.000000
    106 O1    s      -0.000300     -0.000386      0.000100      0.000000
    107 O1    s      -0.001785     -0.000599      0.000472      0.000000
    108 O1    s       0.001276     -0.000454      0.000058      0.000000
    109 O1    s      -0.000419      0.000528     -0.000661      0.000000
    110 O1    s      -0.000354      0.000448     -0.000977      0.000000
    111 O1    s       0.000219      0.000224      0.000106      0.000000
    112 O3    s       0.000410      0.000046      0.000214      0.000000
    113 O1    s       0.000040     -0.001207     -0.000486      0.000000
    114 O1    s      -0.000800      0.000124     -0.000225      0.000000
    115 O1    s       0.000037      0.000606      0.000311      0.000000
    116 O1    s      -0.000466      0.000074     -0.000072      0.000000
    117 O1    s      -0.001971     -0.000982     -0.001019      0.000000
    118 O1    s       0.001940      0.000440     -0.000467      0.000000
    119 O1    s       0.000022      0.000014     -0.000202      0.000000
    120 O1    s      -0.000304      0.000124      0.000229      0.000000
--------------------------------------------------------------------------------
  Maximum abs         0.009160      0.004786      0.003042      0.000000
--------------------------------------------------------------------------------


  Born effective charge tensors : 

-------------------------------------------------------------------------------
  Atom             x           y             z
-------------------------------------------------------------------------------
    1 Ge    x       4.1493     -0.3007      0.0908
            y       0.0952      3.9237     -0.0052
            z      -0.8131      0.1868      4.1322
-------------------------------------------------------------------------------
    2 Ge    x       4.0859     -0.1498      0.4291
            y       0.1736      3.9211     -0.1200
            z       0.1984      0.0646      4.4983
-------------------------------------------------------------------------------
    3 Ge    x       4.1342     -0.2672     -0.4272
            y       0.1514      3.9114      0.1160
            z      -0.2247      0.0485      4.5175
-------------------------------------------------------------------------------
    4 Ge    x       4.1184     -0.2678     -0.0559
            y       0.1200      3.9047      0.0056
            z       0.8441     -0.1657      4.2030
-------------------------------------------------------------------------------
    5 Ge    x       4.2227     -0.1787     -0.4398
            y       0.1401      3.9390      0.0864
            z      -0.3599      0.0069      3.9238
-------------------------------------------------------------------------------
    6 Ge    x       4.2017     -0.1490      0.4045
            y       0.1373      3.9473     -0.0819
            z       0.3469      0.0291      3.9570
-------------------------------------------------------------------------------
    7 Ge    x       3.9298      0.3055     -0.2740
            y       0.2932      4.1381     -0.0356
            z      -0.0166     -0.1204      3.5606
-------------------------------------------------------------------------------
    8 Ge    x       3.9528      0.2352      0.2379
            y       0.3017      4.1709      0.1352
            z      -0.0145      0.2352      3.5780
-------------------------------------------------------------------------------
    9 Ge    x       3.9444     -0.0481     -0.1989
            y      -0.4652      4.1827      0.0917
            z      -0.0890      0.2220      3.6241
-------------------------------------------------------------------------------
   10 Ge    x       3.9467     -0.1102      0.2099
            y      -0.4658      4.2197     -0.0758
            z       0.0577     -0.1688      3.5687
-------------------------------------------------------------------------------
   11 Ge    x       3.9912      0.2248     -0.2760
            y       0.2294      4.1934     -0.0652
            z       0.0075     -0.1975      3.6237
-------------------------------------------------------------------------------
   12 Ge    x       4.0578      0.2615      0.2654
            y       0.2604      4.1566      0.0665
            z      -0.0050      0.1444      3.5738
-------------------------------------------------------------------------------
   13 Ge    x       3.9592     -0.1217     -0.1853
            y      -0.4714      4.2260      0.0838
            z      -0.0699      0.1650      3.5366
-------------------------------------------------------------------------------
   14 Ge    x       4.0970      0.2467     -0.3366
            y       0.2544      4.1806     -0.0755
            z      -0.0294     -0.1526      3.5211
-------------------------------------------------------------------------------
   15 Ge    x       4.0768      0.2216      0.2834
            y       0.2295      4.1524      0.0016
            z      -0.0121      0.0964      3.4003
-------------------------------------------------------------------------------
   16 Ge    x       3.9032     -0.0101     -0.2481
            y      -0.3843      4.2450      0.0599
            z      -0.0782      0.1818      3.3139
-------------------------------------------------------------------------------
   17 Ge    x       4.0734     -0.0749      0.2949
            y      -0.4352      4.1797     -0.0937
            z       0.1209     -0.1904      3.4926
-------------------------------------------------------------------------------
   18 Ge    x       4.0340      0.2389     -0.2751
            y       0.2283      4.1804      0.0003
            z       0.0200     -0.0988      3.3975
-------------------------------------------------------------------------------
   19 Ge    x       4.0885      0.2388      0.3241
            y       0.2745      4.1718      0.1052
            z       0.0588      0.1589      3.5269
-------------------------------------------------------------------------------
   20 Ge    x       4.0773     -0.0635     -0.2897
            y      -0.4311      4.1850      0.1186
            z      -0.1058      0.1950      3.4941
-------------------------------------------------------------------------------
   21 Ge    x       3.9420     -0.0323      0.2248
            y      -0.3908      4.2519     -0.0535
            z       0.0189     -0.1553      3.3695
-------------------------------------------------------------------------------
   22 Si    x       3.9324     -0.1859     -0.0552
            y       0.1101      3.6898      0.0103
            z       0.6208     -0.1402      3.3971
-------------------------------------------------------------------------------
   23 Si    x       3.9091     -0.2017      0.0293
            y       0.1246      3.6979      0.0110
            z      -0.6342      0.1509      3.4314
-------------------------------------------------------------------------------
   24 Si    x       3.6464     -0.0531      0.1816
            y      -0.4429      3.9145     -0.0744
            z       0.0962     -0.2569      3.3226
-------------------------------------------------------------------------------
   25 O1    x      -2.2558     -0.9079      0.2689
            y      -0.9617     -2.2695      0.3517
            z       0.3412      0.3438     -1.5939
-------------------------------------------------------------------------------
   26 O1    x      -2.0559     -0.8930     -0.4819
            y      -0.9455     -2.4175     -0.5008
            z      -0.4571     -0.5548     -1.6996
-------------------------------------------------------------------------------
   27 O1    x      -1.9241      0.8140      0.5226
            y       0.7663     -2.5315     -0.5529
            z       0.4775     -0.5469     -1.6797
-------------------------------------------------------------------------------
   28 O1    x      -1.9695      0.8871     -0.3321
            y       0.8226     -2.5398      0.2846
            z      -0.4146      0.3132     -1.5874
-------------------------------------------------------------------------------
   29 O1    x      -2.1702     -0.8714      0.5144
            y      -0.9148     -2.2838      0.5082
            z       0.4742      0.5434     -1.6910
-------------------------------------------------------------------------------
   30 O1    x      -2.2416     -0.9026     -0.2820
            y      -0.9537     -2.2375     -0.3441
            z      -0.3602     -0.3451     -1.6259
-------------------------------------------------------------------------------
   31 O1    x      -1.9687      0.8800      0.3120
            y       0.8343     -2.5632     -0.2684
            z       0.4102     -0.3043     -1.5650
-------------------------------------------------------------------------------
   32 O3    x      -1.9009      0.8511     -0.5424
            y       0.7976     -2.3291      0.5625
            z      -0.4852      0.5692     -1.5838
-------------------------------------------------------------------------------
   33 O1    x      -2.0447      0.2849      0.9181
            y       0.1250     -1.2883     -0.1855
            z       1.1687     -0.3418     -3.1235
-------------------------------------------------------------------------------
   34 O1    x      -2.0454      0.2127     -0.9536
            y       0.0844     -1.2801      0.1022
            z      -1.1887      0.1823     -3.1784
-------------------------------------------------------------------------------
   35 O3    x      -2.0536      0.2475     -0.8385
            y       0.1071     -1.2853      0.1824
            z      -0.7905      0.2477     -2.3996
-------------------------------------------------------------------------------
   36 O1    x      -2.1891      0.2331      0.8291
            y       0.1412     -1.3108     -0.1381
            z       0.8572     -0.1536     -2.7180
-------------------------------------------------------------------------------
   37 O1    x      -2.1178      0.2255     -0.8256
            y       0.1230     -1.3064      0.1373
            z      -0.8625      0.1547     -2.7859
-------------------------------------------------------------------------------
   38 O3    x      -2.0171      0.2293      0.8491
            y       0.0907     -1.2784     -0.1825
            z       0.7969     -0.2388     -2.4530
-------------------------------------------------------------------------------
   39 O1    x      -2.2392     -0.9029      0.5280
            y      -0.9191     -2.2825      0.5194
            z       0.4356      0.4973     -1.5993
-------------------------------------------------------------------------------
   40 O3    x      -2.1441     -0.8888     -0.2226
            y      -0.9126     -2.1903     -0.2350
            z      -0.2844     -0.2492     -1.3449
-------------------------------------------------------------------------------
   41 O3    x      -1.8925      0.8307      0.2505
            y       0.7742     -2.4745     -0.1816
            z       0.3175     -0.2304     -1.3137
-------------------------------------------------------------------------------
   42 O1    x      -2.0576      0.8750     -0.5534
            y       0.8268     -2.5171      0.5529
            z      -0.4819      0.5128     -1.5635
-------------------------------------------------------------------------------
   43 O3    x      -2.1271     -0.8822      0.2141
            y      -0.9122     -2.2076      0.2322
            z       0.2783      0.2471     -1.3443
-------------------------------------------------------------------------------
   44 O1    x      -2.2434     -0.9160     -0.5251
            y      -0.9326     -2.2777     -0.5063
            z      -0.4506     -0.4984     -1.6063
-------------------------------------------------------------------------------
   45 O1    x      -2.0344      0.8594      0.5596
            y       0.7964     -2.5190     -0.5579
            z       0.4777     -0.5154     -1.5738
-------------------------------------------------------------------------------
   46 O3    x      -1.8668      0.8218     -0.2381
            y       0.7632     -2.4859      0.1696
            z      -0.2901      0.2020     -1.3123
-------------------------------------------------------------------------------
   47 O3    x      -1.9330      0.1876     -0.6657
            y       0.0965     -1.2914      0.1561
            z      -0.4681      0.1465     -2.2428
-------------------------------------------------------------------------------
   48 O3    x      -1.9348      0.1765      0.6653
            y       0.0948     -1.2889     -0.1465
            z       0.4646     -0.1323     -2.2527
-------------------------------------------------------------------------------
   49 O1    x      -1.3736      0.2077      0.0960
            y       0.3129     -3.1269     -0.0389
            z       0.0578     -0.0209     -1.3797
-------------------------------------------------------------------------------
   50 O3    x      -1.2640      0.1684     -0.0318
            y       0.2568     -2.9861     -0.1798
            z       0.0108     -0.1788     -1.3351
-------------------------------------------------------------------------------
   51 O1    x      -1.3577      0.2057      0.0622
            y       0.3220     -3.1384      0.0121
            z       0.0179      0.0088     -1.4180
-------------------------------------------------------------------------------
   52 O1    x      -1.3639      0.2009     -0.0686
            y       0.3223     -3.1585     -0.0199
            z      -0.0263     -0.0211     -1.3804
-------------------------------------------------------------------------------
   53 O3    x      -2.8191     -0.3511     -0.0244
            y      -0.2814     -1.5220      0.0042
            z      -0.0413      0.0412     -1.1477
-------------------------------------------------------------------------------
   54 O1    x      -3.0583     -0.2314     -0.0470
            y      -0.1358     -1.5887     -0.0203
            z      -0.0206     -0.0584     -1.2111
-------------------------------------------------------------------------------
   55 O1    x      -3.0423     -0.2875      0.0609
            y      -0.1980     -1.5859     -0.0075
            z       0.0746     -0.0397     -1.2216
-------------------------------------------------------------------------------
   56 O1    x      -3.0548     -0.2681      0.0679
            y      -0.1909     -1.5847      0.0126
            z       0.0468      0.0499     -1.2233
-------------------------------------------------------------------------------
   57 O1    x      -1.5124     -0.1151     -0.0137
            y      -0.1258     -1.4131      0.0175
            z      -0.0047      0.0348     -2.7162
-------------------------------------------------------------------------------
   58 O1    x      -1.4702     -0.1283      0.1114
            y      -0.1438     -1.4623      0.1160
            z       0.0947      0.0979     -2.6954
-------------------------------------------------------------------------------
   59 O1    x      -1.4443      0.0080     -0.1051
            y       0.0843     -1.4445      0.0108
            z      -0.0882      0.0014     -2.7409
-------------------------------------------------------------------------------
   60 O1    x      -1.4738      0.0190     -0.0294
            y       0.0820     -1.4324     -0.0146
            z      -0.0454     -0.0177     -2.7230
-------------------------------------------------------------------------------
   61 O1    x      -1.4945     -0.1043     -0.1296
            y      -0.1161     -1.4279     -0.0379
            z      -0.1168     -0.0220     -2.7254
-------------------------------------------------------------------------------
   62 O1    x      -1.5108     -0.1130     -0.0441
            y      -0.1201     -1.4200     -0.0084
            z      -0.0197     -0.0117     -2.7097
-------------------------------------------------------------------------------
   63 O1    x      -1.4642      0.0247      0.0175
            y       0.0865     -1.4372      0.0542
            z       0.0382      0.0570     -2.7187
-------------------------------------------------------------------------------
   64 O3    x      -1.3314     -0.0026      0.1807
            y       0.0764     -1.3852      0.0636
            z       0.1466      0.0746     -2.5971
-------------------------------------------------------------------------------
   65 O1    x      -1.3961      0.1982      0.0760
            y       0.2827     -3.1767      0.0044
            z       0.0214      0.0040     -1.3449
-------------------------------------------------------------------------------
   66 O1    x      -1.3891      0.1729     -0.1078
            y       0.2795     -3.2158     -0.0119
            z      -0.0443     -0.0259     -1.3481
-------------------------------------------------------------------------------
   67 O1    x      -1.3661      0.1386      0.1170
            y       0.2476     -3.2352     -0.0254
            z       0.0508      0.0228     -1.3720
-------------------------------------------------------------------------------
   68 O1    x      -1.3912      0.1999     -0.0701
            y       0.2669     -3.1749     -0.0670
            z      -0.0214     -0.0471     -1.3481
-------------------------------------------------------------------------------
   69 O1    x      -3.1326     -0.2875      0.0554
            y      -0.1600     -1.5719      0.0180
            z       0.0267      0.0501     -1.1851
-------------------------------------------------------------------------------
   70 O1    x      -3.1357     -0.2904      0.0668
            y      -0.2129     -1.5825     -0.0130
            z       0.0869     -0.0365     -1.1918
-------------------------------------------------------------------------------
   71 O1    x      -3.0855     -0.2848     -0.0624
            y      -0.1526     -1.5664     -0.0478
            z      -0.0610     -0.0845     -1.2049
-------------------------------------------------------------------------------
   72 O1    x      -3.1155     -0.2900     -0.0620
            y      -0.2114     -1.5902      0.0085
            z      -0.0868      0.0340     -1.1878
-------------------------------------------------------------------------------




  Elastic Constant Matrix: (Units=GPa)

-------------------------------------------------------------------------------
  Indices      1         2         3         4         5         6    
-------------------------------------------------------------------------------
       1     28.3552   11.7512    8.4426    0.4478    0.1889   -7.6712
       2     11.7512   31.4814    5.5461    0.8749   -0.4939   -6.6974
       3      8.4426    5.5461   15.5878    1.0069   -0.2628   -1.3231
       4      0.4478    0.8749    1.0069    7.8608   -1.3814   -0.4812
       5      0.1889   -0.4939   -0.2628   -1.3814   15.4336    1.4022
       6     -7.6712   -6.6974   -1.3231   -0.4812    1.4022   19.5731
-------------------------------------------------------------------------------


  Elastic Compliance Matrix: (Units=1/GPa)

-------------------------------------------------------------------------------
  Indices      1         2         3         4         5         6    
-------------------------------------------------------------------------------
       1    0.050764 -0.012053 -0.022129  0.001725 -0.002547  0.014500
       2   -0.012053  0.039231 -0.006583 -0.002276  0.000345  0.008174
       3   -0.022129 -0.006583  0.078530 -0.008217  0.001199 -0.005905
       4    0.001725 -0.002276 -0.008217  0.130511  0.011289  0.001741
       5   -0.002547  0.000345  0.001199  0.011289  0.066346 -0.005275
       6    0.014500  0.008174 -0.005905  0.001741 -0.005275  0.059592
-------------------------------------------------------------------------------

  Mechanical properties :

-------------------------------------------------------------------------------
  Convention :                    Reuss         Voigt         Hill
-------------------------------------------------------------------------------
  Bulk  Modulus (GPa)     =      11.49515      14.10045      12.79780
  Shear Modulus (GPa)     =       9.33699      11.88581      10.61140
-------------------------------------------------------------------------------
  Velocity S-wave (km/s)  =       1.83085       2.06569       1.95181
  Velocity P-wave (km/s)  =       2.93193       3.27896       3.11029
-------------------------------------------------------------------------------
  Compressibility (1/GPa) =    0.08699318
-------------------------------------------------------------------------------
  Stress axis :                     x             y             z
-------------------------------------------------------------------------------
  Youngs Moduli (GPa)     =      19.69915      25.48973      12.73391
-------------------------------------------------------------------------------
  Poissons Ratio (x)      =                     0.30723       0.28179
  Poissons Ratio (y)      =       0.23744                     0.08383
  Poissons Ratio (z)      =       0.43593       0.16781
-------------------------------------------------------------------------------


  Piezoelectric Strain Matrix: (Units=C/m**2)

-------------------------------------------------------------------------------
  Indices      1         2         3         4         5         6    
-------------------------------------------------------------------------------
       x     0.50846   0.79331   0.28605   0.02988   0.08233   0.06388
       y     0.56666   1.03940   0.91301  -0.29131   0.37770   0.04565
       z    -0.02215   0.08452   0.12765   0.22512  -0.21705   0.10685
-------------------------------------------------------------------------------


  Piezoelectric Stress Matrix: (Units=10**-11 C/N)

-------------------------------------------------------------------------------
  Indices      1         2         3         4         5         6    
-------------------------------------------------------------------------------
       x     1.06873   2.35933   0.54653   0.16609   0.47836   1.55927
       y    -0.47693   2.91027   5.48928  -4.25662   2.15386   1.15423
       z    -0.24778   0.30289   0.72175   2.58365  -1.21838   0.75204
-------------------------------------------------------------------------------


  Static dielectric constant tensor : 

-------------------------------------------------------------------------------
              x         y         z
-------------------------------------------------------------------------------
       x     5.36590   0.06709  -0.00578
       y     0.06709   6.56150   0.07763
       z    -0.00578   0.07763   4.19532
--------------------------------------------------------------------------------

  High frequency dielectric constant tensor : 

-------------------------------------------------------------------------------
              x         y         z
-------------------------------------------------------------------------------
       x     1.54261  -0.00273   0.00013
       y    -0.00273   1.54797   0.00052
       z     0.00013   0.00052   1.50267
-------------------------------------------------------------------------------

  Static refractive indices : 

-------------------------------------------------------------------------------
    1 =    2.04761      2 =    2.31565      3 =    2.56276
-------------------------------------------------------------------------------

  High frequency refractive indices : 

-------------------------------------------------------------------------------
    1 =    1.22583      2 =    1.24156      3 =    1.24464
-------------------------------------------------------------------------------


  Time to end of optimisation =      12.4058 seconds


  Peak dynamic memory used =       5.01 MB 


  Timing analysis for GULP :

--------------------------------------------------------------------------------
  Task / Subroutine                                          Time (Seconds)
--------------------------------------------------------------------------------
  Calculation of reciprocal space energy and derivatives          0.8521
  Calculation of real space energy and derivatives                8.6691
  Calculation of three-body energy and derivatives                0.0938
  Calculation and manipulation of Hessian matrix                  3.4461
  Calculation of matrix inversion                                 0.0489
  Global summation overhead                                       0.0002
--------------------------------------------------------------------------------
  Total CPU time                                                 12.4058
--------------------------------------------------------------------------------


  Dump file written as c00145.vasp.grs
  CIF file written as c00145.vasp.cif


  Job Finished at 12:08.59 31st October    2025                               

