********************************************************************************
*                       GENERAL UTILITY LATTICE PROGRAM                        *
*                                 Julian Gale                                  *
*                       Curtin Institute for Computation                       *
*                    School of Molecular and Life Sciences                     *
*                    Curtin University, Western Australia                      *
********************************************************************************
* Version = 6.1.2 * Last modified =   3rd November 2022                        *
********************************************************************************
*  optimise     - perform optimisation run                                     *
*  conp         - constant pressure calculation                                *
*  property     - calculate properties for final geometry                      *
********************************************************************************

  Job Started  at 12:09.42 31st October    2025                               

  Number of CPUs =     1


  Total number of configurations input =      1

********************************************************************************
*  Input for Configuration =   1 : c00150.vasp                                 *
********************************************************************************

  Formula = Ge21Si3O48                                                  

  Number of irreducible atoms/shells =     120


  Total number atoms/shells =     120

  Dimensionality = 3               :  Bulk   



  Cartesian lattice vectors (Angstroms) :

       17.182800    0.000000    0.000000
        0.000000    7.513760    0.000000
        0.000000    0.000000   10.447700

  Cell parameters (Angstroms/Degrees):

  a =      17.1828    alpha =  90.0000
  b =       7.5138    beta  =  90.0000
  c =      10.4477    gamma =  90.0000

  Initial cell volume =        1348.875752 Angs**3

  Temperature of configuration =   0.00     K 

  Pressure of configuration =         0.000 GPa 

  Fractional coordinates of asymmetric unit :

--------------------------------------------------------------------------------
   No.  Atomic       x           y          z         Charge      Occupancy
        Label      (Frac)      (Frac)     (Frac)        (e)         (Frac)  
--------------------------------------------------------------------------------
      1 Ge    c    0.052090    0.000000    0.372270     4.00000    1.000000    
      2 Ge    c    0.447910 *  0.000000 *  0.372270 *   4.00000    1.000000    
      3 Ge    c    0.947910 *  0.000000 *  0.627730 *   4.00000    1.000000    
      4 Ge    c    0.556730 *  0.000000 *  0.122130 *   4.00000    1.000000    
      5 Ge    c    0.943270 *  0.000000 *  0.122130 *   4.00000    1.000000    
      6 Ge    c    0.443270 *  0.000000 *  0.877870 *   4.00000    1.000000    
      7 Ge    c    0.056730 *  0.000000 *  0.877870 *   4.00000    1.000000    
      8 Ge    c    0.160190 *  0.293910 *  0.273440 *   4.00000    1.000000    
      9 Ge    c    0.339810 *  0.706090 *  0.273440 *   4.00000    1.000000    
     10 Ge    c    0.839810 *  0.293910 *  0.726560 *   4.00000    1.000000    
     11 Ge    c    0.660190 *  0.706090 *  0.726560 *   4.00000    1.000000    
     12 Ge    c    0.839810 *  0.706090 *  0.726560 *   4.00000    1.000000    
     13 Ge    c    0.660190 *  0.293910 *  0.726560 *   4.00000    1.000000    
     14 Ge    c    0.160190 *  0.706090 *  0.273440 *   4.00000    1.000000    
     15 Ge    c    0.339810 *  0.293910 *  0.273440 *   4.00000    1.000000    
     16 Ge    c    0.660660 *  0.294090 *  0.017440 *   4.00000    1.000000    
     17 Ge    c    0.839340 *  0.705910 *  0.017440 *   4.00000    1.000000    
     18 Ge    c    0.339340 *  0.294090 *  0.982560 *   4.00000    1.000000    
     19 Ge    c    0.160660 *  0.705910 *  0.982560 *   4.00000    1.000000    
     20 Ge    c    0.339340 *  0.705910 *  0.982560 *   4.00000    1.000000    
     21 Ge    c    0.839340 *  0.294090 *  0.017440 *   4.00000    1.000000    
     22 Si    c    0.552090 *  0.000000 *  0.627730 *   4.00000    1.000000    
     23 Si    c    0.160660 *  0.294090 *  0.982560 *   4.00000    1.000000    
     24 Si    c    0.660660 *  0.705910 *  0.017440 *   4.00000    1.000000    
     25 O1    c    0.106570 *  0.174340 *  0.366200 *   1.73396    1.000000    
     26 O1    c    0.393430 *  0.825660 *  0.366200 *   1.73396    1.000000    
     27 O1    c    0.893430 *  0.174340 *  0.633800 *   1.73396    1.000000    
     28 O3    c    0.606570 *  0.825660 *  0.633800 *   1.33043    1.000000    
     29 O1    c    0.893430 *  0.825660 *  0.633800 *   1.73396    1.000000    
     30 O3    c    0.606570 *  0.174340 *  0.633800 *   1.33043    1.000000    
     31 O1    c    0.106570 *  0.825660 *  0.366200 *   1.73396    1.000000    
     32 O1    c    0.393430 *  0.174340 *  0.366200 *   1.73396    1.000000    
     33 O1    c    0.000000 *  0.000000 *  0.500000 *   1.73396    1.000000    
     34 O3    c    0.500000 *  0.000000 *  0.500000 *   1.33043    1.000000    
     35 O1    c    0.994520 *  0.000000 *  0.250840 *   1.73396    1.000000    
     36 O1    c    0.505480 *  0.000000 *  0.250840 *   1.73396    1.000000    
     37 O1    c    0.005480 *  0.000000 *  0.749160 *   1.73396    1.000000    
     38 O3    c    0.494520 *  0.000000 *  0.749160 *   1.33043    1.000000    
     39 O1    c    0.610230 *  0.175520 *  0.115390 *   1.73396    1.000000    
     40 O1    c    0.889770 *  0.824480 *  0.115390 *   1.73396    1.000000    
     41 O1    c    0.389770 *  0.175520 *  0.884610 *   1.73396    1.000000    
     42 O1    c    0.110230 *  0.824480 *  0.884610 *   1.73396    1.000000    
     43 O1    c    0.389770 *  0.824480 *  0.884610 *   1.73396    1.000000    
     44 O3    c    0.110230 *  0.175520 *  0.884610 *   1.33043    1.000000    
     45 O3    c    0.610230 *  0.824480 *  0.115390 *   1.33043    1.000000    
     46 O1    c    0.889770 *  0.175520 *  0.115390 *   1.73396    1.000000    
     47 O1    c    0.500000 *  0.000000 *  0.000000 *   1.73396    1.000000    
     48 O1    c    0.000000 *  0.000000 *  0.000000 *   1.73396    1.000000    
     49 O1    c    0.151750 *  0.500000 *  0.313330 *   1.73396    1.000000    
     50 O1    c    0.348250 *  0.500000 *  0.313330 *   1.73396    1.000000    
     51 O1    c    0.848250 *  0.500000 *  0.686670 *   1.73396    1.000000    
     52 O1    c    0.651750 *  0.500000 *  0.686670 *   1.73396    1.000000    
     53 O1    c    0.250000 *  0.234950 *  0.285720 *   1.73396    1.000000    
     54 O1    c    0.250000 *  0.765050 *  0.285720 *   1.73396    1.000000    
     55 O1    c    0.750000 *  0.234950 *  0.714280 *   1.73396    1.000000    
     56 O1    c    0.750000 *  0.765050 *  0.714280 *   1.73396    1.000000    
     57 O3    c    0.131410 *  0.268650 *  0.127790 *   1.33043    1.000000    
     58 O1    c    0.368590 *  0.731350 *  0.127790 *   1.73396    1.000000    
     59 O1    c    0.868590 *  0.268650 *  0.872210 *   1.73396    1.000000    
     60 O3    c    0.631410 *  0.731350 *  0.872210 *   1.33043    1.000000    
     61 O1    c    0.868590 *  0.731350 *  0.872210 *   1.73396    1.000000    
     62 O1    c    0.631410 *  0.268650 *  0.872210 *   1.73396    1.000000    
     63 O1    c    0.131410 *  0.731350 *  0.127790 *   1.73396    1.000000    
     64 O1    c    0.368590 *  0.268650 *  0.127790 *   1.73396    1.000000    
     65 O3    c    0.653920 *  0.500000 *  0.058200 *   1.33043    1.000000    
     66 O1    c    0.846080 *  0.500000 *  0.058200 *   1.73396    1.000000    
     67 O1    c    0.346080 *  0.500000 *  0.941800 *   1.73396    1.000000    
     68 O3    c    0.153920 *  0.500000 *  0.941800 *   1.33043    1.000000    
     69 O1    c    0.750000 *  0.231060 *  0.027050 *   1.73396    1.000000    
     70 O3    c    0.750000 *  0.768940 *  0.027050 *   1.33043    1.000000    
     71 O3    c    0.250000 *  0.231060 *  0.972950 *   1.33043    1.000000    
     72 O1    c    0.250000 *  0.768940 *  0.972950 *   1.73396    1.000000    
     73 O1    s    0.106570 *  0.174340 *  0.366200 *  -3.73396    1.000000    
     74 O1    s    0.393430 *  0.825660 *  0.366200 *  -3.73396    1.000000    
     75 O1    s    0.893430 *  0.174340 *  0.633800 *  -3.73396    1.000000    
     76 O3    s    0.606570 *  0.825660 *  0.633800 *  -3.33043    1.000000    
     77 O1    s    0.893430 *  0.825660 *  0.633800 *  -3.73396    1.000000    
     78 O3    s    0.606570 *  0.174340 *  0.633800 *  -3.33043    1.000000    
     79 O1    s    0.106570 *  0.825660 *  0.366200 *  -3.73396    1.000000    
     80 O1    s    0.393430 *  0.174340 *  0.366200 *  -3.73396    1.000000    
     81 O1    s    0.000000 *  0.000000 *  0.500000 *  -3.73396    1.000000    
     82 O3    s    0.500000 *  0.000000 *  0.500000 *  -3.33043    1.000000    
     83 O1    s    0.994520 *  0.000000 *  0.250840 *  -3.73396    1.000000    
     84 O1    s    0.505480 *  0.000000 *  0.250840 *  -3.73396    1.000000    
     85 O1    s    0.005480 *  0.000000 *  0.749160 *  -3.73396    1.000000    
     86 O3    s    0.494520 *  0.000000 *  0.749160 *  -3.33043    1.000000    
     87 O1    s    0.610230 *  0.175520 *  0.115390 *  -3.73396    1.000000    
     88 O1    s    0.889770 *  0.824480 *  0.115390 *  -3.73396    1.000000    
     89 O1    s    0.389770 *  0.175520 *  0.884610 *  -3.73396    1.000000    
     90 O1    s    0.110230 *  0.824480 *  0.884610 *  -3.73396    1.000000    
     91 O1    s    0.389770 *  0.824480 *  0.884610 *  -3.73396    1.000000    
     92 O3    s    0.110230 *  0.175520 *  0.884610 *  -3.33043    1.000000    
     93 O3    s    0.610230 *  0.824480 *  0.115390 *  -3.33043    1.000000    
     94 O1    s    0.889770 *  0.175520 *  0.115390 *  -3.73396    1.000000    
     95 O1    s    0.500000 *  0.000000 *  0.000000 *  -3.73396    1.000000    
     96 O1    s    0.000000 *  0.000000 *  0.000000 *  -3.73396    1.000000    
     97 O1    s    0.151750 *  0.500000 *  0.313330 *  -3.73396    1.000000    
     98 O1    s    0.348250 *  0.500000 *  0.313330 *  -3.73396    1.000000    
     99 O1    s    0.848250 *  0.500000 *  0.686670 *  -3.73396    1.000000    
    100 O1    s    0.651750 *  0.500000 *  0.686670 *  -3.73396    1.000000    
    101 O1    s    0.250000 *  0.234950 *  0.285720 *  -3.73396    1.000000    
    102 O1    s    0.250000 *  0.765050 *  0.285720 *  -3.73396    1.000000    
    103 O1    s    0.750000 *  0.234950 *  0.714280 *  -3.73396    1.000000    
    104 O1    s    0.750000 *  0.765050 *  0.714280 *  -3.73396    1.000000    
    105 O3    s    0.131410 *  0.268650 *  0.127790 *  -3.33043    1.000000    
    106 O1    s    0.368590 *  0.731350 *  0.127790 *  -3.73396    1.000000    
    107 O1    s    0.868590 *  0.268650 *  0.872210 *  -3.73396    1.000000    
    108 O3    s    0.631410 *  0.731350 *  0.872210 *  -3.33043    1.000000    
    109 O1    s    0.868590 *  0.731350 *  0.872210 *  -3.73396    1.000000    
    110 O1    s    0.631410 *  0.268650 *  0.872210 *  -3.73396    1.000000    
    111 O1    s    0.131410 *  0.731350 *  0.127790 *  -3.73396    1.000000    
    112 O1    s    0.368590 *  0.268650 *  0.127790 *  -3.73396    1.000000    
    113 O3    s    0.653920 *  0.500000 *  0.058200 *  -3.33043    1.000000    
    114 O1    s    0.846080 *  0.500000 *  0.058200 *  -3.73396    1.000000    
    115 O1    s    0.346080 *  0.500000 *  0.941800 *  -3.73396    1.000000    
    116 O3    s    0.153920 *  0.500000 *  0.941800 *  -3.33043    1.000000    
    117 O1    s    0.750000 *  0.231060 *  0.027050 *  -3.73396    1.000000    
    118 O3    s    0.750000 *  0.768940 *  0.027050 *  -3.33043    1.000000    
    119 O3    s    0.250000 *  0.231060 *  0.972950 *  -3.33043    1.000000    
    120 O1    s    0.250000 *  0.768940 *  0.972950 *  -3.73396    1.000000    
--------------------------------------------------------------------------------



********************************************************************************
*  General input information                                                   *
********************************************************************************

  Species output for all configurations : 

--------------------------------------------------------------------------------
  Species    Type    Atomic    Atomic    Charge       Radii (Angs)     Library
                     Number     Mass       (e)     Cova   Ionic  VDW   Symbol
--------------------------------------------------------------------------------
    Ge       Core       32      72.61   4.000000   1.170  0.000  1.750 Ge       
    Si       Core       14      28.09   4.000000   1.200  0.000  2.100 Si       
    O1       Core        8      16.00   1.733957   0.730  0.000  1.360 O1       
    O2       Core        8      16.00   0.870733   0.730  0.000  0.000 O2       
    O3       Core        8      16.00   1.330431   0.730  0.000  1.360 O3       
    O1       Shell       8       0.00  -3.733957   0.730  0.000  0.000 O1       
    O2       Shell       8       0.00  -2.870733   0.730  0.000  0.000 O2       
    O3       Shell       8       0.00  -3.330431   0.730  0.000  0.000 O3       
--------------------------------------------------------------------------------


  Lattice summation method               =    Ewald          (3-D)
                                         =    Parry          (2-D)
                                         =    Saunders et al (1-D)
  Accuracy factor for lattice sums       =   12.000


  Analytic derivatives to be used

  Time limit = Infinity

  Maximum range for interatomic potentials =    100000.000000 Angstroms

  General interatomic potentials :

--------------------------------------------------------------------------------
Atom  Types   Potential      Parameter       Value         Units   Cutoffs(Ang)
  1     2                                                            Min /  Max 
--------------------------------------------------------------------------------
Si   c O1   s Buckingham    Buckingham A     1315.2478    eV        0.000 16.000
                            Buckingham rho  0.31775900    Ang       
                            Buckingham C     10.141118    eV*Ang^6  
--------------------------------------------------------------------------------
Si   c O2   s Buckingham    Buckingham A     1315.2478    eV        0.000 16.000
                            Buckingham rho  0.31775900    Ang       
                            Buckingham C     10.141118    eV*Ang^6  
--------------------------------------------------------------------------------
Si   c O3   s Buckingham    Buckingham A     1315.2478    eV        0.000 16.000
                            Buckingham rho  0.31775900    Ang       
                            Buckingham C     10.141118    eV*Ang^6  
--------------------------------------------------------------------------------
Ge   c O1   s Buckingham    Buckingham A     1497.3996    eV        0.000 16.000
                            Buckingham rho  0.32564600    Ang       
                            Buckingham C     16.808599    eV*Ang^6  
--------------------------------------------------------------------------------
Ge   c O2   s Buckingham    Buckingham A     1497.3996    eV        0.000 16.000
                            Buckingham rho  0.32564600    Ang       
                            Buckingham C     16.808599    eV*Ang^6  
--------------------------------------------------------------------------------
Ge   c O3   s Buckingham    Buckingham A     1497.3996    eV        0.000 16.000
                            Buckingham rho  0.32564600    Ang       
                            Buckingham C     16.808599    eV*Ang^6  
--------------------------------------------------------------------------------
O1   s O1   s Buckingham    Buckingham A     22764.000    eV        0.000 16.000
                            Buckingham rho  0.14900000    Ang       
                            Buckingham C     10.937044    eV*Ang^6  
--------------------------------------------------------------------------------
O1   s O2   s Buckingham    Buckingham A     22764.000    eV        0.000 16.000
                            Buckingham rho  0.14900000    Ang       
                            Buckingham C     10.937044    eV*Ang^6  
--------------------------------------------------------------------------------
O1   s O3   s Buckingham    Buckingham A     22764.000    eV        0.000 16.000
                            Buckingham rho  0.14900000    Ang       
                            Buckingham C     10.937044    eV*Ang^6  
--------------------------------------------------------------------------------
O2   s O2   s Buckingham    Buckingham A     22764.000    eV        0.000 16.000
                            Buckingham rho  0.14900000    Ang       
                            Buckingham C     10.937044    eV*Ang^6  
--------------------------------------------------------------------------------
O2   s O3   s Buckingham    Buckingham A     22764.000    eV        0.000 16.000
                            Buckingham rho  0.14900000    Ang       
                            Buckingham C     10.937044    eV*Ang^6  
--------------------------------------------------------------------------------
O3   s O3   s Buckingham    Buckingham A     22764.000    eV        0.000 16.000
                            Buckingham rho  0.14900000    Ang       
                            Buckingham C     10.937044    eV*Ang^6  
--------------------------------------------------------------------------------
O1   c O1   s Spring (c-s)  Spring k 2       180.31577    eV*Ang^-2 0.000  0.800
                            Spring k 4       0.0000000    eV*Ang^-4 
--------------------------------------------------------------------------------
O2   c O2   s Spring (c-s)  Spring k 2       75.969800    eV*Ang^-2 0.000  0.800
                            Spring k 4       0.0000000    eV*Ang^-4 
--------------------------------------------------------------------------------
O3   c O3   s Spring (c-s)  Spring k 2       128.14270    eV*Ang^-2 0.000  0.800
                            Spring k 4       0.0000000    eV*Ang^-4 
--------------------------------------------------------------------------------

  General Three-body potentials :

--------------------------------------------------------------------------------
  Atoms       Potential      Parameter       Value         Units   Cutoffs(Ang)
  1 / 2 / 3                                                          Min /  Max 
--------------------------------------------------------------------------------
Si    core    Harmonic      Three-body cnst  1.2614000    eV*rad^-2 0.000  1.900
O1    shel                  Three-body angl  109.47000    degrees   0.000  1.900
O1    shel                  Three-body k4    0.0000000    eV*rad^-4 0.000  3.500
                            Three-body k3    0.0000000    eV*rad^-3 
--------------------------------------------------------------------------------
Si    core    Harmonic      Three-body cnst  1.2614000    eV*rad^-2 0.000  1.900
O1    shel                  Three-body angl  109.47000    degrees   0.000  1.900
õ(1   shel                  Three-body k4    0.0000000    eV*rad^-4 0.000  3.500
                            Three-body k3    0.0000000    eV*rad^-3 
--------------------------------------------------------------------------------
Si    core    Harmonic      Three-body cnst  1.2614000    eV*rad^-2 0.000  1.900
õ(1   shel                  Three-body angl  109.47000    degrees   0.000  1.900
õ(1   shel                  Three-body k4    0.0000000    eV*rad^-4 0.000  3.500
                            Three-body k3    0.0000000    eV*rad^-3 
--------------------------------------------------------------------------------
Si    core    Harmonic      Three-body cnst  1.2614000    eV*rad^-2 0.000  1.900
O1    shel                  Three-body angl  109.47000    degrees   0.000  1.900
O2    shel                  Three-body k4    0.0000000    eV*rad^-4 0.000  3.500
                            Three-body k3    0.0000000    eV*rad^-3 
--------------------------------------------------------------------------------
Si    core    Harmonic      Three-body cnst  1.2614000    eV*rad^-2 0.000  1.900
O1    shel                  Three-body angl  109.47000    degrees   0.000  1.900
õ(2   shel                  Three-body k4    0.0000000    eV*rad^-4 0.000  3.500
                            Three-body k3    0.0000000    eV*rad^-3 
--------------------------------------------------------------------------------
Si    core    Harmonic      Three-body cnst  1.2614000    eV*rad^-2 0.000  1.900
O2    shel                  Three-body angl  109.47000    degrees   0.000  1.900
õ(1   shel                  Three-body k4    0.0000000    eV*rad^-4 0.000  3.500
                            Three-body k3    0.0000000    eV*rad^-3 
--------------------------------------------------------------------------------
Si    core    Harmonic      Three-body cnst  1.2614000    eV*rad^-2 0.000  1.900
õ(1   shel                  Three-body angl  109.47000    degrees   0.000  1.900
õ(2   shel                  Three-body k4    0.0000000    eV*rad^-4 0.000  3.500
                            Three-body k3    0.0000000    eV*rad^-3 
--------------------------------------------------------------------------------
Si    core    Harmonic      Three-body cnst  1.2614000    eV*rad^-2 0.000  1.900
O2    shel                  Three-body angl  109.47000    degrees   0.000  1.900
O2    shel                  Three-body k4    0.0000000    eV*rad^-4 0.000  3.500
                            Three-body k3    0.0000000    eV*rad^-3 
--------------------------------------------------------------------------------
Si    core    Harmonic      Three-body cnst  1.2614000    eV*rad^-2 0.000  1.900
O2    shel                  Three-body angl  109.47000    degrees   0.000  1.900
õ(2   shel                  Three-body k4    0.0000000    eV*rad^-4 0.000  3.500
                            Three-body k3    0.0000000    eV*rad^-3 
--------------------------------------------------------------------------------
Si    core    Harmonic      Three-body cnst  1.2614000    eV*rad^-2 0.000  1.900
õ(2   shel                  Three-body angl  109.47000    degrees   0.000  1.900
õ(2   shel                  Three-body k4    0.0000000    eV*rad^-4 0.000  3.500
                            Three-body k3    0.0000000    eV*rad^-3 
--------------------------------------------------------------------------------

********************************************************************************
*  Output for configuration   1 : c00150.vasp                                  *
********************************************************************************


  Components of energy : 

--------------------------------------------------------------------------------
  Interatomic potentials     =         904.60214373 eV    
  Three-body potentials      =           0.00000000 eV    
  Monopole - monopole (real) =       -2676.00317478 eV    
  Monopole - monopole (recip)=       -1115.35404472 eV    
  Monopole - monopole (total)=       -3791.35721950 eV    
--------------------------------------------------------------------------------
  Total lattice energy       =       -2886.75507578 eV    
--------------------------------------------------------------------------------
  Total lattice energy       =         -278527.7367 kJ/(mole unit cells)
--------------------------------------------------------------------------------


  Number of variables =      363

  Maximum number of calculations  =          1000
  Maximum Hessian update interval =            10
  Maximum step size               =   0.100000000
  Maximum parameter tolerance     =   0.000010000
  Maximum function  tolerance     =   0.000010000
  Maximum gradient  tolerance     =   0.001000000
  Maximum gradient  component     =   0.010000000

  Symmetry not applied to optimisation

  Cell parameters to be optimised using strains

  Newton-Raphson optimiser to be used

  BFGS hessian update to be used

  Lower half triangular hessian to be used

  Minimiser to switch to RFO
  When gradient norm is less than     0.050000

  Dumpfile to be written after every cycle

  Start of bulk optimisation :

  Cycle:      0 Energy:     -2886.755076  Gnorm:      5.929896  CPU:    0.118
  ** Hessian calculated **
  Cycle:      1 Energy:     -2931.491274  Gnorm:      1.437890  CPU:    0.272
  ** Hessian calculated **
  Cycle:      2 Energy:     -2936.615803  Gnorm:      0.799044  CPU:    0.503
  Cycle:      3 Energy:     -2937.537854  Gnorm:      0.360349  CPU:    0.610
  Cycle:      4 Energy:     -2937.954377  Gnorm:      0.291664  CPU:    0.737
  Cycle:      5 Energy:     -2938.467306  Gnorm:      0.243939  CPU:    0.864
  Cycle:      6 Energy:     -2939.020793  Gnorm:      0.207029  CPU:    0.990
  Cycle:      7 Energy:     -2939.322205  Gnorm:      0.150071  CPU:    1.097
  Cycle:      8 Energy:     -2939.425905  Gnorm:      0.103418  CPU:    1.204
  Cycle:      9 Energy:     -2939.461743  Gnorm:      0.076817  CPU:    1.310
  Cycle:     10 Energy:     -2939.494491  Gnorm:      0.069928  CPU:    1.437
  Cycle:     11 Energy:     -2939.524031  Gnorm:      0.070277  CPU:    1.563
  ** Hessian calculated **
  Cycle:     12 Energy:     -2939.532945  Gnorm:      0.069418  CPU:    1.792
  Cycle:     13 Energy:     -2939.547070  Gnorm:      0.067990  CPU:    1.937
  Cycle:     14 Energy:     -2939.565057  Gnorm:      0.065959  CPU:    2.085
  Cycle:     15 Energy:     -2939.579975  Gnorm:      0.063841  CPU:    2.211
  Cycle:     16 Energy:     -2939.587647  Gnorm:      0.061804  CPU:    2.336
  ** Hessian calculated **
  Cycle:     17 Energy:     -2939.635208  Gnorm:      0.059798  CPU:    2.564
  Cycle:     18 Energy:     -2939.706982  Gnorm:      0.056883  CPU:    2.689
  Cycle:     19 Energy:     -2939.816559  Gnorm:      0.052415  CPU:    2.815
  ** Hessian calculated **
  Cycle:     20 Energy:     -2939.824401  Gnorm:      0.036428  CPU:    3.022
  ** Hessian has required structure
  Cycle:     21 Energy:     -2939.830607  Gnorm:      0.080507  CPU:    3.172
  ** Hessian has required structure
  Cycle:     22 Energy:     -2939.839558  Gnorm:      0.070123  CPU:    3.339
  ** Hessian has required structure
  Cycle:     23 Energy:     -2939.844317  Gnorm:      0.064692  CPU:    3.486
  ** Hessian has required structure
  Cycle:     24 Energy:     -2939.846336  Gnorm:      0.055034  CPU:    3.634
  ** Hessian has required structure
  Cycle:     25 Energy:     -2939.848625  Gnorm:      0.071434  CPU:    3.802
  ** Hessian has required structure
  Cycle:     26 Energy:     -2939.852475  Gnorm:      0.078096  CPU:    3.969
  ** Hessian has required structure
  Cycle:     27 Energy:     -2939.858381  Gnorm:      0.061374  CPU:    4.116
  ** Hessian has required structure
  Cycle:     28 Energy:     -2939.860282  Gnorm:      0.048524  CPU:    4.267
  ** Hessian has required structure
  Cycle:     29 Energy:     -2939.861245  Gnorm:      0.051697  CPU:    4.414
  ** Hessian has wrong structure
  ** Imaginary eigenvectors =   4
  Cycle:     30 Energy:     -2939.898385  Gnorm:      0.055438  CPU:    4.909
  ** Hessian has wrong structure
  ** Imaginary eigenvectors =   4
  Cycle:     31 Energy:     -2939.990939  Gnorm:      0.105356  CPU:    5.345
  ** Hessian has wrong structure
  ** Imaginary eigenvectors =   1
  ** Hessian has wrong structure
  ** Imaginary eigenvectors =   1
  Cycle:     32 Energy:     -2940.080181  Gnorm:      0.122758  CPU:    5.854
  ** Hessian has required structure
  ** Hessian has required structure
  Cycle:     33 Energy:     -2940.392161  Gnorm:      0.080557  CPU:    6.195
  ** Hessian has required structure
  Cycle:     34 Energy:     -2940.529433  Gnorm:      0.052699  CPU:    6.372
  ** Hessian has required structure
  Cycle:     35 Energy:     -2940.602056  Gnorm:      0.048246  CPU:    6.558
  ** Hessian has required structure
  Cycle:     36 Energy:     -2940.639136  Gnorm:      0.026816  CPU:    6.728
  ** Hessian has required structure
  Cycle:     37 Energy:     -2940.656369  Gnorm:      0.031156  CPU:    6.890
  ** Hessian has required structure
  Cycle:     38 Energy:     -2940.665274  Gnorm:      0.022721  CPU:    7.049
  ** Hessian has required structure
  Cycle:     39 Energy:     -2940.668122  Gnorm:      0.014590  CPU:    7.211
  ** Hessian has required structure
  Cycle:     40 Energy:     -2940.669706  Gnorm:      0.010018  CPU:    7.374
  ** Hessian has required structure
  Cycle:     41 Energy:     -2940.670351  Gnorm:      0.006422  CPU:    7.539
  ** Hessian has required structure
  Cycle:     42 Energy:     -2940.670622  Gnorm:      0.003050  CPU:    7.681
  ** Hessian has required structure
  Cycle:     43 Energy:     -2940.670782  Gnorm:      0.001527  CPU:    7.960
  ** Hessian has required structure
  Cycle:     44 Energy:     -2940.670821  Gnorm:      0.000765  CPU:    8.148
  ** Hessian has required structure
  Cycle:     45 Energy:     -2940.670831  Gnorm:      0.000459  CPU:    8.314
  ** Hessian has required structure
  Cycle:     46 Energy:     -2940.670833  Gnorm:      0.000321  CPU:    8.461
  ** Hessian has required structure
  Cycle:     47 Energy:     -2940.670836  Gnorm:      0.000193  CPU:    8.627
  ** Hessian has required structure
  Cycle:     48 Energy:     -2940.670836  Gnorm:      0.000135  CPU:    8.774
  ** Hessian has required structure
  Cycle:     49 Energy:     -2940.670836  Gnorm:      0.000095  CPU:    8.921
  ** Hessian has required structure


  **** Optimisation achieved ****


  Final energy =   -2940.67083640 eV      
  Final Gnorm  =       0.00006616

  Components of energy : 

--------------------------------------------------------------------------------
  Interatomic potentials     =         776.19381233 eV    
  Three-body potentials      =           0.00000000 eV    
  Monopole - monopole (real) =       -1521.72146186 eV    
  Monopole - monopole (recip)=       -2195.14318687 eV    
  Monopole - monopole (total)=       -3716.86464873 eV    
--------------------------------------------------------------------------------
  Total lattice energy       =       -2940.67083640 eV    
--------------------------------------------------------------------------------
  Total lattice energy       =         -283729.7834 kJ/(mole unit cells)
--------------------------------------------------------------------------------

  Final fractional coordinates of atoms :

--------------------------------------------------------------------------------
   No.  Atomic        x           y          z          Radius
        Label       (Frac)      (Frac)     (Frac)       (Angs) 
--------------------------------------------------------------------------------
     1  Ge    c     0.052090    0.000000    0.372270    0.000000
     2  Ge    c     0.450916    0.052171    0.375729    0.000000
     3  Ge    c     0.946834    0.062843    0.620922    0.000000
     4  Ge    c     0.551068    0.998156    0.114667    0.000000
     5  Ge    c     0.950463    0.067139    0.115820    0.000000
     6  Ge    c     0.443723    0.053987    0.859285    0.000000
     7  Ge    c     0.055788    0.003101    0.867448    0.000000
     8  Ge    c     0.176148    0.283821    0.295861    0.000000
     9  Ge    c     0.327770    0.770396    0.293741    0.000000
    10  Ge    c     0.850128    0.372081    0.735374    0.000000
    11  Ge    c     0.643215    0.697016    0.738202    0.000000
    12  Ge    c     0.824401    0.773368    0.732179    0.000000
    13  Ge    c     0.667854    0.293742    0.734386    0.000000
    14  Ge    c     0.146788    0.685662    0.299311    0.000000
    15  Ge    c     0.356182    0.366339    0.296114    0.000000
    16  Ge    c     0.669910    0.298802    0.050567    0.000000
    17  Ge    c     0.826361    0.776665    0.048926    0.000000
    18  Ge    c     0.351530    0.366493    0.979453    0.000000
    19  Ge    c     0.142597    0.682134    0.985074    0.000000
    20  Ge    c     0.324798    0.767578    0.977253    0.000000
    21  Ge    c     0.850600    0.378118    0.055572    0.000000
    22  Si    c     0.551770    0.003492    0.623050    0.000000
    23  Si    c     0.172468    0.288452    0.985973    0.000000
    24  Si    c     0.649762    0.693303    0.048416    0.000000
    25  O1    c     0.126955    0.144553    0.392523    0.000000
    26  O1    c     0.375318    0.910973    0.395152    0.000000
    27  O1    c     0.917748    0.265274    0.651699    0.000000
    28  O3    c     0.574141    0.812726    0.661495    0.000000
    29  O1    c     0.871590    0.922996    0.641087    0.000000
    30  O3    c     0.621706    0.135788    0.644115    0.000000
    31  O1    c     0.085115    0.798332    0.393305    0.000000
    32  O1    c     0.420706    0.256971    0.388043    0.000000
    33  O1    c     0.974348    0.046962    0.460032    0.000000
    34  O3    c     0.528709    0.008967    0.470791    0.000000
    35  O1    c     0.026269    0.019116    0.209075    0.000000
    36  O1    c     0.476763    0.018430    0.215302    0.000000
    37  O1    c     0.027767    0.015188    0.706732    0.000000
    38  O3    c     0.476465    0.054770    0.700018    0.000000
    39  O1    c     0.617531    0.160642    0.143633    0.000000
    40  O1    c     0.874221    0.926265    0.139567    0.000000
    41  O1    c     0.413673    0.256710    0.887891    0.000000
    42  O1    c     0.079585    0.794675    0.894203    0.000000
    43  O1    c     0.367334    0.916103    0.878233    0.000000
    44  O3    c     0.132128    0.142172    0.898759    0.000000
    45  O3    c     0.592396    0.800441    0.133136    0.000000
    46  O1    c     0.916511    0.267613    0.141738    0.000000
    47  O1    c     0.518937    0.002251    0.955704    0.000000
    48  O1    c     0.977727    0.056316    0.954590    0.000000
    49  O1    c     0.161094    0.486164    0.356660    0.000000
    50  O1    c     0.343041    0.567148    0.352222    0.000000
    51  O1    c     0.839167    0.571981    0.671995    0.000000
    52  O1    c     0.649484    0.494517    0.675474    0.000000
    53  O1    c     0.271234    0.249163    0.299130    0.000000
    54  O1    c     0.231885    0.800843    0.293207    0.000000
    55  O1    c     0.763663    0.262651    0.728788    0.000000
    56  O1    c     0.728427    0.806191    0.726155    0.000000
    57  O3    c     0.143398    0.276924    0.134604    0.000000
    58  O1    c     0.358907    0.784972    0.134788    0.000000
    59  O1    c     0.877831    0.395543    0.895099    0.000000
    60  O3    c     0.619639    0.667566    0.900205    0.000000
    61  O1    c     0.857433    0.787895    0.890209    0.000000
    62  O1    c     0.637508    0.276255    0.892373    0.000000
    63  O1    c     0.111065    0.673010    0.142317    0.000000
    64  O1    c     0.385950    0.376093    0.136835    0.000000
    65  O3    c     0.661029    0.507339    0.107734    0.000000
    66  O1    c     0.842931    0.579431    0.115548    0.000000
    67  O1    c     0.343292    0.566980    0.918566    0.000000
    68  O3    c     0.153246    0.474707    0.929403    0.000000
    69  O1    c     0.765206    0.263472    0.056770    0.000000
    70  O3    c     0.729167    0.802050    0.042948    0.000000
    71  O3    c     0.262625    0.264217    0.985328    0.000000
    72  O1    c     0.228596    0.790453    0.979061    0.000000
    73  O1    s     0.125287    0.144811    0.383527    0.000000
    74  O1    s     0.377291    0.910701    0.386009    0.000000
    75  O1    s     0.914812    0.258025    0.655714    0.000000
    76  O3    s     0.577556    0.821670    0.663990    0.000000
    77  O1    s     0.873721    0.922062    0.646735    0.000000
    78  O3    s     0.618500    0.135504    0.649401    0.000000
    79  O1    s     0.087143    0.805002    0.384979    0.000000
    80  O1    s     0.418252    0.249675    0.380426    0.000000
    81  O1    s     0.978521    0.044413    0.464689    0.000000
    82  O3    s     0.524536    0.011975    0.477491    0.000000
    83  O1    s     0.021982    0.021615    0.212981    0.000000
    84  O1    s     0.480980    0.019257    0.218593    0.000000
    85  O1    s     0.023912    0.017803    0.712239    0.000000
    86  O3    s     0.480981    0.049880    0.704903    0.000000
    87  O1    s     0.616785    0.159625    0.134337    0.000000
    88  O1    s     0.875845    0.924377    0.130672    0.000000
    89  O1    s     0.411035    0.250071    0.892963    0.000000
    90  O1    s     0.082653    0.801332    0.899178    0.000000
    91  O1    s     0.369881    0.915131    0.884442    0.000000
    92  O3    s     0.130090    0.145738    0.904982    0.000000
    93  O3    s     0.594943    0.804716    0.123427    0.000000
    94  O1    s     0.914057    0.261311    0.133445    0.000000
    95  O1    s     0.515513    0.005962    0.960023    0.000000
    96  O1    s     0.981625    0.053104    0.959504    0.000000
    97  O1    s     0.161047    0.487427    0.347829    0.000000
    98  O1    s     0.342982    0.565825    0.343640    0.000000
    99  O1    s     0.838913    0.571775    0.681094    0.000000
   100  O1    s     0.650327    0.494996    0.684314    0.000000
   101  O1    s     0.269978    0.260072    0.298645    0.000000
   102  O1    s     0.232953    0.790335    0.293665    0.000000
   103  O1    s     0.762763    0.272925    0.729689    0.000000
   104  O1    s     0.729101    0.795444    0.727527    0.000000
   105  O3    s     0.148527    0.278499    0.132799    0.000000
   106  O1    s     0.354165    0.782657    0.134663    0.000000
   107  O1    s     0.873705    0.392481    0.894784    0.000000
   108  O3    s     0.624312    0.672263    0.901378    0.000000
   109  O1    s     0.852730    0.786010    0.890085    0.000000
   110  O1    s     0.642157    0.279200    0.892208    0.000000
   111  O1    s     0.116045    0.674632    0.141898    0.000000
   112  O1    s     0.381212    0.374648    0.136906    0.000000
   113  O3    s     0.660594    0.510000    0.097708    0.000000
   114  O1    s     0.842323    0.578129    0.106095    0.000000
   115  O1    s     0.342581    0.566114    0.927536    0.000000
   116  O3    s     0.154184    0.473402    0.938815    0.000000
   117  O1    s     0.764128    0.274326    0.056195    0.000000
   118  O3    s     0.729436    0.790134    0.043885    0.000000
   119  O3    s     0.260763    0.274369    0.984954    0.000000
   120  O1    s     0.229502    0.780525    0.979380    0.000000
--------------------------------------------------------------------------------

  Final Cartesian lattice vectors (Angstroms) :

       17.606569   -0.270425   -0.085202
       -0.119844    7.843777   -0.012863
       -0.052621   -0.017950   10.243615


  Final cell parameters and derivatives :

--------------------------------------------------------------------------------
       a           17.608851 Angstrom     dE/de1(xx)    -0.001761 eV/strain
       b            7.844703 Angstrom     dE/de2(yy)    -0.000498 eV/strain
       c           10.243766 Angstrom     dE/de3(zz)    -0.000776 eV/strain
       alpha       90.189836 Degrees      dE/de4(yz)    -0.000297 eV/strain
       beta        90.569980 Degrees      dE/de5(xz)    -0.000214 eV/strain
       gamma       91.754827 Degrees      dE/de6(xy)     0.000049 eV/strain
--------------------------------------------------------------------------------

  Primitive cell volume =          1414.292037 Angs**3

  Density of cell =      2.791006 g/cm**3

  Non-primitive cell volume =          1414.292037 Angs**3


  Final internal derivatives :

--------------------------------------------------------------------------------
   No.  Atomic          a             b             c           Radius
        Label          (eV)          (eV)          (eV)        (eV/Angs)
--------------------------------------------------------------------------------
      1 Ge    c       0.000000      0.000000      0.000000      0.000000
      2 Ge    c       0.000565      0.000169     -0.001365      0.000000
      3 Ge    c       0.000513     -0.001130     -0.001472      0.000000
      4 Ge    c      -0.002306     -0.000113     -0.000306      0.000000
      5 Ge    c       0.000032      0.000149      0.001405      0.000000
      6 Ge    c       0.001542      0.000330      0.000789      0.000000
      7 Ge    c       0.002500      0.001144     -0.000934      0.000000
      8 Ge    c      -0.000441     -0.000638     -0.000506      0.000000
      9 Ge    c       0.000627      0.000087      0.000256      0.000000
     10 Ge    c      -0.004109      0.000988     -0.000139      0.000000
     11 Ge    c       0.000311      0.000064     -0.000857      0.000000
     12 Ge    c       0.000073     -0.000102     -0.000208      0.000000
     13 Ge    c      -0.000423     -0.000271     -0.000276      0.000000
     14 Ge    c       0.001041     -0.000470      0.000126      0.000000
     15 Ge    c       0.000392     -0.000353      0.001112      0.000000
     16 Ge    c       0.000048     -0.000215      0.000630      0.000000
     17 Ge    c      -0.000421      0.000798      0.000914      0.000000
     18 Ge    c       0.000307     -0.000070      0.000252      0.000000
     19 Ge    c       0.001440     -0.000191      0.000320      0.000000
     20 Ge    c       0.000631      0.000306     -0.000263      0.000000
     21 Ge    c      -0.000807      0.000488      0.001360      0.000000
     22 Si    c       0.000191     -0.000989      0.001034      0.000000
     23 Si    c      -0.002024     -0.000463     -0.000659      0.000000
     24 Si    c      -0.000211      0.000623      0.002279      0.000000
     25 O1    c       0.002438      0.001256     -0.000603      0.000000
     26 O1    c      -0.000058      0.000196     -0.001116      0.000000
     27 O1    c       0.002631      0.001216     -0.001336      0.000000
     28 O3    c      -0.001783      0.002120      0.000139      0.000000
     29 O1    c      -0.000788      0.000285     -0.000182      0.000000
     30 O3    c       0.001398      0.000465      0.000557      0.000000
     31 O1    c      -0.000756      0.000188      0.001236      0.000000
     32 O1    c      -0.000627     -0.000789     -0.001029      0.000000
     33 O1    c       0.007021     -0.001847      0.000646      0.000000
     34 O3    c      -0.003547      0.000832     -0.000644      0.000000
     35 O1    c      -0.003869      0.001733     -0.002948      0.000000
     36 O1    c       0.006763     -0.000727      0.000075      0.000000
     37 O1    c       0.004141     -0.000271      0.001467      0.000000
     38 O3    c       0.005813     -0.000610     -0.001744      0.000000
     39 O1    c      -0.003396     -0.002154     -0.002232      0.000000
     40 O1    c       0.000684      0.000328     -0.001192      0.000000
     41 O1    c       0.000041     -0.000148      0.000011      0.000000
     42 O1    c      -0.000171     -0.002712      0.000182      0.000000
     43 O1    c      -0.002234     -0.000900      0.001068      0.000000
     44 O3    c       0.003033      0.000299      0.001701      0.000000
     45 O3    c       0.001413      0.000511     -0.001757      0.000000
     46 O1    c       0.000727     -0.001542      0.000686      0.000000
     47 O1    c       0.000518      0.001827      0.003136      0.000000
     48 O1    c      -0.006306      0.000265      0.002452      0.000000
     49 O1    c       0.000275      0.001770      0.000157      0.000000
     50 O1    c       0.000164      0.000436     -0.000618      0.000000
     51 O1    c       0.000272     -0.000803     -0.000025      0.000000
     52 O1    c       0.000359      0.000923      0.000317      0.000000
     53 O1    c       0.000371     -0.000161      0.000001      0.000000
     54 O1    c      -0.000644      0.000050     -0.000337      0.000000
     55 O1    c       0.002148     -0.000025      0.000197      0.000000
     56 O1    c      -0.001664      0.000029      0.000062      0.000000
     57 O3    c       0.001107      0.000218      0.000923      0.000000
     58 O1    c       0.000460     -0.000056      0.000404      0.000000
     59 O1    c       0.003723     -0.000626      0.000196      0.000000
     60 O3    c      -0.000899     -0.000469     -0.001137      0.000000
     61 O1    c       0.000592      0.000349     -0.000084      0.000000
     62 O1    c      -0.000682     -0.000042     -0.000183      0.000000
     63 O1    c      -0.001383      0.000283     -0.000057      0.000000
     64 O1    c      -0.000274      0.000281     -0.001533      0.000000
     65 O3    c       0.000558     -0.000095     -0.000431      0.000000
     66 O1    c       0.000341     -0.002013      0.000003      0.000000
     67 O1    c       0.000112     -0.000345      0.000328      0.000000
     68 O3    c      -0.000163     -0.000190      0.000037      0.000000
     69 O1    c      -0.000432      0.000016     -0.000270      0.000000
     70 O3    c      -0.000677     -0.000917     -0.000039      0.000000
     71 O3    c       0.002163     -0.000294     -0.000004      0.000000
     72 O1    c      -0.000724      0.000444      0.000179      0.000000
     73 O1    s      -0.001868     -0.000368      0.001069      0.000000
     74 O1    s       0.001422      0.000035      0.000770      0.000000
     75 O1    s      -0.001354      0.000100     -0.000568      0.000000
     76 O3    s       0.000140     -0.000812     -0.000036      0.000000
     77 O1    s      -0.000761     -0.000662     -0.000271      0.000000
     78 O3    s      -0.002341     -0.000485     -0.000234      0.000000
     79 O1    s       0.000126     -0.000548     -0.000570      0.000000
     80 O1    s       0.001597     -0.000009     -0.000002      0.000000
     81 O1    s      -0.003703      0.000993     -0.002157      0.000000
     82 O3    s       0.000260     -0.000683      0.000325      0.000000
     83 O1    s      -0.000125     -0.001322      0.001496      0.000000
     84 O1    s      -0.000516      0.001074     -0.000633      0.000000
     85 O1    s      -0.000583      0.000034     -0.001277      0.000000
     86 O3    s      -0.001978      0.000148     -0.000239      0.000000
     87 O1    s      -0.000734      0.000605      0.001864      0.000000
     88 O1    s       0.001204     -0.000030      0.001033      0.000000
     89 O1    s      -0.000193      0.000298     -0.000321      0.000000
     90 O1    s       0.000049      0.000664     -0.001324      0.000000
     91 O1    s       0.002372      0.000389     -0.000672      0.000000
     92 O3    s      -0.000294      0.000388     -0.000577      0.000000
     93 O3    s      -0.001654      0.000824     -0.000275      0.000000
     94 O1    s       0.000373      0.000501     -0.000527      0.000000
     95 O1    s       0.000663     -0.001983     -0.000263      0.000000
     96 O1    s       0.000718      0.000780     -0.000490      0.000000
     97 O1    s      -0.000708     -0.001169     -0.000075      0.000000
     98 O1    s       0.000855     -0.000081      0.000737      0.000000
     99 O1    s      -0.000689      0.000690     -0.000114      0.000000
    100 O1    s      -0.000627     -0.000414     -0.000356      0.000000
    101 O1    s       0.000170      0.000148      0.000164      0.000000
    102 O1    s       0.000553     -0.000026      0.000632      0.000000
    103 O1    s      -0.002136      0.000035     -0.000388      0.000000
    104 O1    s      -0.000001     -0.000213     -0.000085      0.000000
    105 O3    s      -0.001238      0.000452     -0.000495      0.000000
    106 O1    s      -0.000372      0.000043      0.000018      0.000000
    107 O1    s      -0.000381      0.000125      0.000695      0.000000
    108 O3    s      -0.000106      0.001323      0.000855      0.000000
    109 O1    s      -0.000409     -0.000700      0.000716      0.000000
    110 O1    s       0.000611      0.000160      0.000391      0.000000
    111 O1    s      -0.000738     -0.000154      0.000609      0.000000
    112 O1    s       0.000616     -0.000701      0.001019      0.000000
    113 O3    s      -0.001369     -0.000041      0.000389      0.000000
    114 O1    s       0.000283      0.001295     -0.000146      0.000000
    115 O1    s       0.000102      0.000072     -0.000497      0.000000
    116 O3    s      -0.000374     -0.000213     -0.000149      0.000000
    117 O1    s      -0.000352      0.000166      0.000548      0.000000
    118 O3    s      -0.000516      0.000453     -0.000110      0.000000
    119 O3    s      -0.000677      0.000248     -0.000140      0.000000
    120 O1    s       0.001063     -0.000283     -0.000420      0.000000
--------------------------------------------------------------------------------
  Maximum abs         0.007021      0.002712      0.003136      0.000000
--------------------------------------------------------------------------------


  Born effective charge tensors : 

-------------------------------------------------------------------------------
  Atom             x           y             z
-------------------------------------------------------------------------------
    1 Ge    x       4.1560     -0.2609      0.0591
            y       0.0696      3.9342     -0.0313
            z      -0.8086      0.1515      4.1841
-------------------------------------------------------------------------------
    2 Ge    x       4.0034     -0.2615     -0.0979
            y       0.1296      3.9221      0.0253
            z       0.7572     -0.1129      4.2539
-------------------------------------------------------------------------------
    3 Ge    x       4.2242     -0.2579     -0.4383
            y       0.1273      3.9148      0.1031
            z      -0.2077      0.0355      4.4508
-------------------------------------------------------------------------------
    4 Ge    x       4.2317     -0.1168      0.0075
            y       0.1042      3.9254      0.0442
            z      -0.6909      0.1459      3.7816
-------------------------------------------------------------------------------
    5 Ge    x       4.3571     -0.2286     -0.0778
            y       0.0918      3.9351     -0.0062
            z       0.6251     -0.1631      3.6447
-------------------------------------------------------------------------------
    6 Ge    x       4.3169     -0.2366     -0.3729
            y       0.1149      3.9447      0.0472
            z      -0.3128     -0.0187      3.8281
-------------------------------------------------------------------------------
    7 Ge    x       4.1956     -0.2834      0.3887
            y       0.1264      3.9861     -0.0367
            z       0.3110     -0.0238      3.9703
-------------------------------------------------------------------------------
    8 Ge    x       3.9965      0.2144     -0.3417
            y       0.2337      4.1308     -0.1098
            z      -0.0369     -0.1770      3.5306
-------------------------------------------------------------------------------
    9 Ge    x       4.0172      0.2572      0.3197
            y       0.2590      4.1628      0.0985
            z       0.0335      0.1621      3.6106
-------------------------------------------------------------------------------
   10 Ge    x       4.0171     -0.0717     -0.1905
            y      -0.4477      4.1759      0.0937
            z      -0.0942      0.2138      3.6082
-------------------------------------------------------------------------------
   11 Ge    x       3.8397     -0.0260      0.1733
            y      -0.4259      4.2292     -0.0477
            z       0.0725     -0.2015      3.4715
-------------------------------------------------------------------------------
   12 Ge    x       4.0269      0.2407     -0.2628
            y       0.2318      4.1920     -0.0766
            z      -0.0132     -0.1933      3.6145
-------------------------------------------------------------------------------
   13 Ge    x       3.9473      0.2240      0.2013
            y       0.1843      4.2292      0.0413
            z      -0.0496      0.1570      3.5499
-------------------------------------------------------------------------------
   14 Ge    x       3.9024     -0.1001     -0.2245
            y      -0.4518      4.2283      0.1218
            z      -0.0380      0.1929      3.5681
-------------------------------------------------------------------------------
   15 Ge    x       3.9118     -0.0923      0.2395
            y      -0.4665      4.2111     -0.1059
            z       0.0985     -0.1791      3.6154
-------------------------------------------------------------------------------
   16 Ge    x       4.0568      0.2598     -0.2485
            y       0.3606      4.1434     -0.0994
            z      -0.0146     -0.1938      3.4385
-------------------------------------------------------------------------------
   17 Ge    x       3.9747      0.3055      0.3461
            y       0.3324      4.1446      0.0380
            z       0.0581      0.1306      3.4530
-------------------------------------------------------------------------------
   18 Ge    x       4.0050     -0.1279     -0.3370
            y      -0.4779      4.1401      0.0797
            z      -0.1437      0.1649      3.5394
-------------------------------------------------------------------------------
   19 Ge    x       3.9918     -0.0828      0.2340
            y      -0.4287      4.1862     -0.1704
            z       0.0820     -0.2689      3.4554
-------------------------------------------------------------------------------
   20 Ge    x       4.0374      0.2564     -0.3467
            y       0.2176      4.1949     -0.0973
            z      -0.0510     -0.1854      3.5551
-------------------------------------------------------------------------------
   21 Ge    x       4.0486     -0.1070      0.2692
            y      -0.4493      4.1948     -0.0754
            z       0.1110     -0.1694      3.4308
-------------------------------------------------------------------------------
   22 Si    x       3.8059     -0.2353      0.4620
            y       0.1883      3.6778     -0.1229
            z       0.1891     -0.0220      4.1665
-------------------------------------------------------------------------------
   23 Si    x       3.7484      0.2371      0.3038
            y       0.1826      3.9316      0.0805
            z       0.0032      0.1965      3.2647
-------------------------------------------------------------------------------
   24 Si    x       3.6847     -0.0752     -0.2866
            y      -0.4151      3.8956      0.0704
            z      -0.0781      0.2042      3.2121
-------------------------------------------------------------------------------
   25 O1    x      -2.1906     -0.8885      0.3300
            y      -0.9468     -2.2562      0.3792
            z       0.4003      0.3853     -1.6432
-------------------------------------------------------------------------------
   26 O1    x      -2.1964     -0.8804     -0.3337
            y      -0.9365     -2.2412     -0.3805
            z      -0.4092     -0.3861     -1.6568
-------------------------------------------------------------------------------
   27 O1    x      -2.0056      0.8558      0.5191
            y       0.8188     -2.5217     -0.5300
            z       0.4771     -0.5190     -1.6361
-------------------------------------------------------------------------------
   28 O3    x      -1.7768      0.7919     -0.4463
            y       0.7214     -2.4910      0.5316
            z      -0.3908      0.5259     -1.5366
-------------------------------------------------------------------------------
   29 O1    x      -2.2204     -0.9132      0.5222
            y      -0.9521     -2.3106      0.5032
            z       0.4874      0.5388     -1.6614
-------------------------------------------------------------------------------
   30 O3    x      -2.0692     -0.8714     -0.4564
            y      -0.9005     -2.2221     -0.4343
            z      -0.4126     -0.4726     -1.5212
-------------------------------------------------------------------------------
   31 O1    x      -1.9231      0.8482      0.3503
            y       0.8157     -2.5339     -0.3055
            z       0.4259     -0.3443     -1.6093
-------------------------------------------------------------------------------
   32 O1    x      -1.9433      0.8702     -0.3892
            y       0.8097     -2.5343      0.3435
            z      -0.4756      0.3958     -1.6153
-------------------------------------------------------------------------------
   33 O1    x      -2.0974      0.2667      0.9130
            y       0.1195     -1.2849     -0.1589
            z       1.1382     -0.2954     -3.0586
-------------------------------------------------------------------------------
   34 O3    x      -1.8209      0.1992     -0.8226
            y       0.0579     -1.2016      0.1040
            z      -1.0069      0.2124     -3.0255
-------------------------------------------------------------------------------
   35 O1    x      -2.1374      0.2517     -0.8143
            y       0.1224     -1.3587      0.1936
            z      -0.7874      0.2563     -2.5823
-------------------------------------------------------------------------------
   36 O1    x      -2.1391      0.1907      0.8850
            y       0.0725     -1.3467     -0.1778
            z       0.8692     -0.2288     -2.7269
-------------------------------------------------------------------------------
   37 O1    x      -2.1264      0.2439     -0.8024
            y       0.1158     -1.3090      0.1491
            z      -0.8289      0.2064     -2.7658
-------------------------------------------------------------------------------
   38 O3    x      -2.0843      0.2538      0.7506
            y       0.1465     -1.2543     -0.1451
            z       0.7682     -0.1601     -2.4410
-------------------------------------------------------------------------------
   39 O1    x      -2.1268     -0.9088      0.2954
            y      -0.9746     -2.4207      0.3168
            z       0.3737      0.3538     -1.5156
-------------------------------------------------------------------------------
   40 O1    x      -2.2656     -0.9203     -0.2923
            y      -0.9692     -2.3134     -0.3332
            z      -0.3506     -0.3513     -1.4770
-------------------------------------------------------------------------------
   41 O1    x      -2.0472      0.8832      0.5906
            y       0.8075     -2.5544     -0.5788
            z       0.5143     -0.5613     -1.5951
-------------------------------------------------------------------------------
   42 O1    x      -1.9627      0.8307     -0.5274
            y       0.7415     -2.6677      0.5540
            z      -0.4541      0.5385     -1.5515
-------------------------------------------------------------------------------
   43 O1    x      -2.2225     -0.8892      0.5575
            y      -0.9117     -2.2968      0.5441
            z       0.4781      0.5313     -1.6200
-------------------------------------------------------------------------------
   44 O3    x      -2.0258     -0.8503     -0.5367
            y      -0.8562     -2.2531     -0.5719
            z      -0.4618     -0.5663     -1.5334
-------------------------------------------------------------------------------
   45 O3    x      -1.9785      0.8674      0.4019
            y       0.8233     -2.2878     -0.3367
            z       0.4359     -0.3885     -1.4284
-------------------------------------------------------------------------------
   46 O1    x      -2.0770      0.8753     -0.3306
            y       0.8443     -2.5173      0.2412
            z      -0.3912      0.2851     -1.4419
-------------------------------------------------------------------------------
   47 O1    x      -2.1454      0.2245     -0.7623
            y       0.1472     -1.3696      0.1854
            z      -0.5534      0.1559     -2.3477
-------------------------------------------------------------------------------
   48 O1    x      -2.2070      0.2340      0.7246
            y       0.1130     -1.3697     -0.1647
            z       0.4934     -0.1523     -2.2647
-------------------------------------------------------------------------------
   49 O1    x      -1.3501      0.2178      0.0721
            y       0.3325     -3.1460     -0.0144
            z       0.0199     -0.0230     -1.4038
-------------------------------------------------------------------------------
   50 O1    x      -1.3546      0.1994     -0.0770
            y       0.3224     -3.1723     -0.0037
            z      -0.0330     -0.0129     -1.3777
-------------------------------------------------------------------------------
   51 O1    x      -1.3612      0.1955      0.0714
            y       0.2968     -3.1479      0.0279
            z       0.0297      0.0195     -1.4073
-------------------------------------------------------------------------------
   52 O1    x      -1.3331      0.1631     -0.0852
            y       0.2984     -3.2442     -0.0504
            z      -0.0363     -0.0569     -1.4181
-------------------------------------------------------------------------------
   53 O1    x      -3.0189     -0.2592     -0.0096
            y      -0.1705     -1.5807      0.0236
            z      -0.0568      0.0485     -1.2294
-------------------------------------------------------------------------------
   54 O1    x      -3.0322     -0.2808      0.0296
            y      -0.1977     -1.5927     -0.0047
            z       0.0336     -0.0336     -1.2180
-------------------------------------------------------------------------------
   55 O1    x      -3.1010     -0.2819      0.0014
            y      -0.2218     -1.5767     -0.0321
            z       0.0140     -0.0630     -1.2216
-------------------------------------------------------------------------------
   56 O1    x      -3.0677     -0.2618      0.0413
            y      -0.1541     -1.5500      0.0453
            z       0.0288      0.0811     -1.2331
-------------------------------------------------------------------------------
   57 O3    x      -1.4054     -0.0933      0.0647
            y      -0.0985     -1.3469      0.0465
            z       0.0403      0.0278     -2.5794
-------------------------------------------------------------------------------
   58 O1    x      -1.4974     -0.1096     -0.0093
            y      -0.1193     -1.4257     -0.0202
            z       0.0006     -0.0086     -2.7303
-------------------------------------------------------------------------------
   59 O1    x      -1.4518      0.0217     -0.0398
            y       0.0874     -1.4353     -0.0289
            z      -0.0340     -0.0193     -2.7575
-------------------------------------------------------------------------------
   60 O3    x      -1.3549      0.0101     -0.1171
            y       0.0850     -1.3750      0.0105
            z      -0.0826     -0.0099     -2.5820
-------------------------------------------------------------------------------
   61 O1    x      -1.5236     -0.1064     -0.0017
            y      -0.1173     -1.4141     -0.0018
            z      -0.0365     -0.0109     -2.7192
-------------------------------------------------------------------------------
   62 O1    x      -1.4581     -0.1224     -0.0089
            y      -0.1337     -1.4569     -0.0525
            z       0.0215     -0.0280     -2.7339
-------------------------------------------------------------------------------
   63 O1    x      -1.4717      0.0317     -0.0392
            y       0.0995     -1.4396     -0.0495
            z      -0.0433     -0.0292     -2.7016
-------------------------------------------------------------------------------
   64 O1    x      -1.4959      0.0195     -0.0292
            y       0.0916     -1.4130      0.0026
            z      -0.0156      0.0100     -2.7562
-------------------------------------------------------------------------------
   65 O3    x      -1.2966      0.1716      0.0518
            y       0.2340     -2.9920      0.1235
            z      -0.0006      0.1392     -1.2732
-------------------------------------------------------------------------------
   66 O1    x      -1.4076      0.2156     -0.1075
            y       0.2805     -3.1002      0.0219
            z      -0.0537      0.0024     -1.3521
-------------------------------------------------------------------------------
   67 O1    x      -1.3925      0.1687      0.1078
            y       0.2864     -3.1679      0.0357
            z       0.0531      0.0171     -1.3455
-------------------------------------------------------------------------------
   68 O3    x      -1.3334      0.2285     -0.1028
            y       0.3297     -2.9945      0.0906
            z      -0.0576      0.1031     -1.2601
-------------------------------------------------------------------------------
   69 O1    x      -3.0745     -0.2498     -0.0233
            y      -0.1357     -1.6033      0.0062
            z      -0.0442      0.0481     -1.1819
-------------------------------------------------------------------------------
   70 O3    x      -2.8481     -0.3566      0.0107
            y      -0.2717     -1.5184      0.0073
            z       0.0192     -0.0311     -1.1279
-------------------------------------------------------------------------------
   71 O3    x      -2.9893     -0.2039      0.0412
            y      -0.1158     -1.4293     -0.0065
            z       0.0610     -0.0336     -1.1395
-------------------------------------------------------------------------------
   72 O1    x      -3.0880     -0.3138      0.0538
            y      -0.2284     -1.5910      0.0306
            z       0.0310      0.0578     -1.1932
-------------------------------------------------------------------------------




  Elastic Constant Matrix: (Units=GPa)

-------------------------------------------------------------------------------
  Indices      1         2         3         4         5         6    
-------------------------------------------------------------------------------
       1     27.6624   11.6863    8.5233    0.3914   -0.3018   -7.7347
       2     11.6863   33.8017    6.5074    0.1882    0.3282   -7.7485
       3      8.5233    6.5074   13.5227   -0.1572    0.0147   -1.7824
       4      0.3914    0.1882   -0.1572    8.1786   -2.0096    0.1920
       5     -0.3018    0.3282    0.0147   -2.0096   15.4593   -0.2288
       6     -7.7347   -7.7485   -1.7824    0.1920   -0.2288   20.4125
-------------------------------------------------------------------------------


  Elastic Compliance Matrix: (Units=1/GPa)

-------------------------------------------------------------------------------
  Indices      1         2         3         4         5         6    
-------------------------------------------------------------------------------
       1    0.052393 -0.009833 -0.026500 -0.002847  0.001091  0.013845
       2   -0.009833  0.037184 -0.010459 -0.001046 -0.000967  0.009475
       3   -0.026500 -0.010459  0.094968  0.003465 -0.000020 -0.005752
       4   -0.002847 -0.001046  0.003465  0.126574  0.016385 -0.002180
       5    0.001091 -0.000967 -0.000020  0.016385  0.066867  0.000640
       6    0.013845  0.009475 -0.005752 -0.002180  0.000640  0.057358
-------------------------------------------------------------------------------

  Mechanical properties :

-------------------------------------------------------------------------------
  Convention :                    Reuss         Voigt         Hill
-------------------------------------------------------------------------------
  Bulk  Modulus (GPa)     =      10.99371      14.26900      12.63135
  Shear Modulus (GPa)     =       8.94058      12.02808      10.48433
-------------------------------------------------------------------------------
  Velocity S-wave (km/s)  =       1.78979       2.07595       1.93816
  Velocity P-wave (km/s)  =       2.86533       3.29524       3.08778
-------------------------------------------------------------------------------
  Compressibility (1/GPa) =    0.09096110
-------------------------------------------------------------------------------
  Stress axis :                     x             y             z
-------------------------------------------------------------------------------
  Youngs Moduli (GPa)     =      19.08658      26.89293      10.52991
-------------------------------------------------------------------------------
  Poissons Ratio (x)      =                     0.26444       0.27905
  Poissons Ratio (y)      =       0.18768                     0.11013
  Poissons Ratio (z)      =       0.50580       0.28126
-------------------------------------------------------------------------------


  Piezoelectric Strain Matrix: (Units=C/m**2)

-------------------------------------------------------------------------------
  Indices      1         2         3         4         5         6    
-------------------------------------------------------------------------------
       x    -0.09549   0.23359   0.01671   0.12803   0.42654  -0.20588
       y    -0.18907   0.04836   0.26445   0.93435  -0.51155  -0.27491
       z     0.24721  -0.31740  -1.15168  -0.23907   0.17950  -0.11767
-------------------------------------------------------------------------------


  Piezoelectric Stress Matrix: (Units=10**-11 C/N)

-------------------------------------------------------------------------------
  Indices      1         2         3         4         5         6    
-------------------------------------------------------------------------------
       x    -1.04924   0.69531   0.32938   2.37280   3.01573  -1.10199
       y    -2.44144  -0.21960   3.44479  11.18865  -1.93312  -2.18136
       z     4.58402  -0.32266 -11.27590  -3.14245   0.86100   0.09262
-------------------------------------------------------------------------------


  Static dielectric constant tensor : 

-------------------------------------------------------------------------------
              x         y         z
-------------------------------------------------------------------------------
       x     5.31118  -0.01763  -0.08647
       y    -0.01763   6.47671  -0.02378
       z    -0.08647  -0.02378   4.17770
--------------------------------------------------------------------------------

  High frequency dielectric constant tensor : 

-------------------------------------------------------------------------------
              x         y         z
-------------------------------------------------------------------------------
       x     1.54328  -0.00277   0.00027
       y    -0.00277   1.54940   0.00014
       z     0.00027   0.00014   1.50518
-------------------------------------------------------------------------------

  Static refractive indices : 

-------------------------------------------------------------------------------
    1 =    2.04227      2 =    2.30598      3 =    2.54503
-------------------------------------------------------------------------------

  High frequency refractive indices : 

-------------------------------------------------------------------------------
    1 =    1.22686      2 =    1.24186      3 =    1.24518
-------------------------------------------------------------------------------


  Time to end of optimisation =       9.2719 seconds


  Peak dynamic memory used =       5.01 MB 


  Timing analysis for GULP :

--------------------------------------------------------------------------------
  Task / Subroutine                                          Time (Seconds)
--------------------------------------------------------------------------------
  Calculation of reciprocal space energy and derivatives          0.6201
  Calculation of real space energy and derivatives                6.5254
  Calculation of three-body energy and derivatives                0.0701
  Calculation and manipulation of Hessian matrix                  2.3559
  Calculation of matrix inversion                                 0.0413
  Global summation overhead                                       0.0001
--------------------------------------------------------------------------------
  Total CPU time                                                  9.2719
--------------------------------------------------------------------------------


  Dump file written as c00150.vasp.grs
  CIF file written as c00150.vasp.cif


  Job Finished at 12:09.52 31st October    2025                               

