|===============================================================================
|
|  DFTB+ release 24.1
|
|  Copyright (C) 2006 - 2024  DFTB+ developers group
|
|===============================================================================
|
|  When publishing results obtained with DFTB+, please cite the following
|  reference:
|
|  * DFTB+, a software package for efficient approximate density functional
|    theory based atomistic simulations, J. Chem. Phys. 152, 124101 (2020).
|    [doi: 10.1063/1.5143190]
|
|  You should also cite additional publications crediting the parametrization
|  data you use. Please consult the documentation of the SK-files for the
|  references.
|
|===============================================================================

Reading input file 'dftb_in.hsd'
Parser version: 14

--------------------------------------------------------------------------------
Reading SK-files:
./SKFiles/Si-Si.skf
./SKFiles/Si-O.skf
./SKFiles/O-O.skf
Done.


Processed input in HSD format written to 'dftb_pin.hsd'

Starting initialization...
--------------------------------------------------------------------------------
WARNING!
-> Dipole printed for extended system : value printed is not well defined
MPI processes:               1
OpenMP threads:              8
BLACS orbital grid size:     1 x 1
BLACS atom grid size:        1 x 1
Chosen random seed:          146192592
Current stacksize:           unlimited
Mode:                        Static calculation
Self consistent charges:     Yes
SCC-tolerance:                 0.100000E-07
Max. scc iterations:                    500
Shell resolved Hubbard:      No
Spin polarisation:           No
Nr. of up electrons:           192.000000
Nr. of down electrons:         192.000000
Periodic boundaries:         Yes
Electronic solver:           Relatively robust
Mixer:                       Broyden mixer
Mixing parameter:                  0.200000
Maximal SCC-cycles:                     500
Nr. of chrg. vec. in memory:            500
Electronic temperature:              0.100000E-07 H      0.272114E-06 eV
Initial charges:             Set automatically (system chrg:   0.000E+00)
Included shells:            Si:  s, p, d
                             O:  s, p
K-points and weights:           1:  0.500000  0.500000  0.500000     1.000000

K-points in absolute space:     1:  0.025319  0.017606  0.037774

Extra options:
                             Mulliken analysis
Force type                   original

--------------------------------------------------------------------------------

***  Geometry step: 0

 iSCC Total electronic   Diff electronic      SCC error    
    1    0.00000000E+00    0.00000000E+00    0.14596837E+01
    2   -0.19454759E+03   -0.19454759E+03    0.99374386E+00
    3   -0.19491662E+03   -0.36902684E+00    0.40103204E-01
    4   -0.19523555E+03   -0.31893371E+00    0.26767472E-01
    5   -0.19523763E+03   -0.20733334E-02    0.46131093E-02
    6   -0.19523777E+03   -0.14242467E-03    0.16632607E-02
    7   -0.19523777E+03   -0.40309136E-05    0.33018946E-03
    8   -0.19523777E+03   -0.13270686E-05    0.30304597E-04
    9   -0.19523777E+03   -0.59266256E-07    0.28480196E-05
   10   -0.19523777E+03   -0.32289904E-09    0.49603091E-06
   11   -0.19523777E+03   -0.67643668E-11    0.18782608E-06
   12   -0.19523777E+03   -0.28421709E-13    0.18666228E-07
   13   -0.19523777E+03    0.11368684E-12    0.46650417E-09

Total Energy:                     -192.0208911043 H        -5225.1543 eV
Extrapolated to 0K:               -192.0208911043 H        -5225.1543 eV
Total Mermin free energy:         -192.0208911043 H        -5225.1543 eV
Force related energy:             -192.0208911043 H        -5225.1543 eV

Volume:                              0.913789E+04 au^3   0.135410E+04 A^3
Pressure:                            0.535516E-03 au     0.157554E+11 Pa
>> Charges saved for restart in charges.bin

total energy  -1.9202089E+02 H       energy change -1.9202089E+02 H
gradient norm  4.6637050E-01 H/a0    max. gradient  2.8983992E-01 H/a0
step length    0.0000000E+00 a0      max. step      0.0000000E+00 a0

--------------------------------------------------------------------------------

***  Geometry step: 1

 iSCC Total electronic   Diff electronic      SCC error    
    1   -0.19523777E+03    0.00000000E+00    0.78389276E-01
    2   -0.19491753E+03    0.32024234E+00    0.33155861E-01
    3   -0.19492230E+03   -0.47637841E-02    0.53040597E-02
    4   -0.19492331E+03   -0.10180664E-02    0.13533210E-02
    5   -0.19492332E+03   -0.58988732E-05    0.23526649E-03
    6   -0.19492332E+03   -0.21717233E-06    0.51824017E-04
    7   -0.19492332E+03   -0.43536431E-07    0.98138781E-05
    8   -0.19492332E+03   -0.23873099E-08    0.16003436E-05
    9   -0.19492332E+03   -0.26375346E-10    0.44264737E-06
   10   -0.19492332E+03   -0.24158453E-11    0.93734021E-07
   11   -0.19492332E+03   -0.19895197E-12    0.29779758E-07
   12   -0.19492332E+03   -0.56843419E-13    0.37244856E-08

Total Energy:                     -192.0677696923 H        -5226.4299 eV
Extrapolated to 0K:               -192.0677696923 H        -5226.4299 eV
Total Mermin free energy:         -192.0677696923 H        -5226.4299 eV
Force related energy:             -192.0677696923 H        -5226.4299 eV

Volume:                              0.941485E+04 au^3   0.139514E+04 A^3
Pressure:                            0.364865E-03 au     0.107347E+11 Pa
>> Charges saved for restart in charges.bin

total energy  -1.9206777E+02 H       energy change -4.6878588E-02 H
gradient norm  4.4840020E-01 H/a0    max. gradient  2.0157269E-01 H/a0
step length    3.9398026E-01 a0      max. step      2.4485084E-01 a0

--------------------------------------------------------------------------------

***  Geometry step: 2

 iSCC Total electronic   Diff electronic      SCC error    
    1   -0.19492332E+03    0.00000000E+00    0.32668642E-01
    2   -0.19482930E+03    0.94024135E-01    0.13045358E-01
    3   -0.19483045E+03   -0.11560416E-02    0.32198639E-02
    4   -0.19483072E+03   -0.27150060E-03    0.59560115E-03
    5   -0.19483072E+03   -0.18085400E-05    0.76544919E-04
    6   -0.19483072E+03   -0.13918688E-06    0.25750202E-04
    7   -0.19483072E+03   -0.56106160E-08    0.62771239E-05
    8   -0.19483072E+03   -0.62033223E-09    0.73629005E-06
    9   -0.19483072E+03   -0.93223207E-11    0.12613586E-06
   10   -0.19483072E+03   -0.59685590E-12    0.67025561E-07
   11   -0.19483072E+03   -0.56843419E-13    0.16174026E-07
   12   -0.19483072E+03   -0.56843419E-13    0.13124648E-08

Total Energy:                     -192.1533577113 H        -5228.7589 eV
Extrapolated to 0K:               -192.1533577113 H        -5228.7589 eV
Total Mermin free energy:         -192.1533577113 H        -5228.7589 eV
Force related energy:             -192.1533577113 H        -5228.7589 eV

Volume:                              0.944045E+04 au^3   0.139893E+04 A^3
Pressure:                            0.299198E-03 au     0.880270E+10 Pa
>> Charges saved for restart in charges.bin

total energy  -1.9215336E+02 H       energy change -8.5588019E-02 H
gradient norm  2.5553170E-01 H/a0    max. gradient  8.6487712E-02 H/a0
step length    3.0562981E-01 a0      max. step      5.2392247E-02 a0

--------------------------------------------------------------------------------

***  Geometry step: 3

 iSCC Total electronic   Diff electronic      SCC error    
    1   -0.19483072E+03    0.00000000E+00    0.39268891E-01
    2   -0.19465840E+03    0.17232005E+00    0.17791575E-01
    3   -0.19465991E+03   -0.15036512E-02    0.60155787E-02
    4   -0.19466024E+03   -0.33428717E-03    0.87869833E-03
    5   -0.19466025E+03   -0.56647844E-05    0.12326128E-03
    6   -0.19466025E+03   -0.48236319E-06    0.40234822E-04
    7   -0.19466025E+03   -0.75766877E-08    0.93910032E-05
    8   -0.19466025E+03   -0.86146201E-09    0.13405216E-05
    9   -0.19466025E+03   -0.31718628E-10    0.12806925E-06
   10   -0.19466025E+03   -0.17621460E-11    0.66273664E-07
   11   -0.19466025E+03    0.85265128E-13    0.15631742E-07
   12   -0.19466025E+03   -0.28421709E-13    0.18724995E-08

Total Energy:                     -192.2172409486 H        -5230.4973 eV
Extrapolated to 0K:               -192.2172409486 H        -5230.4973 eV
Total Mermin free energy:         -192.2172409486 H        -5230.4973 eV
Force related energy:             -192.2172409486 H        -5230.4973 eV

Volume:                              0.949040E+04 au^3   0.140633E+04 A^3
Pressure:                            0.215109E-03 au     0.632871E+10 Pa
>> Charges saved for restart in charges.bin

total energy  -1.9221724E+02 H       energy change -6.3883237E-02 H
gradient norm  1.8512454E-01 H/a0    max. gradient  1.0564216E-01 H/a0
step length    4.9348346E-01 a0      max. step      8.5675449E-02 a0

--------------------------------------------------------------------------------

***  Geometry step: 4

 iSCC Total electronic   Diff electronic      SCC error    
    1   -0.19466025E+03    0.00000000E+00    0.23111863E-01
    2   -0.19446455E+03    0.19570157E+00    0.10403651E-01
    3   -0.19446502E+03   -0.47449181E-03    0.33036657E-02
    4   -0.19446513E+03   -0.11037710E-03    0.46318103E-03
    5   -0.19446513E+03   -0.24865082E-05    0.47638649E-04
    6   -0.19446513E+03   -0.16018816E-06    0.21628095E-04
    7   -0.19446513E+03   -0.25873419E-08    0.51345697E-05
    8   -0.19446513E+03   -0.30672709E-09    0.79631749E-06
    9   -0.19446513E+03   -0.99760200E-11    0.11109732E-06
   10   -0.19446513E+03   -0.99475983E-12    0.25138341E-07
   11   -0.19446513E+03   -0.28421709E-13    0.91089567E-08

Total Energy:                     -192.2423020870 H        -5231.1792 eV
Extrapolated to 0K:               -192.2423020870 H        -5231.1792 eV
Total Mermin free energy:         -192.2423020870 H        -5231.1792 eV
Force related energy:             -192.2423020870 H        -5231.1792 eV

Volume:                              0.959454E+04 au^3   0.142176E+04 A^3
Pressure:                            0.127083E-03 au     0.373890E+10 Pa
>> Charges saved for restart in charges.bin

total energy  -1.9224230E+02 H       energy change -2.5061138E-02 H
gradient norm  1.4830844E-01 H/a0    max. gradient  8.1377865E-02 H/a0
step length    3.6172082E-01 a0      max. step      8.6027945E-02 a0

--------------------------------------------------------------------------------

***  Geometry step: 5

 iSCC Total electronic   Diff electronic      SCC error    
    1   -0.19446513E+03    0.00000000E+00    0.22950071E-01
    2   -0.19431026E+03    0.15487428E+00    0.10379809E-01
    3   -0.19431061E+03   -0.35293028E-03    0.19001482E-02
    4   -0.19431070E+03   -0.87323668E-04    0.26971671E-03
    5   -0.19431070E+03   -0.11061590E-05    0.35382248E-04
    6   -0.19431070E+03   -0.91416268E-07    0.12321491E-04
    7   -0.19431070E+03   -0.91932861E-09    0.43108036E-05
    8   -0.19431070E+03   -0.12872192E-09    0.66510714E-06
    9   -0.19431070E+03   -0.32116532E-11    0.54143047E-07
   10   -0.19431070E+03   -0.17053026E-12    0.21522855E-07
   11   -0.19431070E+03    0.56843419E-13    0.67763692E-08

Total Energy:                     -192.2547740326 H        -5231.5186 eV
Extrapolated to 0K:               -192.2547740326 H        -5231.5186 eV
Total Mermin free energy:         -192.2547740326 H        -5231.5186 eV
Force related energy:             -192.2547740326 H        -5231.5186 eV

Volume:                              0.967774E+04 au^3   0.143409E+04 A^3
Pressure:                            0.583519E-04 au     0.171677E+10 Pa
>> Charges saved for restart in charges.bin

total energy  -1.9225477E+02 H       energy change -1.2471946E-02 H
gradient norm  8.9028513E-02 H/a0    max. gradient  3.3196237E-02 H/a0
step length    3.0202489E-01 a0      max. step      6.6521183E-02 a0

--------------------------------------------------------------------------------

***  Geometry step: 6

 iSCC Total electronic   Diff electronic      SCC error    
    1   -0.19431070E+03    0.00000000E+00    0.12583636E-01
    2   -0.19427791E+03    0.32796447E-01    0.51592534E-02
    3   -0.19427801E+03   -0.10478592E-03    0.13156001E-02
    4   -0.19427803E+03   -0.21577998E-04    0.24085873E-03
    5   -0.19427803E+03   -0.28292834E-06    0.20526384E-04
    6   -0.19427803E+03   -0.31066605E-07    0.93660327E-05
    7   -0.19427803E+03   -0.36061465E-09    0.27420472E-05
    8   -0.19427803E+03   -0.39960923E-10    0.32416319E-06
    9   -0.19427803E+03   -0.14495072E-11    0.38679745E-07
   10   -0.19427803E+03   -0.17053026E-12    0.10998718E-07
   11   -0.19427803E+03    0.85265128E-13    0.83235729E-09

Total Energy:                     -192.2611491631 H        -5231.6921 eV
Extrapolated to 0K:               -192.2611491631 H        -5231.6921 eV
Total Mermin free energy:         -192.2611491631 H        -5231.6921 eV
Force related energy:             -192.2611491631 H        -5231.6921 eV

Volume:                              0.968990E+04 au^3   0.143590E+04 A^3
Pressure:                            0.428298E-04 au     0.126010E+10 Pa
>> Charges saved for restart in charges.bin

total energy  -1.9226115E+02 H       energy change -6.3751305E-03 H
gradient norm  6.6882451E-02 H/a0    max. gradient  3.1421329E-02 H/a0
step length    1.4429974E-01 a0      max. step      2.7533664E-02 a0

--------------------------------------------------------------------------------

***  Geometry step: 7

 iSCC Total electronic   Diff electronic      SCC error    
    1   -0.19427803E+03    0.00000000E+00    0.14614806E-01
    2   -0.19427040E+03    0.76350297E-02    0.91977001E-02
    3   -0.19427059E+03   -0.19655409E-03    0.27714736E-02
    4   -0.19427064E+03   -0.45943238E-04    0.22703907E-03
    5   -0.19427064E+03   -0.89704213E-06    0.29525128E-04
    6   -0.19427064E+03   -0.64488773E-07    0.95987641E-05
    7   -0.19427064E+03   -0.10896031E-08    0.30838404E-05
    8   -0.19427064E+03   -0.12238388E-09    0.56387973E-06
    9   -0.19427064E+03   -0.34674486E-11    0.69515940E-07
   10   -0.19427064E+03   -0.36948222E-12    0.10880011E-07
   11   -0.19427064E+03    0.56843419E-13    0.32897534E-08

Total Energy:                     -192.2696126237 H        -5231.9224 eV
Extrapolated to 0K:               -192.2696126237 H        -5231.9224 eV
Total Mermin free energy:         -192.2696126237 H        -5231.9224 eV
Force related energy:             -192.2696126237 H        -5231.9224 eV

Volume:                              0.967641E+04 au^3   0.143390E+04 A^3
Pressure:                            0.355597E-04 au     0.104620E+10 Pa
>> Charges saved for restart in charges.bin

total energy  -1.9226961E+02 H       energy change -8.4634606E-03 H
gradient norm  4.6362160E-02 H/a0    max. gradient  9.7732136E-03 H/a0
step length    2.7601379E-01 a0      max. step      4.9819333E-02 a0

--------------------------------------------------------------------------------

***  Geometry step: 8

 iSCC Total electronic   Diff electronic      SCC error    
    1   -0.19427064E+03    0.00000000E+00    0.87898980E-02
    2   -0.19428504E+03   -0.14402194E-01    0.55734807E-02
    3   -0.19428511E+03   -0.70430382E-04    0.12921484E-02
    4   -0.19428513E+03   -0.21242735E-04    0.16347534E-03
    5   -0.19428513E+03   -0.55886792E-06    0.33499538E-04
    6   -0.19428513E+03   -0.53052418E-07    0.79062792E-05
    7   -0.19428513E+03   -0.14412933E-08    0.11071643E-05
    8   -0.19428513E+03   -0.78728135E-10    0.37587841E-06
    9   -0.19428513E+03   -0.18189894E-11    0.49507721E-07
   10   -0.19428513E+03   -0.19895197E-12    0.62895067E-08

Total Energy:                     -192.2722836301 H        -5231.9950 eV
Extrapolated to 0K:               -192.2722836301 H        -5231.9950 eV
Total Mermin free energy:         -192.2722836301 H        -5231.9950 eV
Force related energy:             -192.2722836301 H        -5231.9950 eV

Volume:                              0.966665E+04 au^3   0.143245E+04 A^3
Pressure:                            0.395957E-04 au     0.116495E+10 Pa
>> Charges saved for restart in charges.bin

total energy  -1.9227228E+02 H       energy change -2.6710064E-03 H
gradient norm  3.6969235E-02 H/a0    max. gradient  8.8478647E-03 H/a0
step length    1.3509514E-01 a0      max. step      1.9436903E-02 a0

--------------------------------------------------------------------------------

***  Geometry step: 9

 iSCC Total electronic   Diff electronic      SCC error    
    1   -0.19428513E+03    0.00000000E+00    0.53212456E-02
    2   -0.19428701E+03   -0.18786921E-02    0.29969992E-02
    3   -0.19428704E+03   -0.30109580E-04    0.73570878E-03
    4   -0.19428705E+03   -0.88144152E-05    0.10136885E-03
    5   -0.19428705E+03   -0.23509514E-06    0.22169253E-04
    6   -0.19428705E+03   -0.14303254E-07    0.46228121E-05
    7   -0.19428705E+03   -0.57585225E-09    0.64510837E-06
    8   -0.19428705E+03   -0.41040948E-10    0.16970948E-06
    9   -0.19428705E+03   -0.82422957E-12    0.25381854E-07
   10   -0.19428705E+03   -0.85265128E-13    0.25187386E-08

Total Energy:                     -192.2740922454 H        -5232.0443 eV
Extrapolated to 0K:               -192.2740922454 H        -5232.0443 eV
Total Mermin free energy:         -192.2740922454 H        -5232.0443 eV
Force related energy:             -192.2740922454 H        -5232.0443 eV

Volume:                              0.966967E+04 au^3   0.143290E+04 A^3
Pressure:                            0.385996E-04 au     0.113564E+10 Pa
>> Charges saved for restart in charges.bin

total energy  -1.9227409E+02 H       energy change -1.8086153E-03 H
gradient norm  3.1178817E-02 H/a0    max. gradient  6.7775775E-03 H/a0
step length    1.0924340E-01 a0      max. step      1.8413733E-02 a0

--------------------------------------------------------------------------------

***  Geometry step: 10

 iSCC Total electronic   Diff electronic      SCC error    
    1   -0.19428705E+03    0.00000000E+00    0.68054163E-02
    2   -0.19428127E+03    0.57860476E-02    0.39040902E-02
    3   -0.19428131E+03   -0.45668616E-04    0.11429774E-02
    4   -0.19428132E+03   -0.11359746E-04    0.12820025E-03
    5   -0.19428132E+03   -0.33463925E-06    0.22751777E-04
    6   -0.19428132E+03   -0.18510462E-07    0.57546616E-05
    7   -0.19428132E+03   -0.65830363E-09    0.13386331E-05
    8   -0.19428132E+03   -0.49851678E-10    0.24141460E-06
    9   -0.19428132E+03   -0.85265128E-12    0.42064932E-07
   10   -0.19428132E+03   -0.14210855E-12    0.42525983E-08

Total Energy:                     -192.2760338642 H        -5232.0971 eV
Extrapolated to 0K:               -192.2760338642 H        -5232.0971 eV
Total Mermin free energy:         -192.2760338642 H        -5232.0971 eV
Force related energy:             -192.2760338642 H        -5232.0971 eV

Volume:                              0.968005E+04 au^3   0.143444E+04 A^3
Pressure:                            0.342294E-04 au     0.100706E+10 Pa
>> Charges saved for restart in charges.bin

total energy  -1.9227603E+02 H       energy change -1.9416188E-03 H
gradient norm  3.1941385E-02 H/a0    max. gradient  7.7886089E-03 H/a0
step length    1.4694731E-01 a0      max. step      2.9273441E-02 a0

--------------------------------------------------------------------------------

***  Geometry step: 11

 iSCC Total electronic   Diff electronic      SCC error    
    1   -0.19428132E+03    0.00000000E+00    0.59014900E-02
    2   -0.19426857E+03    0.12759055E-01    0.27635204E-02
    3   -0.19426860E+03   -0.29968482E-04    0.73640848E-03
    4   -0.19426860E+03   -0.71717112E-05    0.10050479E-03
    5   -0.19426860E+03   -0.17144708E-06    0.10783499E-04
    6   -0.19426860E+03   -0.11837272E-07    0.38364233E-05
    7   -0.19426860E+03   -0.75488060E-10    0.11383884E-05
    8   -0.19426860E+03   -0.96633812E-11    0.14742880E-06
    9   -0.19426860E+03   -0.39790393E-12    0.18460842E-07
   10   -0.19426860E+03    0.56843419E-13    0.47739177E-08

Total Energy:                     -192.2775240450 H        -5232.1376 eV
Extrapolated to 0K:               -192.2775240450 H        -5232.1376 eV
Total Mermin free energy:         -192.2775240450 H        -5232.1376 eV
Force related energy:             -192.2775240450 H        -5232.1376 eV

Volume:                              0.969835E+04 au^3   0.143715E+04 A^3
Pressure:                            0.274004E-04 au     0.806147E+09 Pa
>> Charges saved for restart in charges.bin

total energy  -1.9227752E+02 H       energy change -1.4901808E-03 H
gradient norm  2.9428592E-02 H/a0    max. gradient  6.9856666E-03 H/a0
step length    1.2404265E-01 a0      max. step      2.6506970E-02 a0

--------------------------------------------------------------------------------

***  Geometry step: 12

 iSCC Total electronic   Diff electronic      SCC error    
    1   -0.19426860E+03    0.00000000E+00    0.47499798E-02
    2   -0.19425647E+03    0.12134370E-01    0.26888503E-02
    3   -0.19425649E+03   -0.24355799E-04    0.79861491E-03
    4   -0.19425650E+03   -0.55001392E-05    0.83696589E-04
    5   -0.19425650E+03   -0.16242078E-06    0.13940924E-04
    6   -0.19425650E+03   -0.10743634E-07    0.37256210E-05
    7   -0.19425650E+03   -0.25093527E-09    0.11349981E-05
    8   -0.19425650E+03   -0.24328983E-10    0.26172164E-06
    9   -0.19425650E+03   -0.56843419E-12    0.40014001E-07
   10   -0.19425650E+03    0.00000000E+00    0.44339359E-08

Total Energy:                     -192.2788198032 H        -5232.1729 eV
Extrapolated to 0K:               -192.2788198032 H        -5232.1729 eV
Total Mermin free energy:         -192.2788198032 H        -5232.1729 eV
Force related energy:             -192.2788198032 H        -5232.1729 eV

Volume:                              0.971834E+04 au^3   0.144011E+04 A^3
Pressure:                            0.212275E-04 au     0.624533E+09 Pa
>> Charges saved for restart in charges.bin

total energy  -1.9227882E+02 H       energy change -1.2957583E-03 H
gradient norm  2.4660075E-02 H/a0    max. gradient  4.9753311E-03 H/a0
step length    1.2679971E-01 a0      max. step      2.4253589E-02 a0

--------------------------------------------------------------------------------

***  Geometry step: 13

 iSCC Total electronic   Diff electronic      SCC error    
    1   -0.19425650E+03    0.00000000E+00    0.42054988E-02
    2   -0.19425051E+03    0.59893697E-02    0.19726713E-02
    3   -0.19425053E+03   -0.22116273E-04    0.66102596E-03
    4   -0.19425054E+03   -0.46828810E-05    0.69341475E-04
    5   -0.19425054E+03   -0.92426404E-07    0.12744809E-04
    6   -0.19425054E+03   -0.83760199E-08    0.30354041E-05
    7   -0.19425054E+03   -0.29550051E-09    0.72546296E-06
    8   -0.19425054E+03   -0.20662583E-10    0.21203196E-06
    9   -0.19425054E+03   -0.68212103E-12    0.29305033E-07
   10   -0.19425054E+03   -0.56843419E-13    0.27716016E-08

Total Energy:                     -192.2796793247 H        -5232.1963 eV
Extrapolated to 0K:               -192.2796793247 H        -5232.1963 eV
Total Mermin free energy:         -192.2796793247 H        -5232.1963 eV
Force related energy:             -192.2796793247 H        -5232.1963 eV

Volume:                              0.973379E+04 au^3   0.144240E+04 A^3
Pressure:                            0.175232E-04 au     0.515549E+09 Pa
>> Charges saved for restart in charges.bin

total energy  -1.9227968E+02 H       energy change -8.5952144E-04 H
gradient norm  2.0756298E-02 H/a0    max. gradient  4.5152207E-03 H/a0
step length    9.3148778E-02 a0      max. step      1.7746358E-02 a0

--------------------------------------------------------------------------------

***  Geometry step: 14

 iSCC Total electronic   Diff electronic      SCC error    
    1   -0.19425054E+03    0.00000000E+00    0.41855464E-02
    2   -0.19424907E+03    0.14673868E-02    0.17645110E-02
    3   -0.19424909E+03   -0.20992749E-04    0.56441586E-03
    4   -0.19424909E+03   -0.45821538E-05    0.84019929E-04
    5   -0.19424909E+03   -0.93314867E-07    0.13646305E-04
    6   -0.19424909E+03   -0.74773538E-08    0.29932817E-05
    7   -0.19424909E+03   -0.37101699E-09    0.70126904E-06
    8   -0.19424909E+03   -0.22822633E-10    0.21800882E-06
    9   -0.19424909E+03   -0.59685590E-12    0.24888595E-07
   10   -0.19424909E+03   -0.28421709E-13    0.24474671E-08

Total Energy:                     -192.2804655107 H        -5232.2177 eV
Extrapolated to 0K:               -192.2804655107 H        -5232.2177 eV
Total Mermin free energy:         -192.2804655107 H        -5232.2177 eV
Force related energy:             -192.2804655107 H        -5232.2177 eV

Volume:                              0.974785E+04 au^3   0.144448E+04 A^3
Pressure:                            0.152449E-04 au     0.448521E+09 Pa
>> Charges saved for restart in charges.bin

total energy  -1.9228047E+02 H       energy change -7.8618598E-04 H
gradient norm  1.9163384E-02 H/a0    max. gradient  3.5018391E-03 H/a0
step length    9.5833605E-02 a0      max. step      1.8099260E-02 a0

--------------------------------------------------------------------------------

***  Geometry step: 15

 iSCC Total electronic   Diff electronic      SCC error    
    1   -0.19424909E+03    0.00000000E+00    0.39981499E-02
    2   -0.19425072E+03   -0.16228022E-02    0.17411385E-02
    3   -0.19425073E+03   -0.16583014E-04    0.50255598E-03
    4   -0.19425074E+03   -0.35347261E-05    0.91620848E-04
    5   -0.19425074E+03   -0.74647858E-07    0.12569747E-04
    6   -0.19425074E+03   -0.83229281E-08    0.31447244E-05
    7   -0.19425074E+03   -0.22888003E-09    0.95434586E-06
    8   -0.19425074E+03   -0.11283419E-10    0.26600180E-06
    9   -0.19425074E+03   -0.51159077E-12    0.28261762E-07
   10   -0.19425074E+03   -0.11368684E-12    0.25872837E-08

Total Energy:                     -192.2811285709 H        -5232.2357 eV
Extrapolated to 0K:               -192.2811285709 H        -5232.2357 eV
Total Mermin free energy:         -192.2811285709 H        -5232.2357 eV
Force related energy:             -192.2811285709 H        -5232.2357 eV

Volume:                              0.976122E+04 au^3   0.144646E+04 A^3
Pressure:                            0.141506E-04 au     0.416326E+09 Pa
>> Charges saved for restart in charges.bin

total energy  -1.9228113E+02 H       energy change -6.6306028E-04 H
gradient norm  1.9782433E-02 H/a0    max. gradient  4.0594199E-03 H/a0
step length    9.7001648E-02 a0      max. step      1.7824569E-02 a0

--------------------------------------------------------------------------------

***  Geometry step: 16

 iSCC Total electronic   Diff electronic      SCC error    
    1   -0.19425074E+03    0.00000000E+00    0.31640232E-02
    2   -0.19425268E+03   -0.19459883E-02    0.16819121E-02
    3   -0.19425269E+03   -0.10401346E-04    0.52320469E-03
    4   -0.19425270E+03   -0.23444652E-05    0.72414160E-04
    5   -0.19425270E+03   -0.49060674E-07    0.86513723E-05
    6   -0.19425270E+03   -0.48758579E-08    0.33713348E-05
    7   -0.19425270E+03   -0.57525540E-10    0.97654091E-06
    8   -0.19425270E+03   -0.16768809E-11    0.13754720E-06
    9   -0.19425270E+03   -0.31263880E-12    0.20342827E-07
   10   -0.19425270E+03    0.56843419E-13    0.45292516E-08

Total Energy:                     -192.2817350171 H        -5232.2522 eV
Extrapolated to 0K:               -192.2817350171 H        -5232.2522 eV
Total Mermin free energy:         -192.2817350171 H        -5232.2522 eV
Force related energy:             -192.2817350171 H        -5232.2522 eV

Volume:                              0.977362E+04 au^3   0.144830E+04 A^3
Pressure:                            0.136118E-04 au     0.400471E+09 Pa
>> Charges saved for restart in charges.bin

total energy  -1.9228174E+02 H       energy change -6.0644614E-04 H
gradient norm  1.7941430E-02 H/a0    max. gradient  2.7596834E-03 H/a0
step length    9.4844222E-02 a0      max. step      1.5867983E-02 a0

--------------------------------------------------------------------------------

***  Geometry step: 17

 iSCC Total electronic   Diff electronic      SCC error    
    1   -0.19425270E+03    0.00000000E+00    0.27599765E-02
    2   -0.19425234E+03    0.35643500E-03    0.17212050E-02
    3   -0.19425235E+03   -0.83469856E-05    0.53089651E-03
    4   -0.19425235E+03   -0.19927108E-05    0.50821234E-04
    5   -0.19425235E+03   -0.35975773E-07    0.73896422E-05
    6   -0.19425235E+03   -0.31581635E-08    0.28068609E-05
    7   -0.19425235E+03   -0.65398353E-10    0.90171869E-06
    8   -0.19425235E+03   -0.22168933E-11    0.13924857E-06
    9   -0.19425235E+03   -0.22737368E-12    0.15518399E-07
   10   -0.19425235E+03    0.00000000E+00    0.41150123E-08

Total Energy:                     -192.2822763487 H        -5232.2670 eV
Extrapolated to 0K:               -192.2822763487 H        -5232.2670 eV
Total Mermin free energy:         -192.2822763487 H        -5232.2670 eV
Force related energy:             -192.2822763487 H        -5232.2670 eV

Volume:                              0.978751E+04 au^3   0.145036E+04 A^3
Pressure:                            0.123719E-04 au     0.363995E+09 Pa
>> Charges saved for restart in charges.bin

total energy  -1.9228228E+02 H       energy change -5.4133161E-04 H
gradient norm  1.6084251E-02 H/a0    max. gradient  3.3047999E-03 H/a0
step length    9.4947405E-02 a0      max. step      1.5043743E-02 a0

--------------------------------------------------------------------------------

***  Geometry step: 18

 iSCC Total electronic   Diff electronic      SCC error    
    1   -0.19425235E+03    0.00000000E+00    0.25985496E-02
    2   -0.19424987E+03    0.24752281E-02    0.15859964E-02
    3   -0.19424988E+03   -0.72031794E-05    0.46480413E-03
    4   -0.19424988E+03   -0.16963214E-05    0.40810281E-04
    5   -0.19424988E+03   -0.31534057E-07    0.64724374E-05
    6   -0.19424988E+03   -0.21360052E-08    0.24471031E-05
    7   -0.19424988E+03   -0.57298166E-10    0.78210832E-06
    8   -0.19424988E+03   -0.20747848E-11    0.10944941E-06
    9   -0.19424988E+03   -0.22737368E-12    0.14273683E-07
   10   -0.19424988E+03   -0.14210855E-12    0.29910407E-08

Total Energy:                     -192.2827527281 H        -5232.2799 eV
Extrapolated to 0K:               -192.2827527281 H        -5232.2799 eV
Total Mermin free energy:         -192.2827527281 H        -5232.2799 eV
Force related energy:             -192.2827527281 H        -5232.2799 eV

Volume:                              0.980278E+04 au^3   0.145262E+04 A^3
Pressure:                            0.101930E-04 au     0.299888E+09 Pa
>> Charges saved for restart in charges.bin

total energy  -1.9228275E+02 H       energy change -4.7637938E-04 H
gradient norm  1.5752826E-02 H/a0    max. gradient  3.4637351E-03 H/a0
step length    9.4016074E-02 a0      max. step      1.5960409E-02 a0

--------------------------------------------------------------------------------

***  Geometry step: 19

 iSCC Total electronic   Diff electronic      SCC error    
    1   -0.19424988E+03    0.00000000E+00    0.26298544E-02
    2   -0.19424719E+03    0.26905791E-02    0.15664352E-02
    3   -0.19424720E+03   -0.75351395E-05    0.41557214E-03
    4   -0.19424720E+03   -0.17451259E-05    0.47201611E-04
    5   -0.19424720E+03   -0.39340648E-07    0.51663416E-05
    6   -0.19424720E+03   -0.19551010E-08    0.21890554E-05
    7   -0.19424720E+03   -0.46838977E-10    0.67847019E-06
    8   -0.19424720E+03   -0.27853275E-11    0.14356270E-06
    9   -0.19424720E+03   -0.25579538E-12    0.11620521E-07
   10   -0.19424720E+03    0.28421709E-13    0.25827567E-08

Total Energy:                     -192.2831830693 H        -5232.2916 eV
Extrapolated to 0K:               -192.2831830693 H        -5232.2916 eV
Total Mermin free energy:         -192.2831830693 H        -5232.2916 eV
Force related energy:             -192.2831830693 H        -5232.2916 eV

Volume:                              0.981763E+04 au^3   0.145482E+04 A^3
Pressure:                            0.828478E-05 au     0.243746E+09 Pa
>> Charges saved for restart in charges.bin

total energy  -1.9228318E+02 H       energy change -4.3034128E-04 H
gradient norm  1.5613121E-02 H/a0    max. gradient  4.0531037E-03 H/a0
step length    9.0465552E-02 a0      max. step      1.5672246E-02 a0

--------------------------------------------------------------------------------

***  Geometry step: 20

 iSCC Total electronic   Diff electronic      SCC error    
    1   -0.19424720E+03    0.00000000E+00    0.25892637E-02
    2   -0.19424405E+03    0.31490693E-02    0.14577185E-02
    3   -0.19424406E+03   -0.68861450E-05    0.41295423E-03
    4   -0.19424406E+03   -0.15977439E-05    0.56052223E-04
    5   -0.19424406E+03   -0.40002902E-07    0.59699901E-05
    6   -0.19424406E+03   -0.20519906E-08    0.22046739E-05
    7   -0.19424406E+03   -0.36948222E-10    0.70713033E-06
    8   -0.19424406E+03   -0.15916157E-11    0.11424567E-06
    9   -0.19424406E+03   -0.17053026E-12    0.14378012E-07
   10   -0.19424406E+03   -0.85265128E-13    0.25436453E-08

Total Energy:                     -192.2835605206 H        -5232.3019 eV
Extrapolated to 0K:               -192.2835605206 H        -5232.3019 eV
Total Mermin free energy:         -192.2835605206 H        -5232.3019 eV
Force related energy:             -192.2835605206 H        -5232.3019 eV

Volume:                              0.983164E+04 au^3   0.145690E+04 A^3
Pressure:                            0.628162E-05 au     0.184812E+09 Pa
>> Charges saved for restart in charges.bin

total energy  -1.9228356E+02 H       energy change -3.7745127E-04 H
gradient norm  1.4179481E-02 H/a0    max. gradient  3.1300939E-03 H/a0
step length    8.3724512E-02 a0      max. step      1.5168702E-02 a0

--------------------------------------------------------------------------------

***  Geometry step: 21

 iSCC Total electronic   Diff electronic      SCC error    
    1   -0.19424406E+03    0.00000000E+00    0.24477947E-02
    2   -0.19424221E+03    0.18546968E-02    0.13214881E-02
    3   -0.19424221E+03   -0.74783891E-05    0.44726667E-03
    4   -0.19424222E+03   -0.16944192E-05    0.49716248E-04
    5   -0.19424222E+03   -0.33621319E-07    0.65921438E-05
    6   -0.19424222E+03   -0.21235849E-08    0.22156568E-05
    7   -0.19424222E+03   -0.40131454E-10    0.79214784E-06
    8   -0.19424222E+03   -0.13073986E-11    0.11054011E-06
    9   -0.19424222E+03   -0.17053026E-12    0.14695222E-07
   10   -0.19424222E+03    0.56843419E-13    0.29356362E-08

Total Energy:                     -192.2838819035 H        -5232.3106 eV
Extrapolated to 0K:               -192.2838819035 H        -5232.3106 eV
Total Mermin free energy:         -192.2838819035 H        -5232.3106 eV
Force related energy:             -192.2838819035 H        -5232.3106 eV

Volume:                              0.984439E+04 au^3   0.145879E+04 A^3
Pressure:                            0.472602E-05 au     0.139044E+09 Pa
>> Charges saved for restart in charges.bin

total energy  -1.9228388E+02 H       energy change -3.2138284E-04 H
gradient norm  1.1350971E-02 H/a0    max. gradient  2.7417216E-03 H/a0
step length    7.9450875E-02 a0      max. step      1.4694380E-02 a0

--------------------------------------------------------------------------------

***  Geometry step: 22

 iSCC Total electronic   Diff electronic      SCC error    
    1   -0.19424222E+03    0.00000000E+00    0.17921683E-02
    2   -0.19424293E+03   -0.71075942E-03    0.97843399E-03
    3   -0.19424293E+03   -0.44663762E-05    0.31960918E-03
    4   -0.19424293E+03   -0.98402546E-06    0.29494495E-04
    5   -0.19424293E+03   -0.12678839E-07    0.42979227E-05
    6   -0.19424293E+03   -0.93339736E-09    0.10817096E-05
    7   -0.19424293E+03   -0.21287860E-10    0.45081852E-06
    8   -0.19424293E+03   -0.36948222E-12    0.83369947E-07
    9   -0.19424293E+03    0.28421709E-13    0.97890407E-08

Total Energy:                     -192.2840779691 H        -5232.3160 eV
Extrapolated to 0K:               -192.2840779691 H        -5232.3160 eV
Total Mermin free energy:         -192.2840779691 H        -5232.3160 eV
Force related energy:             -192.2840779691 H        -5232.3160 eV

Volume:                              0.985261E+04 au^3   0.146001E+04 A^3
Pressure:                            0.415502E-05 au     0.122245E+09 Pa
>> Charges saved for restart in charges.bin

total energy  -1.9228408E+02 H       energy change -1.9606566E-04 H
gradient norm  9.3682134E-03 H/a0    max. gradient  1.7655334E-03 H/a0
step length    5.5440023E-02 a0      max. step      9.7462817E-03 a0

--------------------------------------------------------------------------------

***  Geometry step: 23

 iSCC Total electronic   Diff electronic      SCC error    
    1   -0.19424293E+03    0.00000000E+00    0.21779800E-02
    2   -0.19424505E+03   -0.21186204E-02    0.89174081E-03
    3   -0.19424505E+03   -0.33260385E-05    0.22615544E-03
    4   -0.19424505E+03   -0.74902184E-06    0.33026832E-04
    5   -0.19424505E+03   -0.10359884E-07    0.27296239E-05
    6   -0.19424505E+03   -0.54879479E-09    0.12087400E-05
    7   -0.19424505E+03   -0.77591267E-11    0.40943281E-06
    8   -0.19424505E+03   -0.28421709E-12    0.55535955E-07
    9   -0.19424505E+03   -0.28421709E-13    0.99702695E-08

Total Energy:                     -192.2842096338 H        -5232.3196 eV
Extrapolated to 0K:               -192.2842096338 H        -5232.3196 eV
Total Mermin free energy:         -192.2842096338 H        -5232.3196 eV
Force related energy:             -192.2842096338 H        -5232.3196 eV

Volume:                              0.985823E+04 au^3   0.146084E+04 A^3
Pressure:                            0.433669E-05 au     0.127590E+09 Pa
>> Charges saved for restart in charges.bin

total energy  -1.9228421E+02 H       energy change -1.3166465E-04 H
gradient norm  8.3211732E-03 H/a0    max. gradient  1.8153602E-03 H/a0
step length    4.1802340E-02 a0      max. step      6.9669391E-03 a0

--------------------------------------------------------------------------------

***  Geometry step: 24

 iSCC Total electronic   Diff electronic      SCC error    
    1   -0.19424505E+03    0.00000000E+00    0.14979704E-02
    2   -0.19424639E+03   -0.13380594E-02    0.78039648E-03
    3   -0.19424639E+03   -0.17008343E-05    0.20749199E-03
    4   -0.19424640E+03   -0.40839598E-06    0.23524560E-04
    5   -0.19424640E+03   -0.97884936E-08    0.17894242E-05
    6   -0.19424640E+03   -0.32588332E-09    0.74695259E-06
    7   -0.19424640E+03   -0.27000624E-11    0.21665289E-06
    8   -0.19424640E+03   -0.17053026E-12    0.24932707E-07
    9   -0.19424640E+03    0.85265128E-13    0.51319660E-08

Total Energy:                     -192.2843114812 H        -5232.3223 eV
Extrapolated to 0K:               -192.2843114812 H        -5232.3223 eV
Total Mermin free energy:         -192.2843114812 H        -5232.3223 eV
Force related energy:             -192.2843114812 H        -5232.3223 eV

Volume:                              0.986266E+04 au^3   0.146150E+04 A^3
Pressure:                            0.433014E-05 au     0.127397E+09 Pa
>> Charges saved for restart in charges.bin

total energy  -1.9228431E+02 H       energy change -1.0184741E-04 H
gradient norm  7.8486617E-03 H/a0    max. gradient  1.8172943E-03 H/a0
step length    3.1126131E-02 a0      max. step      5.5562689E-03 a0

--------------------------------------------------------------------------------

***  Geometry step: 25

 iSCC Total electronic   Diff electronic      SCC error    
    1   -0.19424640E+03    0.00000000E+00    0.19382181E-02
    2   -0.19424720E+03   -0.80124073E-03    0.11598182E-02
    3   -0.19424720E+03   -0.26972741E-05    0.29904073E-03
    4   -0.19424720E+03   -0.66744335E-06    0.29698239E-04
    5   -0.19424720E+03   -0.18388846E-07    0.33961935E-05
    6   -0.19424720E+03   -0.82326324E-09    0.11271270E-05
    7   -0.19424720E+03   -0.10402346E-10    0.33299461E-06
    8   -0.19424720E+03   -0.45474735E-12    0.43362392E-07
    9   -0.19424720E+03   -0.85265128E-13    0.65769217E-08

Total Energy:                     -192.2844378182 H        -5232.3258 eV
Extrapolated to 0K:               -192.2844378182 H        -5232.3258 eV
Total Mermin free energy:         -192.2844378182 H        -5232.3258 eV
Force related energy:             -192.2844378182 H        -5232.3258 eV

Volume:                              0.986983E+04 au^3   0.146256E+04 A^3
Pressure:                            0.392145E-05 au     0.115373E+09 Pa
>> Charges saved for restart in charges.bin

total energy  -1.9228444E+02 H       energy change -1.2633696E-04 H
gradient norm  8.5598108E-03 H/a0    max. gradient  1.5154001E-03 H/a0
step length    4.5432041E-02 a0      max. step      8.7014870E-03 a0

--------------------------------------------------------------------------------

***  Geometry step: 26

 iSCC Total electronic   Diff electronic      SCC error    
    1   -0.19424720E+03    0.00000000E+00    0.18933786E-02
    2   -0.19424712E+03    0.82333981E-04    0.11809703E-02
    3   -0.19424712E+03   -0.24611028E-05    0.34191476E-03
    4   -0.19424712E+03   -0.55590698E-06    0.27159224E-04
    5   -0.19424712E+03   -0.16458728E-07    0.28744992E-05
    6   -0.19424712E+03   -0.82741280E-09    0.11533700E-05
    7   -0.19424712E+03   -0.91517904E-11    0.38183571E-06
    8   -0.19424712E+03   -0.36948222E-12    0.41762831E-07
    9   -0.19424712E+03   -0.28421709E-13    0.64089827E-08

Total Energy:                     -192.2845722486 H        -5232.3294 eV
Extrapolated to 0K:               -192.2845722486 H        -5232.3294 eV
Total Mermin free energy:         -192.2845722486 H        -5232.3294 eV
Force related energy:             -192.2845722486 H        -5232.3294 eV

Volume:                              0.987862E+04 au^3   0.146386E+04 A^3
Pressure:                            0.311816E-05 au     0.917395E+08 Pa
>> Charges saved for restart in charges.bin

total energy  -1.9228457E+02 H       energy change -1.3443045E-04 H
gradient norm  9.3485553E-03 H/a0    max. gradient  1.9458823E-03 H/a0
step length    5.4303360E-02 a0      max. step      1.0548791E-02 a0

--------------------------------------------------------------------------------

***  Geometry step: 27

 iSCC Total electronic   Diff electronic      SCC error    
    1   -0.19424712E+03    0.00000000E+00    0.19057384E-02
    2   -0.19424626E+03    0.85715267E-03    0.11798905E-02
    3   -0.19424627E+03   -0.32962800E-05    0.37722152E-03
    4   -0.19424627E+03   -0.69845430E-06    0.25110685E-04
    5   -0.19424627E+03   -0.15524478E-07    0.31016351E-05
    6   -0.19424627E+03   -0.92740038E-09    0.13198399E-05
    7   -0.19424627E+03   -0.11425527E-10    0.39275853E-06
    8   -0.19424627E+03   -0.39790393E-12    0.47798637E-07
    9   -0.19424627E+03   -0.56843419E-13    0.60811010E-08

Total Energy:                     -192.2847277400 H        -5232.3337 eV
Extrapolated to 0K:               -192.2847277400 H        -5232.3337 eV
Total Mermin free energy:         -192.2847277400 H        -5232.3337 eV
Force related energy:             -192.2847277400 H        -5232.3337 eV

Volume:                              0.988987E+04 au^3   0.146553E+04 A^3
Pressure:                            0.198656E-05 au     0.584466E+08 Pa
>> Charges saved for restart in charges.bin

total energy  -1.9228473E+02 H       energy change -1.5549144E-04 H
gradient norm  9.6477681E-03 H/a0    max. gradient  2.0063225E-03 H/a0
step length    7.0857265E-02 a0      max. step      1.3820816E-02 a0

--------------------------------------------------------------------------------

***  Geometry step: 28

 iSCC Total electronic   Diff electronic      SCC error    
    1   -0.19424627E+03    0.00000000E+00    0.16615531E-02
    2   -0.19424508E+03    0.11895217E-02    0.73188648E-03
    3   -0.19424508E+03   -0.34451495E-05    0.25170925E-03
    4   -0.19424508E+03   -0.70783071E-06    0.24649262E-04
    5   -0.19424508E+03   -0.85907175E-08    0.23307319E-05
    6   -0.19424508E+03   -0.69698558E-09    0.88753695E-06
    7   -0.19424508E+03   -0.63096195E-11    0.30848496E-06
    8   -0.19424508E+03   -0.36948222E-12    0.39583442E-07
    9   -0.19424508E+03    0.85265128E-13    0.92331702E-08

Total Energy:                     -192.2848786402 H        -5232.3378 eV
Extrapolated to 0K:               -192.2848786402 H        -5232.3378 eV
Total Mermin free energy:         -192.2848786402 H        -5232.3378 eV
Force related energy:             -192.2848786402 H        -5232.3378 eV

Volume:                              0.990054E+04 au^3   0.146711E+04 A^3
Pressure:                            0.655276E-06 au     0.192789E+08 Pa
>> Charges saved for restart in charges.bin

total energy  -1.9228488E+02 H       energy change -1.5090012E-04 H
gradient norm  9.1282059E-03 H/a0    max. gradient  1.8198654E-03 H/a0
step length    7.1979722E-02 a0      max. step      1.4408312E-02 a0

--------------------------------------------------------------------------------

***  Geometry step: 29

 iSCC Total electronic   Diff electronic      SCC error    
    1   -0.19424508E+03    0.00000000E+00    0.15070277E-02
    2   -0.19424534E+03   -0.25505957E-03    0.65306769E-03
    3   -0.19424534E+03   -0.33345788E-05    0.17417690E-03
    4   -0.19424534E+03   -0.71974594E-06    0.29982395E-04
    5   -0.19424534E+03   -0.74290369E-08    0.28670556E-05
    6   -0.19424534E+03   -0.71327122E-09    0.75347828E-06
    7   -0.19424534E+03   -0.15802470E-10    0.29310093E-06
    8   -0.19424534E+03   -0.39790393E-12    0.60400061E-07
    9   -0.19424534E+03   -0.56843419E-13    0.10162367E-07
   10   -0.19424534E+03   -0.85265128E-13    0.23542643E-08

Total Energy:                     -192.2850222108 H        -5232.3417 eV
Extrapolated to 0K:               -192.2850222108 H        -5232.3417 eV
Total Mermin free energy:         -192.2850222108 H        -5232.3417 eV
Force related energy:             -192.2850222108 H        -5232.3417 eV

Volume:                              0.990808E+04 au^3   0.146823E+04 A^3
Pressure:                            0.566881E-07 au     0.166782E+07 Pa
>> Charges saved for restart in charges.bin

total energy  -1.9228502E+02 H       energy change -1.4357068E-04 H
gradient norm  8.7374371E-03 H/a0    max. gradient  2.3593973E-03 H/a0
step length    6.8376099E-02 a0      max. step      1.3148771E-02 a0

--------------------------------------------------------------------------------

***  Geometry step: 30

 iSCC Total electronic   Diff electronic      SCC error    
    1   -0.19424534E+03    0.00000000E+00    0.15931115E-02
    2   -0.19424687E+03   -0.15277406E-02    0.65395495E-03
    3   -0.19424687E+03   -0.30341579E-05    0.20823242E-03
    4   -0.19424687E+03   -0.64771260E-06    0.28455106E-04
    5   -0.19424687E+03   -0.69157977E-08    0.33075979E-05
    6   -0.19424687E+03   -0.66489747E-09    0.60751584E-06
    7   -0.19424687E+03   -0.16797230E-10    0.24916790E-06
    8   -0.19424687E+03   -0.39790393E-12    0.51465102E-07
    9   -0.19424687E+03   -0.85265128E-13    0.82713312E-08

Total Energy:                     -192.2851614801 H        -5232.3455 eV
Extrapolated to 0K:               -192.2851614801 H        -5232.3455 eV
Total Mermin free energy:         -192.2851614801 H        -5232.3455 eV
Force related energy:             -192.2851614801 H        -5232.3455 eV

Volume:                              0.991284E+04 au^3   0.146893E+04 A^3
Pressure:                            0.138348E-07 au     0.407035E+06 Pa
>> Charges saved for restart in charges.bin

total energy  -1.9228516E+02 H       energy change -1.3926921E-04 H
gradient norm  9.3212352E-03 H/a0    max. gradient  2.4255450E-03 H/a0
step length    6.7389984E-02 a0      max. step      1.2533389E-02 a0

--------------------------------------------------------------------------------

***  Geometry step: 31

 iSCC Total electronic   Diff electronic      SCC error    
    1   -0.19424687E+03    0.00000000E+00    0.17009606E-02
    2   -0.19424942E+03   -0.25483251E-02    0.68001274E-03
    3   -0.19424942E+03   -0.27503096E-05    0.20029975E-03
    4   -0.19424942E+03   -0.57971258E-06    0.22710141E-04
    5   -0.19424942E+03   -0.70781425E-08    0.39999768E-05
    6   -0.19424942E+03   -0.74075501E-09    0.50672784E-06
    7   -0.19424942E+03   -0.20264679E-10    0.24109092E-06
    8   -0.19424942E+03   -0.31263880E-12    0.57982343E-07
    9   -0.19424942E+03   -0.85265128E-13    0.88969108E-08

Total Energy:                     -192.2853127807 H        -5232.3496 eV
Extrapolated to 0K:               -192.2853127807 H        -5232.3496 eV
Total Mermin free energy:         -192.2853127807 H        -5232.3496 eV
Force related energy:             -192.2853127807 H        -5232.3496 eV

Volume:                              0.991571E+04 au^3   0.146936E+04 A^3
Pressure:                            0.533076E-06 au     0.156836E+08 Pa
>> Charges saved for restart in charges.bin

total energy  -1.9228531E+02 H       energy change -1.5130063E-04 H
gradient norm  9.8249634E-03 H/a0    max. gradient  2.2818745E-03 H/a0
step length    7.1914146E-02 a0      max. step      1.3577463E-02 a0

--------------------------------------------------------------------------------

***  Geometry step: 32

 iSCC Total electronic   Diff electronic      SCC error    
    1   -0.19424942E+03    0.00000000E+00    0.19769862E-02
    2   -0.19425209E+03   -0.26648532E-02    0.79821687E-03
    3   -0.19425209E+03   -0.35734686E-05    0.27693308E-03
    4   -0.19425209E+03   -0.77492453E-06    0.32844358E-04
    5   -0.19425209E+03   -0.87490264E-08    0.38413418E-05
    6   -0.19425209E+03   -0.89906393E-09    0.77522610E-06
    7   -0.19425209E+03   -0.14068746E-10    0.34439391E-06
    8   -0.19425209E+03   -0.34106051E-12    0.53261313E-07
    9   -0.19425209E+03    0.00000000E+00    0.63896213E-08

Total Energy:                     -192.2854914353 H        -5232.3544 eV
Extrapolated to 0K:               -192.2854914353 H        -5232.3544 eV
Total Mermin free energy:         -192.2854914353 H        -5232.3544 eV
Force related energy:             -192.2854914353 H        -5232.3544 eV

Volume:                              0.991852E+04 au^3   0.146977E+04 A^3
Pressure:                            0.123233E-05 au     0.362563E+08 Pa
>> Charges saved for restart in charges.bin

total energy  -1.9228549E+02 H       energy change -1.7865465E-04 H
gradient norm  9.9927993E-03 H/a0    max. gradient  2.1621778E-03 H/a0
step length    9.1573165E-02 a0      max. step      1.7472798E-02 a0

--------------------------------------------------------------------------------

***  Geometry step: 33

 iSCC Total electronic   Diff electronic      SCC error    
    1   -0.19425209E+03    0.00000000E+00    0.15155673E-02
    2   -0.19425345E+03   -0.13564358E-02    0.90497954E-03
    3   -0.19425345E+03   -0.29510450E-05    0.30391849E-03
    4   -0.19425345E+03   -0.67184212E-06    0.25967581E-04
    5   -0.19425345E+03   -0.93209849E-08    0.26011911E-05
    6   -0.19425345E+03   -0.66148687E-09    0.10143243E-05
    7   -0.19425345E+03   -0.65085715E-11    0.33143109E-06
    8   -0.19425345E+03   -0.25579538E-12    0.36642620E-07
    9   -0.19425345E+03   -0.28421709E-13    0.87891214E-08

Total Energy:                     -192.2856637137 H        -5232.3591 eV
Extrapolated to 0K:               -192.2856637137 H        -5232.3591 eV
Total Mermin free energy:         -192.2856637137 H        -5232.3591 eV
Force related energy:             -192.2856637137 H        -5232.3591 eV

Volume:                              0.992184E+04 au^3   0.147027E+04 A^3
Pressure:                            0.132533E-05 au     0.389926E+08 Pa
>> Charges saved for restart in charges.bin

total energy  -1.9228566E+02 H       energy change -1.7227832E-04 H
gradient norm  1.0013483E-02 H/a0    max. gradient  2.7476822E-03 H/a0
step length    9.8085632E-02 a0      max. step      1.8635227E-02 a0

--------------------------------------------------------------------------------

***  Geometry step: 34

 iSCC Total electronic   Diff electronic      SCC error    
    1   -0.19425345E+03    0.00000000E+00    0.15217687E-02
    2   -0.19425439E+03   -0.94062063E-03    0.92708394E-03
    3   -0.19425440E+03   -0.22375592E-05    0.25116398E-03
    4   -0.19425440E+03   -0.52511220E-06    0.28396167E-04
    5   -0.19425440E+03   -0.11448492E-07    0.35025252E-05
    6   -0.19425440E+03   -0.67157657E-09    0.10821753E-05
    7   -0.19425440E+03   -0.10857093E-10    0.39847142E-06
    8   -0.19425440E+03   -0.28421709E-12    0.55351951E-07
    9   -0.19425440E+03    0.28421709E-13    0.96506669E-08

Total Energy:                     -192.2858327771 H        -5232.3637 eV
Extrapolated to 0K:               -192.2858327771 H        -5232.3637 eV
Total Mermin free energy:         -192.2858327771 H        -5232.3637 eV
Force related energy:             -192.2858327771 H        -5232.3637 eV

Volume:                              0.992518E+04 au^3   0.147076E+04 A^3
Pressure:                            0.143636E-05 au     0.422591E+08 Pa
>> Charges saved for restart in charges.bin

total energy  -1.9228583E+02 H       energy change -1.6906345E-04 H
gradient norm  9.7412083E-03 H/a0    max. gradient  2.4264200E-03 H/a0
step length    9.6780685E-02 a0      max. step      1.8230794E-02 a0

--------------------------------------------------------------------------------

***  Geometry step: 35

 iSCC Total electronic   Diff electronic      SCC error    
    1   -0.19425440E+03    0.00000000E+00    0.22527015E-02
    2   -0.19425479E+03   -0.39172928E-03    0.10997097E-02
    3   -0.19425479E+03   -0.26738541E-05    0.28944450E-03
    4   -0.19425479E+03   -0.60297856E-06    0.32991237E-04
    5   -0.19425479E+03   -0.18753695E-07    0.37130171E-05
    6   -0.19425479E+03   -0.10021779E-08    0.11809591E-05
    7   -0.19425479E+03   -0.17422508E-10    0.41042939E-06
    8   -0.19425479E+03   -0.48316906E-12    0.62813995E-07
    9   -0.19425479E+03   -0.85265128E-13    0.87288017E-08

Total Energy:                     -192.2860039092 H        -5232.3684 eV
Extrapolated to 0K:               -192.2860039092 H        -5232.3684 eV
Total Mermin free energy:         -192.2860039092 H        -5232.3684 eV
Force related energy:             -192.2860039092 H        -5232.3684 eV

Volume:                              0.992914E+04 au^3   0.147135E+04 A^3
Pressure:                            0.124258E-05 au     0.365579E+08 Pa
>> Charges saved for restart in charges.bin

total energy  -1.9228600E+02 H       energy change -1.7113206E-04 H
gradient norm  9.4314894E-03 H/a0    max. gradient  2.3912543E-03 H/a0
step length    1.0422624E-01 a0      max. step      1.9307527E-02 a0

--------------------------------------------------------------------------------

***  Geometry step: 36

 iSCC Total electronic   Diff electronic      SCC error    
    1   -0.19425479E+03    0.00000000E+00    0.23488745E-02
    2   -0.19425551E+03   -0.71943768E-03    0.10362552E-02
    3   -0.19425551E+03   -0.26474890E-05    0.31855660E-03
    4   -0.19425551E+03   -0.59472927E-06    0.34021077E-04
    5   -0.19425551E+03   -0.15731814E-07    0.30695874E-05
    6   -0.19425551E+03   -0.10506369E-08    0.81593894E-06
    7   -0.19425551E+03   -0.15177193E-10    0.31023378E-06
    8   -0.19425551E+03   -0.39790393E-12    0.50007672E-07
    9   -0.19425551E+03   -0.56843419E-13    0.75438069E-08

Total Energy:                     -192.2861480359 H        -5232.3723 eV
Extrapolated to 0K:               -192.2861480359 H        -5232.3723 eV
Total Mermin free energy:         -192.2861480359 H        -5232.3723 eV
Force related energy:             -192.2861480359 H        -5232.3723 eV

Volume:                              0.993222E+04 au^3   0.147180E+04 A^3
Pressure:                            0.112359E-05 au     0.330572E+08 Pa
>> Charges saved for restart in charges.bin

total energy  -1.9228615E+02 H       energy change -1.4412675E-04 H
gradient norm  8.8966333E-03 H/a0    max. gradient  1.5369472E-03 H/a0
step length    8.8265635E-02 a0      max. step      1.6085494E-02 a0

--------------------------------------------------------------------------------

***  Geometry step: 37

 iSCC Total electronic   Diff electronic      SCC error    
    1   -0.19425551E+03    0.00000000E+00    0.16891492E-02
    2   -0.19425687E+03   -0.13529387E-02    0.82116885E-03
    3   -0.19425687E+03   -0.25359367E-05    0.28676558E-03
    4   -0.19425687E+03   -0.58044921E-06    0.26595993E-04
    5   -0.19425687E+03   -0.10645721E-07    0.30144847E-05
    6   -0.19425687E+03   -0.85799456E-09    0.82526764E-06
    7   -0.19425687E+03   -0.89812602E-11    0.33906016E-06
    8   -0.19425687E+03   -0.14210855E-12    0.45363863E-07
    9   -0.19425687E+03    0.00000000E+00    0.62789174E-08

Total Energy:                     -192.2862780537 H        -5232.3758 eV
Extrapolated to 0K:               -192.2862780537 H        -5232.3758 eV
Total Mermin free energy:         -192.2862780537 H        -5232.3758 eV
Force related energy:             -192.2862780537 H        -5232.3758 eV

Volume:                              0.993476E+04 au^3   0.147218E+04 A^3
Pressure:                            0.122352E-05 au     0.359972E+08 Pa
>> Charges saved for restart in charges.bin

total energy  -1.9228628E+02 H       energy change -1.3001782E-04 H
gradient norm  8.3108588E-03 H/a0    max. gradient  1.9385463E-03 H/a0
step length    8.1787951E-02 a0      max. step      1.5723597E-02 a0

--------------------------------------------------------------------------------

***  Geometry step: 38

 iSCC Total electronic   Diff electronic      SCC error    
    1   -0.19425687E+03    0.00000000E+00    0.13275607E-02
    2   -0.19425859E+03   -0.17157221E-02    0.63129401E-03
    3   -0.19425859E+03   -0.17208327E-05    0.18743320E-03
    4   -0.19425859E+03   -0.40983451E-06    0.19582040E-04
    5   -0.19425859E+03   -0.53347833E-08    0.26551355E-05
    6   -0.19425859E+03   -0.47739945E-09    0.84753995E-06
    7   -0.19425859E+03   -0.63096195E-11    0.33697641E-06
    8   -0.19425859E+03   -0.14210855E-12    0.44180190E-07
    9   -0.19425859E+03    0.56843419E-13    0.74752760E-08

Total Energy:                     -192.2863918410 H        -5232.3789 eV
Extrapolated to 0K:               -192.2863918410 H        -5232.3789 eV
Total Mermin free energy:         -192.2863918410 H        -5232.3789 eV
Force related energy:             -192.2863918410 H        -5232.3789 eV

Volume:                              0.993717E+04 au^3   0.147254E+04 A^3
Pressure:                            0.153551E-05 au     0.451763E+08 Pa
>> Charges saved for restart in charges.bin

total energy  -1.9228639E+02 H       energy change -1.1378726E-04 H
gradient norm  7.7580021E-03 H/a0    max. gradient  1.6985689E-03 H/a0
step length    7.6032410E-02 a0      max. step      1.5098613E-02 a0

--------------------------------------------------------------------------------

***  Geometry step: 39

 iSCC Total electronic   Diff electronic      SCC error    
    1   -0.19425859E+03    0.00000000E+00    0.93094327E-03
    2   -0.19426002E+03   -0.14274412E-02    0.43243613E-03
    3   -0.19426002E+03   -0.12003921E-05    0.12468757E-03
    4   -0.19426002E+03   -0.28144163E-06    0.20488397E-04
    5   -0.19426002E+03   -0.43295643E-08    0.25464196E-05
    6   -0.19426002E+03   -0.33932679E-09    0.56653732E-06
    7   -0.19426002E+03   -0.85549345E-11    0.18379230E-06
    8   -0.19426002E+03   -0.17053026E-12    0.54532426E-07
    9   -0.19426002E+03    0.28421709E-13    0.49470472E-08

Total Energy:                     -192.2864874586 H        -5232.3815 eV
Extrapolated to 0K:               -192.2864874586 H        -5232.3815 eV
Total Mermin free energy:         -192.2864874586 H        -5232.3815 eV
Force related energy:             -192.2864874586 H        -5232.3815 eV

Volume:                              0.994011E+04 au^3   0.147297E+04 A^3
Pressure:                            0.163077E-05 au     0.479789E+08 Pa
>> Charges saved for restart in charges.bin

total energy  -1.9228649E+02 H       energy change -9.5617552E-05 H
gradient norm  7.0782840E-03 H/a0    max. gradient  1.2849747E-03 H/a0
step length    6.9617976E-02 a0      max. step      1.4108585E-02 a0

--------------------------------------------------------------------------------

***  Geometry step: 40

 iSCC Total electronic   Diff electronic      SCC error    
    1   -0.19426002E+03    0.00000000E+00    0.12442321E-02
    2   -0.19426128E+03   -0.12633486E-02    0.54085977E-03
    3   -0.19426128E+03   -0.12632195E-05    0.14180479E-03
    4   -0.19426128E+03   -0.30856341E-06    0.20929689E-04
    5   -0.19426128E+03   -0.41871715E-08    0.23702971E-05
    6   -0.19426128E+03   -0.30652814E-09    0.66320438E-06
    7   -0.19426128E+03   -0.86401997E-11    0.24364650E-06
    8   -0.19426128E+03   -0.56843419E-13    0.47245643E-07
    9   -0.19426128E+03   -0.14210855E-12    0.45400466E-08

Total Energy:                     -192.2865642716 H        -5232.3836 eV
Extrapolated to 0K:               -192.2865642716 H        -5232.3836 eV
Total Mermin free energy:         -192.2865642716 H        -5232.3836 eV
Force related energy:             -192.2865642716 H        -5232.3836 eV

Volume:                              0.994274E+04 au^3   0.147336E+04 A^3
Pressure:                            0.184187E-05 au     0.541898E+08 Pa
>> Charges saved for restart in charges.bin

total energy  -1.9228656E+02 H       energy change -7.6813084E-05 H
gradient norm  6.3320769E-03 H/a0    max. gradient  1.0303818E-03 H/a0
step length    5.4537447E-02 a0      max. step      1.1348000E-02 a0

--------------------------------------------------------------------------------

***  Geometry step: 41

 iSCC Total electronic   Diff electronic      SCC error    
    1   -0.19426128E+03    0.00000000E+00    0.15248553E-02
    2   -0.19426155E+03   -0.27252818E-03    0.66318177E-03
    3   -0.19426156E+03   -0.16314355E-05    0.15624640E-03
    4   -0.19426156E+03   -0.38789651E-06    0.20158705E-04
    5   -0.19426156E+03   -0.47766662E-08    0.20899498E-05
    6   -0.19426156E+03   -0.38929215E-09    0.73690256E-06
    7   -0.19426156E+03   -0.79296569E-11    0.31348326E-06
    8   -0.19426156E+03   -0.56843419E-13    0.36798781E-07
    9   -0.19426156E+03   -0.28421709E-13    0.59579262E-08

Total Energy:                     -192.2866326854 H        -5232.3855 eV
Extrapolated to 0K:               -192.2866326854 H        -5232.3855 eV
Total Mermin free energy:         -192.2866326854 H        -5232.3855 eV
Force related energy:             -192.2866326854 H        -5232.3855 eV

Volume:                              0.994652E+04 au^3   0.147392E+04 A^3
Pressure:                            0.150850E-05 au     0.443815E+08 Pa
>> Charges saved for restart in charges.bin

total energy  -1.9228663E+02 H       energy change -6.8413760E-05 H
gradient norm  5.9517944E-03 H/a0    max. gradient  1.2746275E-03 H/a0
step length    5.2446638E-02 a0      max. step      1.1069481E-02 a0

--------------------------------------------------------------------------------

***  Geometry step: 42

 iSCC Total electronic   Diff electronic      SCC error    
    1   -0.19426156E+03    0.00000000E+00    0.11366172E-02
    2   -0.19426171E+03   -0.15768442E-03    0.53181525E-03
    3   -0.19426172E+03   -0.10825659E-05    0.12903468E-03
    4   -0.19426172E+03   -0.25322882E-06    0.18219145E-04
    5   -0.19426172E+03   -0.38135113E-08    0.18224431E-05
    6   -0.19426172E+03   -0.30064484E-09    0.60583338E-06
    7   -0.19426172E+03   -0.36948222E-11    0.24229649E-06
    8   -0.19426172E+03   -0.14210855E-12    0.32895462E-07
    9   -0.19426172E+03    0.85265128E-13    0.51190980E-08

Total Energy:                     -192.2866927772 H        -5232.3871 eV
Extrapolated to 0K:               -192.2866927772 H        -5232.3871 eV
Total Mermin free energy:         -192.2866927772 H        -5232.3871 eV
Force related energy:             -192.2866927772 H        -5232.3871 eV

Volume:                              0.994992E+04 au^3   0.147443E+04 A^3
Pressure:                            0.115191E-05 au     0.338902E+08 Pa
>> Charges saved for restart in charges.bin

total energy  -1.9228669E+02 H       energy change -6.0091802E-05 H
gradient norm  6.1313135E-03 H/a0    max. gradient  1.4257546E-03 H/a0
step length    4.3700453E-02 a0      max. step      9.5515684E-03 a0

--------------------------------------------------------------------------------

***  Geometry step: 43

 iSCC Total electronic   Diff electronic      SCC error    
    1   -0.19426172E+03    0.00000000E+00    0.11085311E-02
    2   -0.19426184E+03   -0.12480496E-03    0.53872579E-03
    3   -0.19426184E+03   -0.12416808E-05    0.16649093E-03
    4   -0.19426184E+03   -0.27408674E-06    0.21336480E-04
    5   -0.19426184E+03   -0.56088538E-08    0.17947571E-05
    6   -0.19426184E+03   -0.42282977E-09    0.62500503E-06
    7   -0.19426184E+03   -0.40927262E-11    0.23734123E-06
    8   -0.19426184E+03    0.28421709E-13    0.33702174E-07
    9   -0.19426184E+03   -0.28421709E-13    0.40182160E-08

Total Energy:                     -192.2867679191 H        -5232.3892 eV
Extrapolated to 0K:               -192.2867679191 H        -5232.3892 eV
Total Mermin free energy:         -192.2867679191 H        -5232.3892 eV
Force related energy:             -192.2867679191 H        -5232.3892 eV

Volume:                              0.995477E+04 au^3   0.147515E+04 A^3
Pressure:                            0.670705E-06 au     0.197328E+08 Pa
>> Charges saved for restart in charges.bin

total energy  -1.9228677E+02 H       energy change -7.5141915E-05 H
gradient norm  6.6674662E-03 H/a0    max. gradient  1.5767436E-03 H/a0
step length    5.9549047E-02 a0      max. step      1.3138845E-02 a0

--------------------------------------------------------------------------------

***  Geometry step: 44

 iSCC Total electronic   Diff electronic      SCC error    
    1   -0.19426184E+03    0.00000000E+00    0.11290293E-02
    2   -0.19426197E+03   -0.12292475E-03    0.57490861E-03
    3   -0.19426197E+03   -0.11278983E-05    0.16184456E-03
    4   -0.19426197E+03   -0.24095849E-06    0.17931986E-04
    5   -0.19426197E+03   -0.44689727E-08    0.21115520E-05
    6   -0.19426197E+03   -0.34350478E-09    0.54200347E-06
    7   -0.19426197E+03   -0.44053650E-11    0.22845342E-06
    8   -0.19426197E+03   -0.14210855E-12    0.31757209E-07
    9   -0.19426197E+03   -0.28421709E-13    0.33829100E-08

Total Energy:                     -192.2868458985 H        -5232.3913 eV
Extrapolated to 0K:               -192.2868458985 H        -5232.3913 eV
Total Mermin free energy:         -192.2868458985 H        -5232.3913 eV
Force related energy:             -192.2868458985 H        -5232.3913 eV

Volume:                              0.996050E+04 au^3   0.147599E+04 A^3
Pressure:                            0.104152E-06 au     0.306426E+07 Pa
>> Charges saved for restart in charges.bin

total energy  -1.9228685E+02 H       energy change -7.7979412E-05 H
gradient norm  6.7733992E-03 H/a0    max. gradient  1.2983971E-03 H/a0
step length    7.1315980E-02 a0      max. step      1.5883880E-02 a0

--------------------------------------------------------------------------------

***  Geometry step: 45

 iSCC Total electronic   Diff electronic      SCC error    
    1   -0.19426197E+03    0.00000000E+00    0.10422927E-02
    2   -0.19426235E+03   -0.38824235E-03    0.43527081E-03
    3   -0.19426236E+03   -0.12760623E-05    0.11398592E-03
    4   -0.19426236E+03   -0.28912277E-06    0.13926603E-04
    5   -0.19426236E+03   -0.24380427E-08    0.13259797E-05
    6   -0.19426236E+03   -0.21086066E-09    0.50247396E-06
    7   -0.19426236E+03   -0.33537617E-11    0.21815693E-06
    8   -0.19426236E+03   -0.28421709E-13    0.36254739E-07
    9   -0.19426236E+03   -0.85265128E-13    0.38268886E-08

Total Energy:                     -192.2869203318 H        -5232.3933 eV
Extrapolated to 0K:               -192.2869203318 H        -5232.3933 eV
Total Mermin free energy:         -192.2869203318 H        -5232.3933 eV
Force related energy:             -192.2869203318 H        -5232.3933 eV

Volume:                              0.996616E+04 au^3   0.147683E+04 A^3
Pressure:                           -0.238661E-06 au    -0.702164E+07 Pa
>> Charges saved for restart in charges.bin

total energy  -1.9228692E+02 H       energy change -7.4433262E-05 H
gradient norm  6.1732870E-03 H/a0    max. gradient  1.2846785E-03 H/a0
step length    7.8910374E-02 a0      max. step      1.7937024E-02 a0

--------------------------------------------------------------------------------

***  Geometry step: 46

 iSCC Total electronic   Diff electronic      SCC error    
    1   -0.19426236E+03    0.00000000E+00    0.10888009E-02
    2   -0.19426292E+03   -0.55930220E-03    0.46730108E-03
    3   -0.19426292E+03   -0.13226736E-05    0.86980640E-04
    4   -0.19426292E+03   -0.30557447E-06    0.13873167E-04
    5   -0.19426292E+03   -0.17698483E-08    0.13959026E-05
    6   -0.19426292E+03   -0.12011014E-09    0.43070201E-06
    7   -0.19426292E+03   -0.25579538E-11    0.15357986E-06
    8   -0.19426292E+03   -0.56843419E-13    0.19835028E-07
    9   -0.19426292E+03   -0.85265128E-13    0.34854302E-08

Total Energy:                     -192.2869808800 H        -5232.3950 eV
Extrapolated to 0K:               -192.2869808800 H        -5232.3950 eV
Total Mermin free energy:         -192.2869808800 H        -5232.3950 eV
Force related energy:             -192.2869808800 H        -5232.3950 eV

Volume:                              0.997051E+04 au^3   0.147748E+04 A^3
Pressure:                           -0.493651E-06 au    -0.145237E+08 Pa
>> Charges saved for restart in charges.bin

total energy  -1.9228698E+02 H       energy change -6.0548186E-05 H
gradient norm  5.5001607E-03 H/a0    max. gradient  1.1079453E-03 H/a0
step length    7.1089369E-02 a0      max. step      1.6344320E-02 a0

--------------------------------------------------------------------------------

***  Geometry step: 47

 iSCC Total electronic   Diff electronic      SCC error    
    1   -0.19426292E+03    0.00000000E+00    0.97742976E-03
    2   -0.19426397E+03   -0.10497624E-02    0.42448482E-03
    3   -0.19426397E+03   -0.91415930E-06    0.74454835E-04
    4   -0.19426397E+03   -0.20346715E-06    0.98105040E-05
    5   -0.19426397E+03   -0.15496937E-08    0.14183750E-05
    6   -0.19426397E+03   -0.12536816E-09    0.30317953E-06
    7   -0.19426397E+03   -0.22737368E-11    0.11568360E-06
    8   -0.19426397E+03    0.00000000E+00    0.23900026E-07
    9   -0.19426397E+03   -0.28421709E-13    0.42761439E-08

Total Energy:                     -192.2870291093 H        -5232.3963 eV
Extrapolated to 0K:               -192.2870291093 H        -5232.3963 eV
Total Mermin free energy:         -192.2870291093 H        -5232.3963 eV
Force related energy:             -192.2870291093 H        -5232.3963 eV

Volume:                              0.997277E+04 au^3   0.147781E+04 A^3
Pressure:                           -0.325793E-06 au    -0.958516E+07 Pa
>> Charges saved for restart in charges.bin

total energy  -1.9228703E+02 H       energy change -4.8229295E-05 H
gradient norm  5.6575869E-03 H/a0    max. gradient  1.0602422E-03 H/a0
step length    5.5760822E-02 a0      max. step      1.3186190E-02 a0

--------------------------------------------------------------------------------

***  Geometry step: 48

 iSCC Total electronic   Diff electronic      SCC error    
    1   -0.19426397E+03    0.00000000E+00    0.99953708E-03
    2   -0.19426504E+03   -0.10723611E-02    0.42965719E-03
    3   -0.19426504E+03   -0.99988878E-06    0.13746682E-03
    4   -0.19426504E+03   -0.22160782E-06    0.12732754E-04
    5   -0.19426504E+03   -0.31926390E-08    0.14979265E-05
    6   -0.19426504E+03   -0.21333335E-09    0.34972405E-06
    7   -0.19426504E+03   -0.36948222E-11    0.13817683E-06
    8   -0.19426504E+03   -0.85265128E-13    0.26880265E-07
    9   -0.19426504E+03   -0.28421709E-13    0.39471830E-08

Total Energy:                     -192.2870869768 H        -5232.3979 eV
Extrapolated to 0K:               -192.2870869768 H        -5232.3979 eV
Total Mermin free energy:         -192.2870869768 H        -5232.3979 eV
Force related energy:             -192.2870869768 H        -5232.3979 eV

Volume:                              0.997448E+04 au^3   0.147807E+04 A^3
Pressure:                           -0.254684E-06 au    -0.749306E+07 Pa
>> Charges saved for restart in charges.bin

total energy  -1.9228709E+02 H       energy change -5.7867500E-05 H
gradient norm  6.2736542E-03 H/a0    max. gradient  1.2262422E-03 H/a0
step length    6.0071816E-02 a0      max. step      1.4504649E-02 a0

--------------------------------------------------------------------------------

***  Geometry step: 49

 iSCC Total electronic   Diff electronic      SCC error    
    1   -0.19426504E+03    0.00000000E+00    0.14844725E-02
    2   -0.19426669E+03   -0.16480751E-02    0.64770099E-03
    3   -0.19426669E+03   -0.14506913E-05    0.19984803E-03
    4   -0.19426669E+03   -0.30518970E-06    0.17343244E-04
    5   -0.19426669E+03   -0.49006417E-08    0.20928263E-05
    6   -0.19426669E+03   -0.32375169E-09    0.71203760E-06
    7   -0.19426669E+03   -0.27569058E-11    0.22312472E-06
    8   -0.19426669E+03   -0.11368684E-12    0.24870226E-07
    9   -0.19426669E+03    0.00000000E+00    0.59799059E-08

Total Energy:                     -192.2871626577 H        -5232.3999 eV
Extrapolated to 0K:               -192.2871626577 H        -5232.3999 eV
Total Mermin free energy:         -192.2871626577 H        -5232.3999 eV
Force related energy:             -192.2871626577 H        -5232.3999 eV

Volume:                              0.997511E+04 au^3   0.147816E+04 A^3
Pressure:                            0.168257E-06 au     0.495028E+07 Pa
>> Charges saved for restart in charges.bin

total energy  -1.9228716E+02 H       energy change -7.5680908E-05 H
gradient norm  6.8190517E-03 H/a0    max. gradient  1.2042288E-03 H/a0
step length    7.1544911E-02 a0      max. step      1.7180483E-02 a0

--------------------------------------------------------------------------------

***  Geometry step: 50

 iSCC Total electronic   Diff electronic      SCC error    
    1   -0.19426669E+03    0.00000000E+00    0.13571702E-02
    2   -0.19426694E+03   -0.24560959E-03    0.82023884E-03
    3   -0.19426694E+03   -0.14767894E-05    0.23111241E-03
    4   -0.19426694E+03   -0.32276873E-06    0.17475979E-04
    5   -0.19426694E+03   -0.64460153E-08    0.21905368E-05
    6   -0.19426694E+03   -0.33304559E-09    0.86041890E-06
    7   -0.19426694E+03   -0.19895197E-11    0.24687499E-06
    8   -0.19426694E+03   -0.11368684E-12    0.24376693E-07
    9   -0.19426694E+03    0.56843419E-13    0.73063950E-08

Total Energy:                     -192.2872438404 H        -5232.4021 eV
Extrapolated to 0K:               -192.2872438404 H        -5232.4021 eV
Total Mermin free energy:         -192.2872438404 H        -5232.4021 eV
Force related energy:             -192.2872438404 H        -5232.4021 eV

Volume:                              0.997625E+04 au^3   0.147833E+04 A^3
Pressure:                            0.205138E-06 au     0.603536E+07 Pa
>> Charges saved for restart in charges.bin

total energy  -1.9228724E+02 H       energy change -8.1182725E-05 H
gradient norm  6.8289722E-03 H/a0    max. gradient  1.5413431E-03 H/a0
step length    8.2428874E-02 a0      max. step      1.9534329E-02 a0

--------------------------------------------------------------------------------

***  Geometry step: 51

 iSCC Total electronic   Diff electronic      SCC error    
    1   -0.19426694E+03    0.00000000E+00    0.10939094E-02
    2   -0.19426620E+03    0.73823926E-03    0.65448746E-03
    3   -0.19426620E+03   -0.12791070E-05    0.18798703E-03
    4   -0.19426620E+03   -0.29059987E-06    0.17218578E-04
    5   -0.19426620E+03   -0.48370907E-08    0.15783218E-05
    6   -0.19426620E+03   -0.31528202E-09    0.59594911E-06
    7   -0.19426620E+03   -0.20463631E-11    0.20640583E-06
    8   -0.19426620E+03   -0.17053026E-12    0.26747933E-07
    9   -0.19426620E+03    0.85265128E-13    0.45477635E-08

Total Energy:                     -192.2873158389 H        -5232.4041 eV
Extrapolated to 0K:               -192.2873158389 H        -5232.4041 eV
Total Mermin free energy:         -192.2873158389 H        -5232.4041 eV
Force related energy:             -192.2873158389 H        -5232.4041 eV

Volume:                              0.997692E+04 au^3   0.147843E+04 A^3
Pressure:                            0.462338E-07 au     0.136025E+07 Pa
>> Charges saved for restart in charges.bin

total energy  -1.9228732E+02 H       energy change -7.1998542E-05 H
gradient norm  6.3089591E-03 H/a0    max. gradient  2.0167269E-03 H/a0
step length    6.7551460E-02 a0      max. step      1.5080727E-02 a0

--------------------------------------------------------------------------------

***  Geometry step: 52

 iSCC Total electronic   Diff electronic      SCC error    
    1   -0.19426620E+03    0.00000000E+00    0.89495078E-03
    2   -0.19426472E+03    0.14845387E-02    0.45399233E-03
    3   -0.19426472E+03   -0.93738390E-06    0.15439921E-03
    4   -0.19426472E+03   -0.21814893E-06    0.16164063E-04
    5   -0.19426472E+03   -0.43033879E-08    0.25459843E-05
    6   -0.19426472E+03   -0.31116087E-09    0.39744674E-06
    7   -0.19426472E+03   -0.38369308E-11    0.15285631E-06
    8   -0.19426472E+03   -0.85265128E-13    0.28412277E-07
    9   -0.19426472E+03   -0.56843419E-13    0.33437857E-08

Total Energy:                     -192.2873811391 H        -5232.4059 eV
Extrapolated to 0K:               -192.2873811391 H        -5232.4059 eV
Total Mermin free energy:         -192.2873811391 H        -5232.4059 eV
Force related energy:             -192.2873811391 H        -5232.4059 eV

Volume:                              0.997780E+04 au^3   0.147856E+04 A^3
Pressure:                           -0.452956E-06 au    -0.133264E+08 Pa
>> Charges saved for restart in charges.bin

total energy  -1.9228738E+02 H       energy change -6.5300134E-05 H
gradient norm  5.9277463E-03 H/a0    max. gradient  2.0183412E-03 H/a0
step length    5.8936594E-02 a0      max. step      1.2735630E-02 a0

--------------------------------------------------------------------------------

***  Geometry step: 53

 iSCC Total electronic   Diff electronic      SCC error    
    1   -0.19426472E+03    0.00000000E+00    0.98703163E-03
    2   -0.19426394E+03    0.77754291E-03    0.55256072E-03
    3   -0.19426394E+03   -0.81427643E-06    0.15650439E-03
    4   -0.19426394E+03   -0.19337156E-06    0.15035840E-04
    5   -0.19426394E+03   -0.37792347E-08    0.19142145E-05
    6   -0.19426394E+03   -0.23862867E-09    0.44882294E-06
    7   -0.19426394E+03   -0.29558578E-11    0.15971770E-06
    8   -0.19426394E+03    0.56843419E-13    0.28197582E-07
    9   -0.19426394E+03   -0.28421709E-13    0.39328705E-08

Total Energy:                     -192.2874418840 H        -5232.4075 eV
Extrapolated to 0K:               -192.2874418840 H        -5232.4075 eV
Total Mermin free energy:         -192.2874418840 H        -5232.4075 eV
Force related energy:             -192.2874418840 H        -5232.4075 eV

Volume:                              0.997869E+04 au^3   0.147869E+04 A^3
[...]

Total Energy:                     -192.2880835381 H        -5232.4250 eV
Extrapolated to 0K:               -192.2880835381 H        -5232.4250 eV
Total Mermin free energy:         -192.2880835381 H        -5232.4250 eV
Force related energy:             -192.2880835381 H        -5232.4250 eV

Volume:                              0.998894E+04 au^3   0.148021E+04 A^3
Pressure:                           -0.733573E-07 au    -0.215825E+07 Pa
>> Charges saved for restart in charges.bin

total energy  -1.9228808E+02 H       energy change -1.8699853E-06 H
gradient norm  1.0719049E-03 H/a0    max. gradient  2.3771303E-04 H/a0
step length    4.3612777E-03 a0      max. step      8.5547314E-04 a0

--------------------------------------------------------------------------------

***  Geometry step: 96

 iSCC Total electronic   Diff electronic      SCC error    
    1   -0.19427335E+03    0.00000000E+00    0.24860628E-03
    2   -0.19427341E+03   -0.61917378E-04    0.97400295E-04
    3   -0.19427342E+03   -0.59065258E-07    0.28770393E-04
    4   -0.19427342E+03   -0.11802342E-07    0.36702600E-05
    5   -0.19427342E+03   -0.11002044E-09    0.31257624E-06
    6   -0.19427342E+03   -0.10032863E-10    0.88213628E-07
    7   -0.19427342E+03    0.00000000E+00    0.21042116E-07
    8   -0.19427342E+03   -0.85265128E-13    0.35992040E-08

Total Energy:                     -192.2880855591 H        -5232.4250 eV
Extrapolated to 0K:               -192.2880855591 H        -5232.4250 eV
Total Mermin free energy:         -192.2880855591 H        -5232.4250 eV
Force related energy:             -192.2880855591 H        -5232.4250 eV

Volume:                              0.998911E+04 au^3   0.148023E+04 A^3
Pressure:                           -0.105294E-06 au    -0.309785E+07 Pa
>> Charges saved for restart in charges.bin

total energy  -1.9228809E+02 H       energy change -2.0210514E-06 H
gradient norm  1.0330335E-03 H/a0    max. gradient  1.8557486E-04 H/a0
step length    1.3376025E-02 a0      max. step      3.0890358E-03 a0

--------------------------------------------------------------------------------

***  Geometry step: 97

 iSCC Total electronic   Diff electronic      SCC error    
    1   -0.19427342E+03    0.00000000E+00    0.21298706E-03
    2   -0.19427343E+03   -0.17905204E-04    0.87933414E-04
    3   -0.19427343E+03   -0.60220145E-07    0.27561831E-04
    4   -0.19427343E+03   -0.12375068E-07    0.45455086E-05
    5   -0.19427343E+03   -0.18053470E-09    0.33299937E-06
    6   -0.19427343E+03   -0.11851853E-10    0.76654830E-07
    7   -0.19427343E+03   -0.28421709E-12    0.19638252E-07
    8   -0.19427343E+03   -0.56843419E-13    0.76825204E-08

Total Energy:                     -192.2880873403 H        -5232.4251 eV
Extrapolated to 0K:               -192.2880873403 H        -5232.4251 eV
Total Mermin free energy:         -192.2880873403 H        -5232.4251 eV
Force related energy:             -192.2880873403 H        -5232.4251 eV

Volume:                              0.998964E+04 au^3   0.148031E+04 A^3
Pressure:                           -0.175199E-06 au    -0.515453E+07 Pa
>> Charges saved for restart in charges.bin

total energy  -1.9228809E+02 H       energy change -1.7811149E-06 H
gradient norm  1.0966523E-03 H/a0    max. gradient  2.8640310E-04 H/a0
step length    1.7109434E-02 a0      max. step      4.0843720E-03 a0

--------------------------------------------------------------------------------

***  Geometry step: 98

 iSCC Total electronic   Diff electronic      SCC error    
    1   -0.19427343E+03    0.00000000E+00    0.15494530E-03
    2   -0.19427349E+03   -0.61735361E-04    0.96454676E-04
    3   -0.19427349E+03   -0.14982049E-07    0.25434785E-04
    4   -0.19427349E+03   -0.36968117E-08    0.28594317E-05
    5   -0.19427349E+03   -0.89869445E-10    0.25070870E-06
    6   -0.19427349E+03   -0.45474735E-11    0.61833852E-07
    7   -0.19427349E+03   -0.56843419E-13    0.10903237E-07
    8   -0.19427349E+03    0.00000000E+00    0.25799349E-08

Total Energy:                     -192.2880888527 H        -5232.4251 eV
Extrapolated to 0K:               -192.2880888527 H        -5232.4251 eV
Total Mermin free energy:         -192.2880888527 H        -5232.4251 eV
Force related energy:             -192.2880888527 H        -5232.4251 eV

Volume:                              0.998963E+04 au^3   0.148031E+04 A^3
Pressure:                           -0.141502E-06 au    -0.416313E+07 Pa
>> Charges saved for restart in charges.bin

total energy  -1.9228809E+02 H       energy change -1.5124281E-06 H
gradient norm  9.1763625E-04 H/a0    max. gradient  1.9836955E-04 H/a0
step length    3.1706420E-03 a0      max. step      5.6197940E-04 a0

--------------------------------------------------------------------------------

***  Geometry step: 99

 iSCC Total electronic   Diff electronic      SCC error    
    1   -0.19427349E+03    0.00000000E+00    0.31034157E-03
    2   -0.19427349E+03    0.80260216E-06    0.18982636E-03
    3   -0.19427349E+03   -0.38865466E-07    0.32612033E-04
    4   -0.19427349E+03   -0.10509723E-07    0.49053583E-05
    5   -0.19427349E+03   -0.51500137E-09    0.44287798E-06
    6   -0.19427349E+03   -0.13898216E-10    0.11645719E-06
    7   -0.19427349E+03   -0.39790393E-12    0.26902104E-07
    8   -0.19427349E+03    0.11368684E-12    0.58670127E-08

Total Energy:                     -192.2880908894 H        -5232.4252 eV
Extrapolated to 0K:               -192.2880908894 H        -5232.4252 eV
Total Mermin free energy:         -192.2880908894 H        -5232.4252 eV
Force related energy:             -192.2880908894 H        -5232.4252 eV

Volume:                              0.998961E+04 au^3   0.148031E+04 A^3
Pressure:                           -0.127185E-06 au    -0.374190E+07 Pa
>> Charges saved for restart in charges.bin

total energy  -1.9228809E+02 H       energy change -2.0367239E-06 H
gradient norm  8.8761149E-04 H/a0    max. gradient  1.9319603E-04 H/a0
step length    6.5200514E-03 a0      max. step      1.3052607E-03 a0

--------------------------------------------------------------------------------

***  Geometry step: 100

 iSCC Total electronic   Diff electronic      SCC error    
    1   -0.19427349E+03    0.00000000E+00    0.13006751E-03
    2   -0.19427360E+03   -0.10769077E-03    0.69964343E-04
    3   -0.19427360E+03   -0.14643803E-07    0.18346259E-04
    4   -0.19427360E+03   -0.34888501E-08    0.12294821E-05
    5   -0.19427360E+03   -0.72759576E-10    0.11757516E-06
    6   -0.19427360E+03   -0.21032065E-11    0.28498529E-07
    7   -0.19427360E+03   -0.28421709E-13    0.74842723E-08

Total Energy:                     -192.2880918980 H        -5232.4252 eV
Extrapolated to 0K:               -192.2880918980 H        -5232.4252 eV
Total Mermin free energy:         -192.2880918980 H        -5232.4252 eV
Force related energy:             -192.2880918980 H        -5232.4252 eV

Volume:                              0.998963E+04 au^3   0.148031E+04 A^3
Pressure:                           -0.142229E-06 au    -0.418453E+07 Pa
>> Charges saved for restart in charges.bin

total energy  -1.9228809E+02 H       energy change -1.0086216E-06 H
gradient norm  8.6465447E-04 H/a0    max. gradient  1.8984530E-04 H/a0
step length    4.1790094E-03 a0      max. step      6.7198894E-04 a0

--------------------------------------------------------------------------------

***  Geometry step: 101

 iSCC Total electronic   Diff electronic      SCC error    
    1   -0.19427360E+03    0.00000000E+00    0.18562305E-03
    2   -0.19427386E+03   -0.26113248E-03    0.72824176E-04
    3   -0.19427386E+03   -0.38727165E-07    0.22628588E-04
    4   -0.19427386E+03   -0.79048448E-08    0.33270770E-05
    5   -0.19427386E+03   -0.82451379E-10    0.18987614E-06
    6   -0.19427386E+03   -0.70201622E-11    0.68577659E-07
    7   -0.19427386E+03   -0.85265128E-13    0.12139047E-07
    8   -0.19427386E+03   -0.28421709E-13    0.34392014E-08

Total Energy:                     -192.2880931154 H        -5232.4252 eV
Extrapolated to 0K:               -192.2880931154 H        -5232.4252 eV
Total Mermin free energy:         -192.2880931154 H        -5232.4252 eV
Force related energy:             -192.2880931154 H        -5232.4252 eV

Volume:                              0.998964E+04 au^3   0.148031E+04 A^3
Pressure:                           -0.224664E-07 au    -0.660984E+06 Pa
>> Charges saved for restart in charges.bin

total energy  -1.9228809E+02 H       energy change -1.2174147E-06 H
gradient norm  7.4659391E-04 H/a0    max. gradient  1.5396499E-04 H/a0
step length    8.7736268E-03 a0      max. step      1.6549993E-03 a0

--------------------------------------------------------------------------------

***  Geometry step: 102

 iSCC Total electronic   Diff electronic      SCC error    
    1   -0.19427386E+03    0.00000000E+00    0.24366631E-03
    2   -0.19427359E+03    0.27040309E-03    0.10404931E-03
    3   -0.19427359E+03   -0.44005503E-07    0.28278856E-04
    4   -0.19427359E+03   -0.79770928E-08    0.27627969E-05
    5   -0.19427359E+03   -0.10848566E-09    0.39206169E-06
    6   -0.19427359E+03   -0.84128260E-11    0.80600500E-07
    7   -0.19427359E+03   -0.17053026E-12    0.18203369E-07
    8   -0.19427359E+03    0.56843419E-13    0.46548974E-08

Total Energy:                     -192.2880945400 H        -5232.4253 eV
Extrapolated to 0K:               -192.2880945400 H        -5232.4253 eV
Total Mermin free energy:         -192.2880945400 H        -5232.4253 eV
Force related energy:             -192.2880945400 H        -5232.4253 eV

Volume:                              0.999056E+04 au^3   0.148045E+04 A^3
Pressure:                           -0.214915E-06 au    -0.632302E+07 Pa
>> Charges saved for restart in charges.bin

total energy  -1.9228809E+02 H       energy change -1.4245754E-06 H
gradient norm  7.8060289E-04 H/a0    max. gradient  1.9171718E-04 H/a0
step length    3.8273332E-02 a0      max. step      7.5453484E-03 a0

--------------------------------------------------------------------------------

***  Geometry step: 103

 iSCC Total electronic   Diff electronic      SCC error    
    1   -0.19427359E+03    0.00000000E+00    0.90556720E-04
    2   -0.19427372E+03   -0.13127319E-03    0.55449426E-04
    3   -0.19427372E+03   -0.58422245E-08    0.16672574E-04
    4   -0.19427372E+03   -0.14141506E-08    0.13278288E-05
    5   -0.19427372E+03   -0.32400749E-10    0.17886433E-06
    6   -0.19427372E+03   -0.18189894E-11    0.34443541E-07
    7   -0.19427372E+03    0.00000000E+00    0.71611121E-08

Total Energy:                     -192.2880952107 H        -5232.4253 eV
Extrapolated to 0K:               -192.2880952107 H        -5232.4253 eV
Total Mermin free energy:         -192.2880952107 H        -5232.4253 eV
Force related energy:             -192.2880952107 H        -5232.4253 eV

Volume:                              0.999049E+04 au^3   0.148044E+04 A^3
Pressure:                           -0.167844E-06 au    -0.493815E+07 Pa
>> Charges saved for restart in charges.bin

total energy  -1.9228810E+02 H       energy change -6.7066367E-07 H
gradient norm  6.4045547E-04 H/a0    max. gradient  1.4683224E-04 H/a0
step length    1.4793935E-03 a0      max. step      2.9411292E-04 a0

--------------------------------------------------------------------------------

***  Geometry step: 104

 iSCC Total electronic   Diff electronic      SCC error    
    1   -0.19427372E+03    0.00000000E+00    0.22900908E-03
    2   -0.19427389E+03   -0.16292469E-03    0.96115567E-04
    3   -0.19427389E+03   -0.39939067E-07    0.33045954E-04
    4   -0.19427389E+03   -0.91542631E-08    0.37160391E-05
    5   -0.19427389E+03   -0.13608314E-09    0.36690464E-06
    6   -0.19427389E+03   -0.11709744E-10    0.84704618E-07
    7   -0.19427389E+03   -0.85265128E-13    0.20072065E-07
    8   -0.19427389E+03   -0.85265128E-13    0.52332552E-08

Total Energy:                     -192.2880963562 H        -5232.4253 eV
Extrapolated to 0K:               -192.2880963562 H        -5232.4253 eV
Total Mermin free energy:         -192.2880963562 H        -5232.4253 eV
Force related energy:             -192.2880963562 H        -5232.4253 eV

Volume:                              0.999040E+04 au^3   0.148042E+04 A^3
Pressure:                           -0.493715E-07 au    -0.145256E+07 Pa
>> Charges saved for restart in charges.bin

total energy  -1.9228810E+02 H       energy change -1.1454936E-06 H
gradient norm  7.7001108E-04 H/a0    max. gradient  2.0789346E-04 H/a0
step length    4.3327036E-03 a0      max. step      9.4277609E-04 a0

--------------------------------------------------------------------------------

***  Geometry step: 105

 iSCC Total electronic   Diff electronic      SCC error    
    1   -0.19427389E+03    0.00000000E+00    0.12705474E-03
    2   -0.19427381E+03    0.73366939E-04    0.56584484E-04
    3   -0.19427381E+03   -0.15158065E-07    0.20152595E-04
    4   -0.19427381E+03   -0.33864183E-08    0.22865305E-05
    5   -0.19427381E+03   -0.40301984E-10    0.24779302E-06
    6   -0.19427381E+03   -0.37800874E-11    0.48433014E-07
    7   -0.19427381E+03   -0.11368684E-12    0.94163704E-08

Total Energy:                     -192.2880969257 H        -5232.4253 eV
Extrapolated to 0K:               -192.2880969257 H        -5232.4253 eV
Total Mermin free energy:         -192.2880969257 H        -5232.4253 eV
Force related energy:             -192.2880969257 H        -5232.4253 eV

Volume:                              0.999041E+04 au^3   0.148043E+04 A^3
Pressure:                           -0.151442E-06 au    -0.445556E+07 Pa
>> Charges saved for restart in charges.bin

total energy  -1.9228810E+02 H       energy change -5.6955901E-07 H
gradient norm  7.4458878E-04 H/a0    max. gradient  2.6546011E-04 H/a0
step length    3.7036401E-03 a0      max. step      1.0050936E-03 a0

--------------------------------------------------------------------------------

***  Geometry step: 106

 iSCC Total electronic   Diff electronic      SCC error    
    1   -0.19427381E+03    0.00000000E+00    0.85909727E-04
    2   -0.19427384E+03   -0.25394035E-04    0.42970773E-04
    3   -0.19427384E+03   -0.57300724E-08    0.14310529E-04
    4   -0.19427384E+03   -0.13311023E-08    0.13539422E-05
    5   -0.19427384E+03   -0.30752290E-10    0.20447782E-06
    6   -0.19427384E+03   -0.21032065E-11    0.43882317E-07
    7   -0.19427384E+03   -0.28421709E-13    0.60934258E-08

Total Energy:                     -192.2880975071 H        -5232.4254 eV
Extrapolated to 0K:               -192.2880975071 H        -5232.4254 eV
Total Mermin free energy:         -192.2880975071 H        -5232.4254 eV
Force related energy:             -192.2880975071 H        -5232.4254 eV

Volume:                              0.999031E+04 au^3   0.148041E+04 A^3
Pressure:                           -0.154200E-06 au    -0.453671E+07 Pa
>> Charges saved for restart in charges.bin

total energy  -1.9228810E+02 H       energy change -5.8140392E-07 H
gradient norm  6.2844055E-04 H/a0    max. gradient  1.5426968E-04 H/a0
step length    3.6510495E-03 a0      max. step      8.7854714E-04 a0

--------------------------------------------------------------------------------

***  Geometry step: 107

 iSCC Total electronic   Diff electronic      SCC error    
    1   -0.19427384E+03    0.00000000E+00    0.18451902E-03
    2   -0.19427388E+03   -0.46010360E-04    0.86573545E-04
    3   -0.19427388E+03   -0.20594854E-07    0.19205440E-04
    4   -0.19427388E+03   -0.46655941E-08    0.24343673E-05
    5   -0.19427388E+03   -0.73384854E-10    0.35691064E-06
    6   -0.19427388E+03   -0.57411853E-11    0.70145254E-07
    7   -0.19427388E+03   -0.19895197E-12    0.11652912E-07
    8   -0.19427388E+03    0.28421709E-13    0.29380325E-08

Total Energy:                     -192.2880981714 H        -5232.4254 eV
Extrapolated to 0K:               -192.2880981714 H        -5232.4254 eV
Total Mermin free energy:         -192.2880981714 H        -5232.4254 eV
Force related energy:             -192.2880981714 H        -5232.4254 eV

Volume:                              0.999015E+04 au^3   0.148039E+04 A^3
Pressure:                           -0.859826E-07 au    -0.252969E+07 Pa
>> Charges saved for restart in charges.bin

total energy  -1.9228810E+02 H       energy change -6.6424209E-07 H
gradient norm  6.5293386E-04 H/a0    max. gradient  1.6192489E-04 H/a0
step length    6.1505490E-03 a0      max. step      1.4771279E-03 a0

--------------------------------------------------------------------------------

***  Geometry step: 108

 iSCC Total electronic   Diff electronic      SCC error    
    1   -0.19427388E+03    0.00000000E+00    0.71998859E-04
    2   -0.19427376E+03    0.12332226E-03    0.46785924E-04
    3   -0.19427376E+03   -0.47025139E-08    0.14964321E-04
    4   -0.19427376E+03   -0.11632437E-08    0.11398246E-05
    5   -0.19427376E+03   -0.20719426E-10    0.10258661E-06
    6   -0.19427376E+03   -0.12221335E-11    0.24748859E-07
    7   -0.19427376E+03    0.28421709E-13    0.33855434E-08

Total Energy:                     -192.2880986260 H        -5232.4254 eV
Extrapolated to 0K:               -192.2880986260 H        -5232.4254 eV
Total Mermin free energy:         -192.2880986260 H        -5232.4254 eV
Force related energy:             -192.2880986260 H        -5232.4254 eV

Volume:                              0.999021E+04 au^3   0.148040E+04 A^3
Pressure:                           -0.162016E-06 au    -0.476668E+07 Pa
>> Charges saved for restart in charges.bin

total energy  -1.9228810E+02 H       energy change -4.5460641E-07 H
gradient norm  5.3292666E-04 H/a0    max. gradient  1.1218534E-04 H/a0
step length    1.4829749E-03 a0      max. step      2.8466837E-04 a0

--------------------------------------------------------------------------------

***  Geometry step: 109

 iSCC Total electronic   Diff electronic      SCC error    
    1   -0.19427376E+03    0.00000000E+00    0.15189382E-03
    2   -0.19427363E+03    0.13134983E-03    0.86751221E-04
    3   -0.19427363E+03   -0.13238321E-07    0.24367743E-04
    4   -0.19427363E+03   -0.33177798E-08    0.18369075E-05
    5   -0.19427363E+03   -0.65597305E-10    0.20025180E-06
    6   -0.19427363E+03   -0.36664005E-11    0.54329723E-07
    7   -0.19427363E+03    0.56843419E-13    0.92994554E-08

Total Energy:                     -192.2880992265 H        -5232.4254 eV
Extrapolated to 0K:               -192.2880992265 H        -5232.4254 eV
Total Mermin free energy:         -192.2880992265 H        -5232.4254 eV
Force related energy:             -192.2880992265 H        -5232.4254 eV

Volume:                              0.999026E+04 au^3   0.148040E+04 A^3
Pressure:                           -0.206025E-06 au    -0.606145E+07 Pa
>> Charges saved for restart in charges.bin

total energy  -1.9228810E+02 H       energy change -6.0047913E-07 H
gradient norm  4.7280443E-04 H/a0    max. gradient  9.5033797E-05 H/a0
step length    2.9888454E-03 a0      max. step      6.2929826E-04 a0

Geometry converged

--------------------------------------------------------------------------------
DFTB+ running times                          cpu [s]             wall clock [s]
--------------------------------------------------------------------------------
Pre-SCC initialisation                 +       4.23 (  0.0%)       4.43 (  0.2%)
SCC                                    +   14910.28 ( 98.5%)    2810.18 ( 98.1%)
Post-SCC processing                    +     220.39 (  1.5%)      49.90 (  1.7%)
--------------------------------------------------------------------------------
Missing                                +       0.68 (  0.0%)       0.01 (  0.0%)
Total                                  =   15135.59 (100.0%)    2864.52 (100.0%)
--------------------------------------------------------------------------------
