   72
Geometry Step: 0
   Si      1.51640887      3.67434600      7.70763040      3.09806848
   Si      6.51966213      3.67434600      0.91484460      3.09806848
   Si      6.51966213     11.35365400      0.91484460      3.09806848
   Si      1.51640887     11.35365400      7.70763040      3.09806848
   Si      6.74140887     11.18834600      7.70763040      3.09806848
   Si      1.29466213     11.18834600      0.91484460      3.09806848
   Si      1.29466213      3.83965400      0.91484460      3.09806848
   Si      6.74140887      3.83965400      7.70763040      3.09806848
   Si      2.40431475      5.97964120      2.86007496      3.11792567
   Si      5.63175625      5.97964120      5.76240004      3.11792567
   Si      5.63175625      9.04835880      5.76240004      3.11792567
   Si      2.40431475      9.04835880      2.86007496      3.11792567
   Si      7.62931475     13.49364120      2.86007496      3.11792567
   Si      0.40675625     13.49364120      5.76240004      3.11792567
   Si      0.40675625      1.53435880      5.76240004      3.11792567
   Si      7.62931475      1.53435880      2.86007496      3.11792567
   Si      2.56407553      5.97964120      5.91760459      3.12017750
   Si      5.47199547      5.97964120      2.70487041      3.12017750
   Si      5.47199547      9.04835880      2.70487041      3.12017750
   Si      2.56407553      9.04835880      5.91760459      3.12017750
   Si      7.78907553     13.49364120      5.91760459      3.12017750
   Si      0.24699547     13.49364120      2.70487041      3.12017750
   Si      0.24699547      1.53435880      2.70487041      3.12017750
   Si      7.78907553      1.53435880      5.91760459      3.12017750
    O      5.22500000      3.40534480      0.00000000      6.43959800
    O      5.22500000     11.62265520      0.00000000      6.43959800
    O      0.00000000     10.91934480      0.00000000      6.43959800
    O      0.00000000      4.10865520      0.00000000      6.43959800
    O      1.37088378      2.46609480      6.65223946      6.42839323
    O      6.66518722      2.46609480      1.97023554      6.42839323
    O      6.66518722     12.56190520      1.97023554      6.42839323
    O      1.37088378     12.56190520      6.65223946      6.42839323
    O      6.59588378      9.98009480      6.65223946      6.42839323
    O      1.44018722      9.98009480      1.97023554      6.42839323
    O      1.44018722      5.04790520      1.97023554      6.42839323
    O      6.59588378      5.04790520      6.65223946      6.42839323
    O      1.68921648      5.05992760      6.90746472      6.43154402
    O      6.34685452      5.05992760      1.71501028      6.43154402
    O      6.34685452      9.96807240      1.71501028      6.43154402
    O      1.68921648      9.96807240      6.90746472      6.43154402
    O      6.91421648     12.57392760      6.90746472      6.43154402
    O      1.12185452     12.57392760      1.71501028      6.43154402
    O      1.12185452      2.45407240      1.71501028      6.43154402
    O      6.91421648      2.45407240      6.90746472      6.43154402
    O      2.61250000      3.75700000      0.00000000      6.44070606
    O      7.83750000      3.75700000      0.00000000      6.44070606
    O      7.83750000     11.27100000      0.00000000      6.44070606
    O      2.61250000     11.27100000      0.00000000      6.44070606
    O      3.91513367      5.85340600      2.31599678      6.46420958
    O      4.12093733      5.85340600      6.30647822      6.46420958
    O      4.12093733      9.17459400      6.30647822      6.46420958
    O      3.91513367      9.17459400      2.31599678      6.46420958
    O      9.14013367     13.36740600      2.31599678      6.46420958
    O     -1.10406267     13.36740600      6.30647822      6.46420958
    O     -1.10406267      1.66059400      6.30647822      6.46420958
    O      9.14013367      1.66059400      2.31599678      6.46420958
    O      2.34641400      5.50175080      4.39573775      6.45252104
    O      5.68965700      5.50175080      4.22673724      6.45252104
    O      5.68965700      9.52624920      4.22673724      6.45252104
    O      2.34641400      9.52624920      4.39573775      6.45252104
    O      7.57141400     13.01575080      4.39573775      6.45252104
    O      0.46465700     13.01575080      4.22673724      6.45252104
    O      0.46465700      2.01224920      4.22673724      6.45252104
    O      7.57141400      2.01224920      4.39573775      6.45252104
    O      1.92565329      7.51400000      2.75574301      6.44718454
    O      6.11041771      7.51400000      5.86673199      6.44718454
    O      7.15065329      0.00000000      2.75574301      6.44718454
    O      0.88541771      0.00000000      5.86673199      6.44718454
    O      2.09724095      7.51400000      6.06591116      6.44683236
    O      5.93883005      7.51400000      2.55656384      6.44683236
    O      7.32224095      0.00000000      6.06591116      6.44683236
    O      0.71383005      0.00000000      2.55656384      6.44683236
   72
Geometry Step: 1
   Si      1.51593019      3.67367149      7.71025053      3.09735396
   Si      6.52014081      3.67367149      0.91222447      3.09527226
   Si      6.52014081     11.35432851      0.91222447      3.09175218
   Si      1.51593019     11.35432851      7.71025053      3.09382801
   Si      6.74093019     11.18767149      7.71025053      3.09169286
   Si      1.29514081     11.18767149      0.91222447      3.09476694
   Si      1.29514081      3.84032851      0.91222447      3.09708683
   Si      6.74093019      3.84032851      7.71025053      3.09411609
   Si      2.40138654      5.97780754      2.85730353      3.12210491
   Si      5.63468446      5.97780754      5.76517147      3.11456438
   Si      5.63468446      9.05019246      5.76517147      3.11448854
   Si      2.40138654      9.05019246      2.85730353      3.12187213
   Si      7.62638654     13.49180754      2.85730353      3.11982158
   Si      0.40968446     13.49180754      5.76517147      3.11570132
   Si      0.40968446      1.53619246      5.76517147      3.11940177
   Si      7.62638654      1.53619246      2.85730353      3.12339422
   Si      2.56126845      5.97776438      5.92044381      3.12022882
   Si      5.47480255      5.97776438      2.70203119      3.12247267
   Si      5.47480255      9.05023562      2.70203119      3.12235106
   Si      2.56126845      9.05023562      5.92044381      3.12015007
   Si      7.78626845     13.49176438      5.92044381      3.12005277
   Si      0.24980255     13.49176438      2.70203119      3.12785614
   Si      0.24980255      1.53623562      2.70203119      3.13198344
   Si      7.78626845      1.53623562      5.92044381      3.12448763
    O      5.22500000      3.39723542      0.00000000      6.44761090
    O      5.22500000     11.63076458      0.00000000      6.44676891
    O     -0.00000000     10.91123542     -0.00000000      6.46638675
    O     -0.00000000      4.11676458     -0.00000000      6.46685607
    O      1.38078814      2.45998775      6.64865027      6.42172349
    O      6.65528286      2.45998775      1.97382473      6.42539375
    O      6.65528286     12.56801225      1.97382473      6.42257058
    O      1.38078814     12.56801225      6.64865027      6.41913801
    O      6.60578814      9.97398775      6.64865027      6.41798080
    O      1.43028286      9.97398775      1.97382473      6.42568765
    O      1.43028286      5.05401225      1.97382473      6.42542604
    O      6.60578814      5.05401225      6.64865027      6.41809166
    O      1.68086623      5.06918690      6.90790333      6.42541152
    O      6.35520477      5.06918690      1.71457167      6.42986092
    O      6.35520477      9.95881310      1.71457167      6.42997750
    O      1.68086623      9.95881310      6.90790333      6.42537428
    O      6.90586623     12.58318690      6.90790333      6.41076358
    O      1.13020477     12.58318690      1.71457167      6.41950311
    O      1.13020477      2.44481310      1.71457167      6.42224241
    O      6.90586623      2.44481310      6.90790333      6.41290285
    O      2.61250000      3.75700000      0.00000000      6.44602161
    O      7.83750000      3.75700000      0.00000000      6.44073571
    O      7.83750000     11.27100000      0.00000000      6.44048481
    O      2.61250000     11.27100000      0.00000000      6.44567387
    O      3.91459901      5.84877514      2.30227115      6.46300501
    O      4.12147199      5.84877514      6.32020385      6.46562721
    O      4.12147199      9.17922486      6.32020385      6.46608602
    O      3.91459901      9.17922486      2.30227115      6.46349030
    O      9.13959901     13.36277514      2.30227115      6.47470147
    O     -1.10352801     13.36277514      6.32020385      6.47481061
    O     -1.10352801      1.66522486      6.32020385      6.48374288
    O      9.13959901      1.66522486      2.30227115      6.48368530
    O      2.34074180      5.48758745      4.39589133      6.45212006
    O      5.69532920      5.48758745      4.22658367      6.45164987
    O      5.69532920      9.54041255      4.22658367      6.45382807
    O      2.34074180      9.54041255      4.39589133      6.45431068
    O      7.56574180     13.00158745      4.39589133      6.43897864
    O      0.47032920     13.00158745      4.22658367      6.43911869
    O      0.47032920      2.02641255      4.22658367      6.44657004
    O      7.56574180      2.02641255      4.39589133      6.44641051
    O      1.91087713      7.51400000      2.75121722      6.44639969
    O      6.12519387      7.51400000      5.87125778      6.44557960
    O      7.13587713     -0.00000000      2.75121722      6.46065540
    O      0.90019387     -0.00000000      5.87125778      6.45989103
    O      2.08304176      7.51400000      6.07216896      6.44518618
    O      5.95302924      7.51400000      2.55030604      6.44705992
    O      7.30804176      0.00000000      6.07216896      6.44334635
    O      0.72802924     -0.00000000      2.55030604      6.44435906
   72
Geometry Step: 2
   Si      1.51471678      3.67071625      7.72754457      3.09427055
   Si      6.51893985      3.67197777      0.91165526      3.09293297
   Si      6.51864742     11.35464786      0.91120699      3.09082272
   Si      1.51500220     11.35593958      7.72798045      3.09214465
   Si      6.75330744     11.18242300      7.73797531      3.09160365
   Si      1.29286026     11.18565428      0.90772349      3.09245135
   Si      1.29257884      3.84086833      0.90782179      3.09466481
   Si      6.75357366      3.84416316      7.73788850      3.09381509
   Si      2.39829006      5.97558360      2.85391416      3.12289019
   Si      5.63571255      5.97692228      5.76591748      3.11983123
   Si      5.63547775      9.04961500      5.76559725      3.11964136
   Si      2.39851925      9.05096710      2.85422805      3.12267986
   Si      7.62214837     13.51118534      2.85110509      3.12165490
   Si      0.41386339     13.51158418      5.76931866      3.12033754
   Si      0.40764626      1.53474916      5.76742463      3.12060103
   Si      7.62836000      1.53515602      2.85297141      3.12188293
   Si      2.55862115      5.97618352      5.92147679      3.12431491
   Si      5.47700916      5.97584724      2.69886054      3.12516102
   Si      5.47682934      9.05072865      2.69917743      3.12498198
   Si      2.55880248      9.05038580      5.92115410      3.12411136
   Si      7.80407130     13.50839279      5.92768933      3.12733077
   Si      0.23402497     13.50720569      2.69218424      3.13029810
   Si      0.22811195      1.53935232      2.69465822      3.13038493
   Si      7.81000691      1.53813201      5.92517301      3.12747932
    O      5.21396391      3.38938742     -0.00904499      6.43976655
    O      5.21397074     11.63881152     -0.00903877      6.43986571
    O     -0.02645846     10.90576839     -0.01948266      6.45555459
    O     -0.02645817      4.12256108     -0.01949169      6.45619772
    O      1.39580479      2.45675044      6.64823137      6.42104090
    O      6.64095617      2.45529002      1.97621017      6.42108355
    O      6.64154853     12.57448808      1.97733068      6.42067867
    O      1.39520633     12.57302246      6.64710653      6.42070094
    O      6.62117456      9.97126868      6.64928491      6.42164398
    O      1.41707301      9.96824739      1.97733671      6.42236087
    O      1.41746168      5.06075055      1.97792357      6.42258239
    O      6.62077487      5.05773004      6.64868756      6.42199008
    O      1.66911949      5.07751428      6.91153616      6.42722100
    O      6.36679422      5.07916603      1.71253868      6.42700259
    O      6.36715597      9.94987108      1.71204155      6.42672260
    O      1.66875559      9.95152389      6.91203992      6.42686962
    O      6.89541824     12.59210056      6.91172792      6.42092076
    O      1.14003488     12.59587932      1.71447363      6.42221206
    O      1.14056861      2.43397419      1.71349711      6.42228276
    O      6.89488587      2.43773318      6.91271772      6.42084352
    O      2.62529881      3.75627759     -0.00921683      6.44902632
    O      7.85243917      3.75833505     -0.01047125      6.44776415
    O      7.85249133     11.26993927     -0.01039076      6.44758286
    O      2.62523744     11.27199435     -0.00928754      6.44881634
    O      3.91425125      5.84351259      2.28582440      6.46339261
    O      4.12296090      5.84327766      6.33711851      6.46493030
    O      4.12297261      9.18508622      6.33719045      6.46530971
    O      3.91423952      9.18485029      2.28575253      6.46377816
    O      9.16453557     13.35956245      2.29220609      6.47137161
    O     -1.12936664     13.35940113      6.33064478      6.47193978
    O     -1.12956088      1.66920736      6.33079401      6.47555478
    O      9.16473265      1.66904506      2.29205817      6.47500117
    O      2.33421385      5.47059073      4.39713664      6.45162584
    O      5.70221530      5.47051188      4.22769007      6.45125779
    O      5.70227167      9.55788340      4.22769230      6.45185562
    O      2.33415762      9.55780475      4.39713653      6.45222511
    O      7.55929983     12.98525102      4.40090078      6.44218404
    O      0.47666113     12.98533090      4.22381661      6.44232715
    O      0.47633712      2.04406027      4.22380505      6.44646191
    O      7.55962383      2.04414250      4.40091681      6.44633453
    O      1.89297786      7.51464581      2.74607922      6.44545596
    O      6.14335883      7.51464703      5.87689160      6.44486235
    O      7.12242878     -0.02071955      2.74775955      6.45462820
    O      0.91357759     -0.02071074      5.87510110      6.45397813
    O      2.06585403      7.51463698      6.07980310      6.44429048
    O      5.97038595      7.51463564      2.54307538      6.44531441
    O      7.29773414     -0.02069224      6.07855349      6.44906596
    O      0.73806172     -0.02072624      2.54435063      6.44983665
   72
Geometry Step: 3
   Si      1.49528132      3.67223112      7.75032758      3.09392577
   Si      6.52357076      3.67354510      0.90167095      3.09496268
   Si      6.52364579     11.35485185      0.90196228      3.09414963
   Si      1.49539306     11.35541495      7.75045251      3.09316233
   Si      6.76800442     11.17876457      7.78289758      3.09528577
   Si      1.28364495     11.18522362      0.89242556      3.09267762
   Si      1.28371016      3.84247118      0.89241972      3.09498026
   Si      6.76799565      3.84931557      7.78322600      3.09745280
   Si      2.39844180      5.97748643      2.85498238      3.12723708
   Si      5.63762175      5.97765947      5.76773256      3.12855419
   Si      5.63739151      9.05020535      5.76744711      3.12828975
   Si      2.39836267      9.05063528      2.85496533      3.12699143
   Si      7.62849177     13.54455585      2.84718508      3.13181170
   Si      0.40786910     13.54421053      5.77498514      3.13174009
   Si      0.39616730      1.52259613      5.77111321      3.12779356
   Si      7.63994882      1.52252477      2.85052646      3.12794888
   Si      2.55781771      5.97758103      5.92154992      3.13053327
   Si      5.47797914      5.97777846      2.70120092      3.13122190
   Si      5.47796528      9.05024043      2.70124200      3.13096142
   Si      2.55804477      9.05024125      5.92122986      3.13016574
   Si      7.82966325     13.53927044      5.94190701      3.14039428
   Si      0.20664440     13.54066157      2.68166267      3.13768622
   Si      0.19344106      1.52581349      2.68574484      3.13373511
   Si      7.84282406      1.52643829      5.93711187      3.13652734
    O      5.20926843      3.37276173     -0.01440714      6.44247214
    O      5.20914526     11.65576005     -0.01448597      6.44355270
    O     -0.06117620     10.89739776     -0.04584933      6.44627545
    O     -0.06120690      4.13124781     -0.04589683      6.44748345
    O      1.42417742      2.45333428      6.65108934      6.42121330
    O      6.61195143      2.44647999      1.97924852      6.41852801
    O      6.61446260     12.58591021      1.98155874      6.42083787
    O      1.42133342     12.57996808      6.64788840      6.42358994
    O      6.65217811      9.97213153      6.65689061      6.42571034
    O      1.38578346      9.96417199      1.97667498      6.41938046
    O      1.38525365      5.06377087      1.97586435      6.42049978
    O      6.65238505      5.05628910      6.65720918      6.42681761
    O      1.64156597      5.08247571      6.92731811      6.42860220
    O      6.39438949      5.08919214      1.70028695      6.42557509
    O      6.39399519      9.93876917      1.70111049      6.42469516
    O      1.64171985      9.94602312      6.92694815      6.42759168
    O      6.87726484     12.60380936      6.92169642      6.43321525
    O      1.16031965     12.61285436      1.70822386      6.42746012
    O      1.16270412      2.42023183      1.70521075      6.42530300
    O      6.87437269      2.42961147      6.92524647      6.43120988
    O      2.64778294      3.75516963     -0.02805437      6.44112646
    O      7.87844614      3.76046085     -0.02955721      6.44515567
    O      7.87850561     11.26813031     -0.02942063      6.44494467
    O      2.64780828     11.27343656     -0.02823659      6.44093413
    O      3.91217547      5.83388079      2.25511277      6.46070698
    O      4.12329877      5.83333152      6.36866117      6.46064619
    O      4.12329244      9.19547191      6.36883526      6.46060399
    O      3.91218120      9.19491832      2.25493981      6.46081495
    O      9.19540081     13.35637545      2.27826148      6.46346325
    O     -1.15989288     13.35610010      6.34479395      6.46480901
    O     -1.16163138      1.67530094      6.34696927      6.46150785
    O      9.19789204      1.67497060      2.27631983      6.46019350
    O      2.32253869      5.43915768      4.39601357      6.44719272
    O      5.71409925      5.43892552      4.22538199      6.44662576
    O      5.71414679      9.58978524      4.22541598      6.44506774
    O      2.32249214      9.58955487      4.39605455      6.44563548
    O      7.54891706     12.96082911      4.40304701      6.44411228
    O      0.48669401     12.96092919      4.22005883      6.44434556
    O      0.48606516      2.07405220      4.21990192      6.44396017
    O      7.54947669      2.07429867      4.40297767      6.44367542
    O      1.85971645      7.51336537      2.73698962      6.44150632
    O      6.17726759      7.51334425      5.88670163      6.44071580
    O      7.10318145     -0.04996704      2.74172995      6.44049025
    O      0.93285809     -0.04998080      5.88160287      6.44005605
    O      2.03372693      7.51336947      6.09342517      6.44054985
    O      6.00260085      7.51338015      2.53008678      6.44086633
    O      7.28663241     -0.04928016      6.08750788      6.44592874
    O      0.74877175     -0.04921700      2.53589589      6.44616266
   72
Geometry Step: 4
   Si      1.49778799      3.67010194      7.76883066      3.09353334
   Si      6.52972297      3.67285846      0.88910832      3.09453230
   Si      6.53028364     11.35775480      0.89117427      3.09434903
   Si      1.49775251     11.36050134      7.76664917      3.09334853
   Si      6.78200283     11.18037950      7.80529935      3.09421644
   Si      1.27383233     11.18803487      0.87471141      3.09406987
   Si      1.27438798      3.84261433      0.87317180      3.09560286
   Si      6.78169846      3.85028993      7.80679675      3.09551962
   Si      2.39533948      5.97575749      2.85253291      3.13256665
   Si      5.64410192      5.97247218      5.77304602      3.13253019
   Si      5.64411432      9.05559951      5.77277407      3.13255714
   Si      2.39530177      9.05239133      2.85270163      3.13262702
   Si      7.63324464     13.56206483      2.84483861      3.13890302
   Si      0.40384061     13.56031327      5.77922987      3.13850464
   Si      0.39063672      1.51410484      5.77650569      3.13335741
   Si      7.64643840      1.51259980      2.84728738      3.13370632
   Si      2.55330930      5.97416766      5.92500463      3.13605211
   Si      5.48132588      5.97643009      2.69939417      3.13677925
   Si      5.48133917      9.05167107      2.69959096      3.13674435
   Si      2.55329362      9.05386737      5.92471808      3.13599152
   Si      7.83695379     13.55666508      5.95061974      3.14684227
   Si      0.19591469     13.56045514      2.67561476      3.14650829
   Si      0.18412670      1.51441806      2.68001749      3.14153291
   Si      7.84881318      1.51788122      5.94573303      3.14197672
    O      5.19807284      3.36051770     -0.02619914      6.43406667
    O      5.19795929     11.66803901     -0.02626756      6.43583321
    O     -0.07815294     10.89066172     -0.06041697      6.43939541
    O     -0.07825219      4.13805151     -0.06052328      6.44009634
    O      1.44266126      2.44562426      6.65041479      6.42038681
    O      6.59237600      2.43538854      1.98405603      6.41780067
    O      6.59693219     12.59944395      1.98732887      6.42064793
    O      1.43795497     12.58943986      6.64683081      6.42319277
    O      6.67600313      9.97265530      6.66404157      6.42292637
    O      1.36011300      9.96005640      1.97569434      6.41881247
    O      1.35956562      5.06803111      1.97485401      6.41983068
    O      6.67647057      5.05565088      6.66462925      6.42412912
    O      1.62062193      5.08991684      6.93813842      6.42667194
    O      6.41677722      5.10092282      1.69198137      6.42313284
    O      6.41634229      9.92719743      1.69286627      6.42220348
    O      1.62103092      9.93840348      6.93739140      6.42561242
    O      6.86665185     12.61331632      6.92990648      6.43249878
    O      1.17323646     12.62885845      1.70429797      6.42737035
    O      1.17700762      2.40549086      1.70058910      6.42414223
    O      6.86259324      2.42177135      6.93425393      6.42921307
    O      2.64922896      3.75523204     -0.03276986      6.44753028
    O      7.89003008      3.76145163     -0.03806006      6.45047256
    O      7.89018596     11.26721303     -0.03809898      6.45062792
    O      2.64889843     11.27345043     -0.03259416      6.44803931
    O      3.91076547      5.82621872      2.22933407      6.45838834
    O      4.12415111      5.82543705      6.39482144      6.45984008
    O      4.12415130      9.20346527      6.39504458      6.45967849
    O      3.91074155      9.20265310      2.22916320      6.45818144
    O      9.21023705     13.35530131      2.26705828      6.46534459
    O     -1.17315280     13.35483380      6.35627967      6.46714404
    O     -1.17211876      1.67989979      6.36129203      6.46242809
    O      9.20965348      1.67940628      2.26226646      6.46069726
    O      2.31353659      5.41295048      4.39667514      6.44429051
    O      5.72321831      5.41269065      4.22570196      6.44393837
    O      5.72319707      9.61596969      4.22572382      6.44165817
    O      2.31355268      9.61570905      4.39668875      6.44203228
    O      7.54292733     12.94701133      4.40575161      6.44175525
    O      0.49276263     12.94694553      4.21758830      6.44196398
    O      0.49203468      2.09491065      4.21655418      6.44024984
    O      7.54359848      2.09497491      4.40632932      6.43991374
    O      1.83216770      7.51338338      2.73012062      6.43829480
    O      6.20507625      7.51336684      5.89396350      6.43853179
    O      7.09088051     -0.06763081      2.73700760      6.43443730
    O      0.94539567     -0.06758824      5.88658085      6.43455195
    O      2.00702013      7.51337593      6.10395164      6.43750181
    O      6.02911192      7.51336821      2.51998763      6.43719142
    O      7.28148700     -0.06760871      6.09365738      6.43778603
    O      0.75398114     -0.06722278      2.52997576      6.43721497
   72
Geometry Step: 5
   Si      1.48797833      3.66771427      7.78484721      3.09427967
   Si      6.53684065      3.66870604      0.87715767      3.09500995
   Si      6.53802595     11.36474440      0.88139655      3.09393776
   Si      1.48737339     11.36619695      7.78047323      3.09326794
   Si      6.78233611     11.18670706      7.82181587      3.09348816
   Si      1.26493286     11.19355993      0.85915330      3.09508881
   Si      1.26612876      3.84045609      0.85576330      3.09628490
   Si      6.78145234      3.84722049      7.82454813      3.09444277
   Si      2.38940372      5.97132152      2.84778218      3.13787609
   Si      5.65275599      5.96427504      5.78071686      3.13681132
   Si      5.65306407      9.06416963      5.78064018      3.13684092
   Si      2.38927908      9.05706985      2.84796408      3.13791807
   Si      7.63951749     13.56536936      2.84349604      3.14264925
   Si      0.39914234     13.56206707      5.78228274      3.14220423
   Si      0.38930509      1.50849263      5.78136663      3.13928043
   Si      7.65003198      1.50453741      2.84466904      3.13974329
   Si      2.54704535      5.96895403      5.92990161      3.14076897
   Si      5.48561688      5.97323385      2.69560573      3.14131838
   Si      5.48574033      9.05513064      2.69580320      3.14137152
   Si      2.54679722      9.05941784      5.92975100      3.14085085
   Si      7.84332801     13.56037154      5.95786993      3.14865898
   Si      0.18721531     13.56616069      2.67014428      3.14948018
   Si      0.18033485      1.50678009      2.67380991      3.14671260
   Si      7.85026327      1.51268964      5.95434339      3.14586648
    O      5.19602050      3.34823999     -0.03232064      6.43755648
    O      5.19596586     11.68008450     -0.03238224      6.43945979
    O     -0.08570371     10.88415776     -0.06858950      6.44375896
    O     -0.08574485      4.14449910     -0.06866962      6.44414038
    O      1.45532574      2.43704554      6.65038684      6.41951983
    O      6.57689737      2.42500477      1.98703452      6.41613241
    O      6.58395491     12.61229300      1.99106589      6.41722254
    O      1.44887795     12.59974064      6.64677723      6.42082346
    O      6.69740164      9.97417013      6.67329973      6.42070987
    O      1.33545503      9.95793406      1.97219487      6.41733112
    O      1.33497952      5.07066400      1.97180544      6.41808457
    O      6.69803697      5.05421506      6.67383142      6.42161634
    O      1.60062541      5.09614493      6.94966312      6.42488241
    O      6.43813804      5.11156760      1.68314495      6.42182021
    O      6.43774223      9.91717817      1.68371204      6.42097848
    O      1.60115607      9.93245350      6.94897436      6.42401717
    O      6.86102148     12.62237773      6.93872168      6.43051705
    O      1.18054115     12.64410228      1.70025725      6.42616759
    O      1.18579232      2.39165919      1.69578735      6.42372941
    O      6.85607994      2.41406989      6.94349072      6.42790649
    O      2.65299274      3.75517641     -0.04228172      6.44001802
    O      7.90679578      3.76232562     -0.05083411      6.44206176
    O      7.90691127     11.26624511     -0.05110587      6.44256044
    O      2.65266983     11.27343984     -0.04190731      6.44099703
    O      3.91024546      5.81971363      2.20588042      6.45681577
    O      4.12607929      5.81867813      6.41824756      6.45999098
    O      4.12607300      9.20994857      6.41837249      6.45998020
    O      3.91023930      9.20886155      2.20583382      6.45664829
    O      9.22388714     13.35731770      2.25940313      6.46405501
    O     -1.18646965     13.35658119      6.36427123      6.46652958
    O     -1.18374490      1.68225287      6.37214737      6.46514988
    O      9.22091763      1.68157209      2.25158953      6.46254731
    O      2.30644248      5.38919423      4.39838203      6.44145604
    O      5.73056036      5.38900917      4.22789020      6.44175544
    O      5.73041004      9.63924197      4.22787884      6.44063283
    O      2.30658202      9.63905315      4.39836376      6.44030732
    O      7.54023263     12.94076197      4.40967716      6.43789593
    O      0.49570338     12.94051642      4.21591921      6.43822773
    O      0.49471339      2.10885653      4.21438889      6.43845271
    O      7.54118763      2.10870754      4.41085935      6.43812567
    O      1.80732876      7.51366899      2.72492801      6.43533637
    O      6.22972737      7.51369472      5.89954769      6.43751685