********************************************************************************
*                       GENERAL UTILITY LATTICE PROGRAM                        *
*                                 Julian Gale                                  *
*                       Curtin Institute for Computation                       *
*                    School of Molecular and Life Sciences                     *
*                    Curtin University, Western Australia                      *
********************************************************************************
* Version = 6.1.2 * Last modified =   3rd November 2022                        *
********************************************************************************
*  optimise     - perform optimisation run                                     *
*  conp         - constant pressure calculation                                *
*  property     - calculate properties for final geometry                      *
********************************************************************************

  Job Started  at 10:50.02  7th October    2025                               

  Number of CPUs =     1


  Total number of configurations input =      1

********************************************************************************
*  Input for Configuration =   1 : c00021.vasp                                 *
********************************************************************************

  Formula = Ge2Si22O48                                                  

  Number of irreducible atoms/shells =     120


  Total number atoms/shells =     120

  Dimensionality = 3               :  Bulk   



  Cartesian lattice vectors (Angstroms) :

       17.182800    0.000000    0.000000
        0.000000    7.513760    0.000000
        0.000000    0.000000   10.447700

  Cell parameters (Angstroms/Degrees):

  a =      17.1828    alpha =  90.0000
  b =       7.5138    beta  =  90.0000
  c =      10.4477    gamma =  90.0000

  Initial cell volume =        1348.875752 Angs**3

  Temperature of configuration =   0.00     K 

  Pressure of configuration =         0.000 GPa 

  Fractional coordinates of asymmetric unit :

--------------------------------------------------------------------------------
   No.  Atomic       x           y          z         Charge      Occupancy
        Label      (Frac)      (Frac)     (Frac)        (e)         (Frac)  
--------------------------------------------------------------------------------
      1 Ge    c    0.556730    0.000000    0.122130     4.00000    1.000000    
      2 Ge    c    0.839810 *  0.293910 *  0.726560 *   4.00000    1.000000    
      3 Si    c    0.052090 *  0.000000 *  0.372270 *   4.00000    1.000000    
      4 Si    c    0.447910 *  0.000000 *  0.372270 *   4.00000    1.000000    
      5 Si    c    0.947910 *  0.000000 *  0.627730 *   4.00000    1.000000    
      6 Si    c    0.552090 *  0.000000 *  0.627730 *   4.00000    1.000000    
      7 Si    c    0.943270 *  0.000000 *  0.122130 *   4.00000    1.000000    
      8 Si    c    0.443270 *  0.000000 *  0.877870 *   4.00000    1.000000    
      9 Si    c    0.056730 *  0.000000 *  0.877870 *   4.00000    1.000000    
     10 Si    c    0.160190 *  0.293910 *  0.273440 *   4.00000    1.000000    
     11 Si    c    0.339810 *  0.706090 *  0.273440 *   4.00000    1.000000    
     12 Si    c    0.660190 *  0.706090 *  0.726560 *   4.00000    1.000000    
     13 Si    c    0.839810 *  0.706090 *  0.726560 *   4.00000    1.000000    
     14 Si    c    0.660190 *  0.293910 *  0.726560 *   4.00000    1.000000    
     15 Si    c    0.160190 *  0.706090 *  0.273440 *   4.00000    1.000000    
     16 Si    c    0.339810 *  0.293910 *  0.273440 *   4.00000    1.000000    
     17 Si    c    0.660660 *  0.294090 *  0.017440 *   4.00000    1.000000    
     18 Si    c    0.839340 *  0.705910 *  0.017440 *   4.00000    1.000000    
     19 Si    c    0.339340 *  0.294090 *  0.982560 *   4.00000    1.000000    
     20 Si    c    0.160660 *  0.705910 *  0.982560 *   4.00000    1.000000    
     21 Si    c    0.339340 *  0.705910 *  0.982560 *   4.00000    1.000000    
     22 Si    c    0.160660 *  0.294090 *  0.982560 *   4.00000    1.000000    
     23 Si    c    0.660660 *  0.705910 *  0.017440 *   4.00000    1.000000    
     24 Si    c    0.839340 *  0.294090 *  0.017440 *   4.00000    1.000000    
     25 O2    c    0.106570 *  0.174340 *  0.366200 *   0.87073    1.000000    
     26 O2    c    0.393430 *  0.825660 *  0.366200 *   0.87073    1.000000    
     27 O3    c    0.893430 *  0.174340 *  0.633800 *   1.33043    1.000000    
     28 O2    c    0.606570 *  0.825660 *  0.633800 *   0.87073    1.000000    
     29 O2    c    0.893430 *  0.825660 *  0.633800 *   0.87073    1.000000    
     30 O2    c    0.606570 *  0.174340 *  0.633800 *   0.87073    1.000000    
     31 O2    c    0.106570 *  0.825660 *  0.366200 *   0.87073    1.000000    
     32 O2    c    0.393430 *  0.174340 *  0.366200 *   0.87073    1.000000    
     33 O2    c    0.000000 *  0.000000 *  0.500000 *   0.87073    1.000000    
     34 O2    c    0.500000 *  0.000000 *  0.500000 *   0.87073    1.000000    
     35 O2    c    0.994520 *  0.000000 *  0.250840 *   0.87073    1.000000    
     36 O3    c    0.505480 *  0.000000 *  0.250840 *   1.33043    1.000000    
     37 O2    c    0.005480 *  0.000000 *  0.749160 *   0.87073    1.000000    
     38 O2    c    0.494520 *  0.000000 *  0.749160 *   0.87073    1.000000    
     39 O3    c    0.610230 *  0.175520 *  0.115390 *   1.33043    1.000000    
     40 O2    c    0.889770 *  0.824480 *  0.115390 *   0.87073    1.000000    
     41 O2    c    0.389770 *  0.175520 *  0.884610 *   0.87073    1.000000    
     42 O2    c    0.110230 *  0.824480 *  0.884610 *   0.87073    1.000000    
     43 O2    c    0.389770 *  0.824480 *  0.884610 *   0.87073    1.000000    
     44 O2    c    0.110230 *  0.175520 *  0.884610 *   0.87073    1.000000    
     45 O3    c    0.610230 *  0.824480 *  0.115390 *   1.33043    1.000000    
     46 O2    c    0.889770 *  0.175520 *  0.115390 *   0.87073    1.000000    
     47 O3    c    0.500000 *  0.000000 *  0.000000 *   1.33043    1.000000    
     48 O2    c    0.000000 *  0.000000 *  0.000000 *   0.87073    1.000000    
     49 O2    c    0.151750 *  0.500000 *  0.313330 *   0.87073    1.000000    
     50 O2    c    0.348250 *  0.500000 *  0.313330 *   0.87073    1.000000    
     51 O3    c    0.848250 *  0.500000 *  0.686670 *   1.33043    1.000000    
     52 O2    c    0.651750 *  0.500000 *  0.686670 *   0.87073    1.000000    
     53 O2    c    0.250000 *  0.234950 *  0.285720 *   0.87073    1.000000    
     54 O2    c    0.250000 *  0.765050 *  0.285720 *   0.87073    1.000000    
     55 O3    c    0.750000 *  0.234950 *  0.714280 *   1.33043    1.000000    
     56 O2    c    0.750000 *  0.765050 *  0.714280 *   0.87073    1.000000    
     57 O2    c    0.131410 *  0.268650 *  0.127790 *   0.87073    1.000000    
     58 O2    c    0.368590 *  0.731350 *  0.127790 *   0.87073    1.000000    
     59 O3    c    0.868590 *  0.268650 *  0.872210 *   1.33043    1.000000    
     60 O2    c    0.631410 *  0.731350 *  0.872210 *   0.87073    1.000000    
     61 O2    c    0.868590 *  0.731350 *  0.872210 *   0.87073    1.000000    
     62 O2    c    0.631410 *  0.268650 *  0.872210 *   0.87073    1.000000    
     63 O2    c    0.131410 *  0.731350 *  0.127790 *   0.87073    1.000000    
     64 O2    c    0.368590 *  0.268650 *  0.127790 *   0.87073    1.000000    
     65 O2    c    0.653920 *  0.500000 *  0.058200 *   0.87073    1.000000    
     66 O2    c    0.846080 *  0.500000 *  0.058200 *   0.87073    1.000000    
     67 O2    c    0.346080 *  0.500000 *  0.941800 *   0.87073    1.000000    
     68 O2    c    0.153920 *  0.500000 *  0.941800 *   0.87073    1.000000    
     69 O2    c    0.750000 *  0.231060 *  0.027050 *   0.87073    1.000000    
     70 O2    c    0.750000 *  0.768940 *  0.027050 *   0.87073    1.000000    
     71 O2    c    0.250000 *  0.231060 *  0.972950 *   0.87073    1.000000    
     72 O2    c    0.250000 *  0.768940 *  0.972950 *   0.87073    1.000000    
     73 O2    s    0.106570 *  0.174340 *  0.366200 *  -2.87073    1.000000    
     74 O2    s    0.393430 *  0.825660 *  0.366200 *  -2.87073    1.000000    
     75 O3    s    0.893430 *  0.174340 *  0.633800 *  -3.33043    1.000000    
     76 O2    s    0.606570 *  0.825660 *  0.633800 *  -2.87073    1.000000    
     77 O2    s    0.893430 *  0.825660 *  0.633800 *  -2.87073    1.000000    
     78 O2    s    0.606570 *  0.174340 *  0.633800 *  -2.87073    1.000000    
     79 O2    s    0.106570 *  0.825660 *  0.366200 *  -2.87073    1.000000    
     80 O2    s    0.393430 *  0.174340 *  0.366200 *  -2.87073    1.000000    
     81 O2    s    0.000000 *  0.000000 *  0.500000 *  -2.87073    1.000000    
     82 O2    s    0.500000 *  0.000000 *  0.500000 *  -2.87073    1.000000    
     83 O2    s    0.994520 *  0.000000 *  0.250840 *  -2.87073    1.000000    
     84 O3    s    0.505480 *  0.000000 *  0.250840 *  -3.33043    1.000000    
     85 O2    s    0.005480 *  0.000000 *  0.749160 *  -2.87073    1.000000    
     86 O2    s    0.494520 *  0.000000 *  0.749160 *  -2.87073    1.000000    
     87 O3    s    0.610230 *  0.175520 *  0.115390 *  -3.33043    1.000000    
     88 O2    s    0.889770 *  0.824480 *  0.115390 *  -2.87073    1.000000    
     89 O2    s    0.389770 *  0.175520 *  0.884610 *  -2.87073    1.000000    
     90 O2    s    0.110230 *  0.824480 *  0.884610 *  -2.87073    1.000000    
     91 O2    s    0.389770 *  0.824480 *  0.884610 *  -2.87073    1.000000    
     92 O2    s    0.110230 *  0.175520 *  0.884610 *  -2.87073    1.000000    
     93 O3    s    0.610230 *  0.824480 *  0.115390 *  -3.33043    1.000000    
     94 O2    s    0.889770 *  0.175520 *  0.115390 *  -2.87073    1.000000    
     95 O3    s    0.500000 *  0.000000 *  0.000000 *  -3.33043    1.000000    
     96 O2    s    0.000000 *  0.000000 *  0.000000 *  -2.87073    1.000000    
     97 O2    s    0.151750 *  0.500000 *  0.313330 *  -2.87073    1.000000    
     98 O2    s    0.348250 *  0.500000 *  0.313330 *  -2.87073    1.000000    
     99 O3    s    0.848250 *  0.500000 *  0.686670 *  -3.33043    1.000000    
    100 O2    s    0.651750 *  0.500000 *  0.686670 *  -2.87073    1.000000    
    101 O2    s    0.250000 *  0.234950 *  0.285720 *  -2.87073    1.000000    
    102 O2    s    0.250000 *  0.765050 *  0.285720 *  -2.87073    1.000000    
    103 O3    s    0.750000 *  0.234950 *  0.714280 *  -3.33043    1.000000    
    104 O2    s    0.750000 *  0.765050 *  0.714280 *  -2.87073    1.000000    
    105 O2    s    0.131410 *  0.268650 *  0.127790 *  -2.87073    1.000000    
    106 O2    s    0.368590 *  0.731350 *  0.127790 *  -2.87073    1.000000    
    107 O3    s    0.868590 *  0.268650 *  0.872210 *  -3.33043    1.000000    
    108 O2    s    0.631410 *  0.731350 *  0.872210 *  -2.87073    1.000000    
    109 O2    s    0.868590 *  0.731350 *  0.872210 *  -2.87073    1.000000    
    110 O2    s    0.631410 *  0.268650 *  0.872210 *  -2.87073    1.000000    
    111 O2    s    0.131410 *  0.731350 *  0.127790 *  -2.87073    1.000000    
    112 O2    s    0.368590 *  0.268650 *  0.127790 *  -2.87073    1.000000    
    113 O2    s    0.653920 *  0.500000 *  0.058200 *  -2.87073    1.000000    
    114 O2    s    0.846080 *  0.500000 *  0.058200 *  -2.87073    1.000000    
    115 O2    s    0.346080 *  0.500000 *  0.941800 *  -2.87073    1.000000    
    116 O2    s    0.153920 *  0.500000 *  0.941800 *  -2.87073    1.000000    
    117 O2    s    0.750000 *  0.231060 *  0.027050 *  -2.87073    1.000000    
    118 O2    s    0.750000 *  0.768940 *  0.027050 *  -2.87073    1.000000    
    119 O2    s    0.250000 *  0.231060 *  0.972950 *  -2.87073    1.000000    
    120 O2    s    0.250000 *  0.768940 *  0.972950 *  -2.87073    1.000000    
--------------------------------------------------------------------------------



********************************************************************************
*  General input information                                                   *
********************************************************************************

  Species output for all configurations : 

--------------------------------------------------------------------------------
  Species    Type    Atomic    Atomic    Charge       Radii (Angs)     Library
                     Number     Mass       (e)     Cova   Ionic  VDW   Symbol
--------------------------------------------------------------------------------
    Ge       Core       32      72.61   4.000000   1.170  0.000  1.750 Ge       
    Si       Core       14      28.09   4.000000   1.200  0.000  2.100 Si       
    O1       Core        8      16.00   1.733957   0.730  0.000  0.000 O1       
    O2       Core        8      16.00   0.870733   0.730  0.000  1.360 O2       
    O3       Core        8      16.00   1.330431   0.730  0.000  1.360 O3       
    O1       Shell       8       0.00  -3.733957   0.730  0.000  0.000 O1       
    O2       Shell       8       0.00  -2.870733   0.730  0.000  0.000 O2       
    O3       Shell       8       0.00  -3.330431   0.730  0.000  0.000 O3       
--------------------------------------------------------------------------------


  Lattice summation method               =    Ewald          (3-D)
                                         =    Parry          (2-D)
                                         =    Saunders et al (1-D)
  Accuracy factor for lattice sums       =   12.000


  Analytic derivatives to be used

  Time limit = Infinity

  Maximum range for interatomic potentials =    100000.000000 Angstroms

  General interatomic potentials :

--------------------------------------------------------------------------------
Atom  Types   Potential      Parameter       Value         Units   Cutoffs(Ang)
  1     2                                                            Min /  Max 
--------------------------------------------------------------------------------
Si   c O1   s Buckingham    Buckingham A     1315.2478    eV        0.000 16.000
                            Buckingham rho  0.31775900    Ang       
                            Buckingham C     10.141118    eV*Ang^6  
--------------------------------------------------------------------------------
Si   c O2   s Buckingham    Buckingham A     1315.2478    eV        0.000 16.000
                            Buckingham rho  0.31775900    Ang       
                            Buckingham C     10.141118    eV*Ang^6  
--------------------------------------------------------------------------------
Si   c O3   s Buckingham    Buckingham A     1315.2478    eV        0.000 16.000
                            Buckingham rho  0.31775900    Ang       
                            Buckingham C     10.141118    eV*Ang^6  
--------------------------------------------------------------------------------
Ge   c O1   s Buckingham    Buckingham A     1497.3996    eV        0.000 16.000
                            Buckingham rho  0.32564600    Ang       
                            Buckingham C     16.808599    eV*Ang^6  
--------------------------------------------------------------------------------
Ge   c O2   s Buckingham    Buckingham A     1497.3996    eV        0.000 16.000
                            Buckingham rho  0.32564600    Ang       
                            Buckingham C     16.808599    eV*Ang^6  
--------------------------------------------------------------------------------
Ge   c O3   s Buckingham    Buckingham A     1497.3996    eV        0.000 16.000
                            Buckingham rho  0.32564600    Ang       
                            Buckingham C     16.808599    eV*Ang^6  
--------------------------------------------------------------------------------
O1   s O1   s Buckingham    Buckingham A     22764.000    eV        0.000 16.000
                            Buckingham rho  0.14900000    Ang       
                            Buckingham C     10.937044    eV*Ang^6  
--------------------------------------------------------------------------------
O1   s O2   s Buckingham    Buckingham A     22764.000    eV        0.000 16.000
                            Buckingham rho  0.14900000    Ang       
                            Buckingham C     10.937044    eV*Ang^6  
--------------------------------------------------------------------------------
O1   s O3   s Buckingham    Buckingham A     22764.000    eV        0.000 16.000
                            Buckingham rho  0.14900000    Ang       
                            Buckingham C     10.937044    eV*Ang^6  
--------------------------------------------------------------------------------
O2   s O2   s Buckingham    Buckingham A     22764.000    eV        0.000 16.000
                            Buckingham rho  0.14900000    Ang       
                            Buckingham C     10.937044    eV*Ang^6  
--------------------------------------------------------------------------------
O2   s O3   s Buckingham    Buckingham A     22764.000    eV        0.000 16.000
                            Buckingham rho  0.14900000    Ang       
                            Buckingham C     10.937044    eV*Ang^6  
--------------------------------------------------------------------------------
O3   s O3   s Buckingham    Buckingham A     22764.000    eV        0.000 16.000
                            Buckingham rho  0.14900000    Ang       
                            Buckingham C     10.937044    eV*Ang^6  
--------------------------------------------------------------------------------
O1   c O1   s Spring (c-s)  Spring k 2       180.31577    eV*Ang^-2 0.000  0.800
                            Spring k 4       0.0000000    eV*Ang^-4 
--------------------------------------------------------------------------------
O2   c O2   s Spring (c-s)  Spring k 2       75.969800    eV*Ang^-2 0.000  0.800
                            Spring k 4       0.0000000    eV*Ang^-4 
--------------------------------------------------------------------------------
O3   c O3   s Spring (c-s)  Spring k 2       128.14270    eV*Ang^-2 0.000  0.800
                            Spring k 4       0.0000000    eV*Ang^-4 
--------------------------------------------------------------------------------

  General Three-body potentials :

--------------------------------------------------------------------------------
  Atoms       Potential      Parameter       Value         Units   Cutoffs(Ang)
  1 / 2 / 3                                                          Min /  Max 
--------------------------------------------------------------------------------
Si    core    Harmonic      Three-body cnst  1.2614000    eV*rad^-2 0.000  1.900
O1    shel                  Three-body angl  109.47000    degrees   0.000  1.900
O1    shel                  Three-body k4    0.0000000    eV*rad^-4 0.000  3.500
                            Three-body k3    0.0000000    eV*rad^-3 
--------------------------------------------------------------------------------
Si    core    Harmonic      Three-body cnst  1.2614000    eV*rad^-2 0.000  1.900
O1    shel                  Three-body angl  109.47000    degrees   0.000  1.900
õ(1   shel                  Three-body k4    0.0000000    eV*rad^-4 0.000  3.500
                            Three-body k3    0.0000000    eV*rad^-3 
--------------------------------------------------------------------------------
Si    core    Harmonic      Three-body cnst  1.2614000    eV*rad^-2 0.000  1.900
õ(1   shel                  Three-body angl  109.47000    degrees   0.000  1.900
õ(1   shel                  Three-body k4    0.0000000    eV*rad^-4 0.000  3.500
                            Three-body k3    0.0000000    eV*rad^-3 
--------------------------------------------------------------------------------
Si    core    Harmonic      Three-body cnst  1.2614000    eV*rad^-2 0.000  1.900
O1    shel                  Three-body angl  109.47000    degrees   0.000  1.900
O2    shel                  Three-body k4    0.0000000    eV*rad^-4 0.000  3.500
                            Three-body k3    0.0000000    eV*rad^-3 
--------------------------------------------------------------------------------
Si    core    Harmonic      Three-body cnst  1.2614000    eV*rad^-2 0.000  1.900
O1    shel                  Three-body angl  109.47000    degrees   0.000  1.900
õ(2   shel                  Three-body k4    0.0000000    eV*rad^-4 0.000  3.500
                            Three-body k3    0.0000000    eV*rad^-3 
--------------------------------------------------------------------------------
Si    core    Harmonic      Three-body cnst  1.2614000    eV*rad^-2 0.000  1.900
O2    shel                  Three-body angl  109.47000    degrees   0.000  1.900
õ(1   shel                  Three-body k4    0.0000000    eV*rad^-4 0.000  3.500
                            Three-body k3    0.0000000    eV*rad^-3 
--------------------------------------------------------------------------------
Si    core    Harmonic      Three-body cnst  1.2614000    eV*rad^-2 0.000  1.900
õ(1   shel                  Three-body angl  109.47000    degrees   0.000  1.900
õ(2   shel                  Three-body k4    0.0000000    eV*rad^-4 0.000  3.500
                            Three-body k3    0.0000000    eV*rad^-3 
--------------------------------------------------------------------------------
Si    core    Harmonic      Three-body cnst  1.2614000    eV*rad^-2 0.000  1.900
O2    shel                  Three-body angl  109.47000    degrees   0.000  1.900
O2    shel                  Three-body k4    0.0000000    eV*rad^-4 0.000  3.500
                            Three-body k3    0.0000000    eV*rad^-3 
--------------------------------------------------------------------------------
Si    core    Harmonic      Three-body cnst  1.2614000    eV*rad^-2 0.000  1.900
O2    shel                  Three-body angl  109.47000    degrees   0.000  1.900
õ(2   shel                  Three-body k4    0.0000000    eV*rad^-4 0.000  3.500
                            Three-body k3    0.0000000    eV*rad^-3 
--------------------------------------------------------------------------------
Si    core    Harmonic      Three-body cnst  1.2614000    eV*rad^-2 0.000  1.900
õ(2   shel                  Three-body angl  109.47000    degrees   0.000  1.900
õ(2   shel                  Three-body k4    0.0000000    eV*rad^-4 0.000  3.500
                            Three-body k3    0.0000000    eV*rad^-3 
--------------------------------------------------------------------------------

********************************************************************************
*  Output for configuration   1 : c00021.vasp                                  *
********************************************************************************


  Components of energy : 

--------------------------------------------------------------------------------
  Interatomic potentials     =         752.32827789 eV    
  Three-body potentials      =           0.01493991 eV    
  Monopole - monopole (real) =       -2676.00317478 eV    
  Monopole - monopole (recip)=       -1115.35404472 eV    
  Monopole - monopole (total)=       -3791.35721950 eV    
--------------------------------------------------------------------------------
  Total lattice energy       =       -3039.01400171 eV    
--------------------------------------------------------------------------------
  Total lattice energy       =         -293218.3956 kJ/(mole unit cells)
--------------------------------------------------------------------------------


  Number of variables =      363

  Maximum number of calculations  =          1000
  Maximum Hessian update interval =            10
  Maximum step size               =   0.100000000
  Maximum parameter tolerance     =   0.000010000
  Maximum function  tolerance     =   0.000010000
  Maximum gradient  tolerance     =   0.001000000
  Maximum gradient  component     =   0.010000000

  Symmetry not applied to optimisation

  Cell parameters to be optimised using strains

  Newton-Raphson optimiser to be used

  BFGS hessian update to be used

  Lower half triangular hessian to be used

  Minimiser to switch to RFO
  When gradient norm is less than     0.050000

  Dumpfile to be written after every cycle

  Start of bulk optimisation :

  Cycle:      0 Energy:     -3039.014002  Gnorm:      4.289483  CPU:    0.117
  ** Hessian calculated **
  Cycle:      1 Energy:     -3069.529326  Gnorm:      0.932216  CPU:    0.246
  ** Hessian calculated **
  Cycle:      2 Energy:     -3071.729954  Gnorm:      0.663224  CPU:    0.461
  ** Hessian calculated **
  Cycle:      3 Energy:     -3073.003073  Gnorm:      0.355693  CPU:    0.659
  Cycle:      4 Energy:     -3073.360918  Gnorm:      0.211928  CPU:    0.761
  Cycle:      5 Energy:     -3073.597209  Gnorm:      0.161575  CPU:    0.884
  Cycle:      6 Energy:     -3073.821533  Gnorm:      0.126780  CPU:    1.006
  Cycle:      7 Energy:     -3074.011438  Gnorm:      0.107099  CPU:    1.124
  Cycle:      8 Energy:     -3074.101690  Gnorm:      0.081126  CPU:    1.226
  Cycle:      9 Energy:     -3074.157294  Gnorm:      0.069723  CPU:    1.329
  Cycle:     10 Energy:     -3074.185172  Gnorm:      0.054924  CPU:    1.433
  Cycle:     11 Energy:     -3074.209423  Gnorm:      0.052798  CPU:    1.554
  Cycle:     12 Energy:     -3074.234173  Gnorm:      0.056119  CPU:    1.668
  ** Hessian calculated **
  Cycle:     13 Energy:     -3074.260853  Gnorm:      0.054774  CPU:    1.871
  Cycle:     14 Energy:     -3074.303871  Gnorm:      0.052545  CPU:    2.002
  Cycle:     15 Energy:     -3074.361221  Gnorm:      0.049433  CPU:    2.136
  ** Hessian has wrong structure
  ** Imaginary eigenvectors =   3
  Cycle:     16 Energy:     -3074.374809  Gnorm:      0.068537  CPU:    2.438
  ** Hessian has wrong structure
  ** Imaginary eigenvectors =   4
  Cycle:     17 Energy:     -3074.429334  Gnorm:      0.069674  CPU:    2.885
  ** Hessian has wrong structure
  ** Imaginary eigenvectors =   2
  Cycle:     18 Energy:     -3074.453711  Gnorm:      0.072750  CPU:    3.248
  ** Hessian has wrong structure
  ** Imaginary eigenvectors =   1
  ** Hessian has required structure
  Cycle:     19 Energy:     -3074.746963  Gnorm:      0.053530  CPU:    3.720
  ** Hessian has required structure
  Cycle:     20 Energy:     -3074.868329  Gnorm:      0.030202  CPU:    3.867
  ** Hessian has required structure
  Cycle:     21 Energy:     -3074.909963  Gnorm:      0.033065  CPU:    4.030
  ** Hessian has required structure
  Cycle:     22 Energy:     -3074.937117  Gnorm:      0.033087  CPU:    4.176
  ** Hessian has required structure
  Cycle:     23 Energy:     -3074.959053  Gnorm:      0.017307  CPU:    4.323
  ** Hessian has required structure
  Cycle:     24 Energy:     -3074.967477  Gnorm:      0.015351  CPU:    4.469
  ** Hessian has required structure
  Cycle:     25 Energy:     -3074.978335  Gnorm:      0.012807  CPU:    4.631
  ** Hessian has required structure
  Cycle:     26 Energy:     -3074.985779  Gnorm:      0.013119  CPU:    4.776
  ** Hessian has required structure
  Cycle:     27 Energy:     -3074.992557  Gnorm:      0.010179  CPU:    4.922
  ** Hessian has required structure
  Cycle:     28 Energy:     -3074.996847  Gnorm:      0.008830  CPU:    5.068
  ** Hessian has wrong structure
  ** Imaginary eigenvectors =   1
  ** Hessian has wrong structure
  ** Imaginary eigenvectors =   1
  Cycle:     29 Energy:     -3075.001964  Gnorm:      0.011919  CPU:    5.591
  ** Hessian has wrong structure
  ** Imaginary eigenvectors =   1
  Cycle:     30 Energy:     -3074.996011  Gnorm:      0.032556  CPU:    5.840
  ** Hessian has wrong structure
  ** Imaginary eigenvectors =   1
  Cycle:     31 Energy:     -3075.011877  Gnorm:      0.029832  CPU:    6.113
  ** Hessian has required structure
  ** Hessian has required structure
  Cycle:     32 Energy:     -3075.032546  Gnorm:      0.026461  CPU:    6.428
  ** Hessian has required structure
  Cycle:     33 Energy:     -3075.044156  Gnorm:      0.017453  CPU:    6.596
  ** Hessian has required structure
  Cycle:     34 Energy:     -3075.049948  Gnorm:      0.013853  CPU:    6.763
  ** Hessian has required structure
  Cycle:     35 Energy:     -3075.055125  Gnorm:      0.009023  CPU:    6.948
  ** Hessian has required structure
  Cycle:     36 Energy:     -3075.058027  Gnorm:      0.011679  CPU:    7.113
  ** Hessian has required structure
  Cycle:     37 Energy:     -3075.061149  Gnorm:      0.009217  CPU:    7.281
  ** Hessian has required structure
  Cycle:     38 Energy:     -3075.063086  Gnorm:      0.009811  CPU:    7.466
  ** Hessian has required structure
  Cycle:     39 Energy:     -3075.064654  Gnorm:      0.004727  CPU:    7.632
  ** Hessian has required structure
  Cycle:     40 Energy:     -3075.065681  Gnorm:      0.004438  CPU:    7.797
  ** Hessian has required structure
  Cycle:     41 Energy:     -3075.066449  Gnorm:      0.003180  CPU:    7.981
  ** Hessian has required structure
  Cycle:     42 Energy:     -3075.066769  Gnorm:      0.001929  CPU:    8.223
  ** Hessian has required structure
  Cycle:     43 Energy:     -3075.066886  Gnorm:      0.001181  CPU:    8.388
  ** Hessian has required structure
  Cycle:     44 Energy:     -3075.066928  Gnorm:      0.000717  CPU:    8.554
  ** Hessian has required structure
  Cycle:     45 Energy:     -3075.066948  Gnorm:      0.000364  CPU:    8.739
  ** Hessian has required structure
  Cycle:     46 Energy:     -3075.066952  Gnorm:      0.000219  CPU:    8.904
  ** Hessian has required structure
  Cycle:     47 Energy:     -3075.066955  Gnorm:      0.000132  CPU:    9.069
  ** Hessian has required structure
  Cycle:     48 Energy:     -3075.066955  Gnorm:      0.000093  CPU:    9.218
  ** Hessian has required structure


  **** Optimisation achieved ****


  Final energy =   -3075.06695573 eV      
  Final Gnorm  =       0.00006480

  Components of energy : 

--------------------------------------------------------------------------------
  Interatomic potentials     =         817.65694281 eV    
  Three-body potentials      =           0.25418928 eV    
  Monopole - monopole (real) =       -2242.35356985 eV    
  Monopole - monopole (recip)=       -1650.62451798 eV    
  Monopole - monopole (total)=       -3892.97808783 eV    
--------------------------------------------------------------------------------
  Total lattice energy       =       -3075.06695573 eV    
--------------------------------------------------------------------------------
  Total lattice energy       =         -296696.9545 kJ/(mole unit cells)
--------------------------------------------------------------------------------

  Final fractional coordinates of atoms :

--------------------------------------------------------------------------------
   No.  Atomic        x           y          z          Radius
        Label       (Frac)      (Frac)     (Frac)       (Angs) 
--------------------------------------------------------------------------------
     1  Ge    c     0.556730    0.000000    0.122130    0.000000
     2  Ge    c     0.848773    0.344635    0.718023    0.000000
     3  Si    c     0.047588    0.012762    0.379142    0.000000
     4  Si    c     0.448215    0.009026    0.377385    0.000000
     5  Si    c     0.951743    0.036945    0.637302    0.000000
     6  Si    c     0.544496    0.013606    0.638031    0.000000
     7  Si    c     0.943061    0.019412    0.127868    0.000000
     8  Si    c     0.441711    0.020072    0.883376    0.000000
     9  Si    c     0.055314    0.019314    0.890758    0.000000
    10  Si    c     0.151243    0.322440    0.290616    0.000000
    11  Si    c     0.344567    0.701452    0.292842    0.000000
    12  Si    c     0.649340    0.709036    0.736888    0.000000
    13  Si    c     0.829756    0.755972    0.731129    0.000000
    14  Si    c     0.664910    0.301237    0.726081    0.000000
    15  Si    c     0.163531    0.728281    0.289041    0.000000
    16  Si    c     0.332627    0.295465    0.292281    0.000000
    17  Si    c     0.673937    0.284004    0.027774    0.000000
    18  Si    c     0.830807    0.734243    0.033971    0.000000
    19  Si    c     0.331881    0.301469    0.990928    0.000000
    20  Si    c     0.166043    0.733216    0.987309    0.000000
    21  Si    c     0.347431    0.702777    0.991720    0.000000
    22  Si    c     0.150171    0.332500    0.989927    0.000000
    23  Si    c     0.650049    0.680653    0.036732    0.000000
    24  Si    c     0.854891    0.338403    0.025483    0.000000
    25  O2    c     0.092601    0.201591    0.375527    0.000000
    26  O2    c     0.403980    0.818918    0.377020    0.000000
    27  O3    c     0.916976    0.231593    0.629158    0.000000
    28  O2    c     0.588340    0.827223    0.656122    0.000000
    29  O2    c     0.875785    0.908718    0.653089    0.000000
    30  O2    c     0.606539    0.174599    0.647388    0.000000
    31  O2    c     0.111727    0.858051    0.373273    0.000000
    32  O2    c     0.382844    0.162720    0.380773    0.000000
    33  O2    c     0.999858    0.990801    0.510385    0.000000
    34  O2    c     0.506249    0.019294    0.497546    0.000000
    35  O2    c     0.986076    0.995861    0.263303    0.000000
    36  O3    c     0.500221    0.040811    0.252031    0.000000
    37  O2    c     0.010805    0.007465    0.756395    0.000000
    38  O2    c     0.473591    0.032142    0.738412    0.000000
    39  O3    c     0.638208    0.138051    0.120732    0.000000
    40  O2    c     0.871430    0.878741    0.124440    0.000000
    41  O2    c     0.373687    0.164641    0.898896    0.000000
    42  O2    c     0.123479    0.873009    0.894356    0.000000
    43  O2    c     0.407060    0.823142    0.909563    0.000000
    44  O2    c     0.092975    0.214943    0.902498    0.000000
    45  O3    c     0.590199    0.785174    0.124072    0.000000
    46  O2    c     0.911904    0.219341    0.114834    0.000000
    47  O3    c     0.509945    0.063714    0.982098    0.000000
    48  O2    c     0.999180    0.972431    0.009896    0.000000
    49  O2    c     0.136119    0.527477    0.319274    0.000000
    50  O2    c     0.359803    0.495509    0.321961    0.000000
    51  O3    c     0.863314    0.567853    0.694047    0.000000
    52  O2    c     0.635066    0.502658    0.708966    0.000000
    53  O2    c     0.240736    0.272580    0.325412    0.000000
    54  O2    c     0.255094    0.750515    0.326423    0.000000
    55  O3    c     0.753338    0.290359    0.675611    0.000000
    56  O2    c     0.737493    0.763664    0.694509    0.000000
    57  O2    c     0.134198    0.284448    0.140016    0.000000
    58  O2    c     0.362337    0.745406    0.142360    0.000000
    59  O3    c     0.869144    0.291023    0.877540    0.000000
    60  O2    c     0.636263    0.746439    0.888398    0.000000
    61  O2    c     0.838304    0.790852    0.883977    0.000000
    62  O2    c     0.664849    0.239304    0.876088    0.000000
    63  O2    c     0.152897    0.777099    0.137775    0.000000
    64  O2    c     0.345954    0.251167    0.141530    0.000000
    65  O2    c     0.632858    0.472693    0.052224    0.000000
    66  O2    c     0.872762    0.544580    0.052977    0.000000
    67  O2    c     0.365560    0.498656    0.963839    0.000000
    68  O2    c     0.132354    0.537342    0.959718    0.000000
    69  O2    c     0.765389    0.297767    0.062609    0.000000
    70  O2    c     0.740096    0.722656    0.075567    0.000000
    71  O2    c     0.240079    0.292351    0.957109    0.000000
    72  O2    c     0.258005    0.744749    0.954191    0.000000
    73  O2    s     0.094320    0.194966    0.366539    0.000000
    74  O2    s     0.402073    0.825935    0.367790    0.000000
    75  O3    s     0.914940    0.221248    0.637097    0.000000
    76  O2    s     0.590407    0.834168    0.663161    0.000000
    77  O2    s     0.878669    0.905291    0.660157    0.000000
    78  O2    s     0.606315    0.171120    0.655104    0.000000
    79  O2    s     0.110674    0.860100    0.364344    0.000000
    80  O2    s     0.384104    0.161333    0.370581    0.000000
    81  O2    s     0.999890    0.998683    0.509663    0.000000
    82  O2    s     0.503880    0.017397    0.499821    0.000000
    83  O2    s     0.988098    0.000580    0.260651    0.000000
    84  O3    s     0.499912    0.033607    0.253355    0.000000
    85  O2    s     0.009451    0.012163    0.759025    0.000000
    86  O2    s     0.477819    0.028721    0.743727    0.000000
    87  O3    s     0.635469    0.142637    0.110839    0.000000
    88  O2    s     0.874592    0.877788    0.114717    0.000000
    89  O2    s     0.376214    0.164677    0.907784    0.000000
    90  O2    s     0.120966    0.872959    0.904491    0.000000
    91  O2    s     0.403988    0.830261    0.916144    0.000000
    92  O2    s     0.095339    0.207311    0.911029    0.000000
    93  O3    s     0.593619    0.791643    0.115021    0.000000
    94  O2    s     0.909128    0.210880    0.106609    0.000000
    95  O3    s     0.506606    0.053769    0.983358    0.000000
    96  O2    s     0.999242    0.982896    0.009630    0.000000
    97  O2    s     0.140716    0.526707    0.312928    0.000000
    98  O2    s     0.355218    0.496580    0.315610    0.000000
    99  O3    s     0.858713    0.568561    0.699742    0.000000
   100  O2    s     0.639731    0.503873    0.713780    0.000000
   101  O2    s     0.241048    0.280464    0.318078    0.000000
   102  O2    s     0.254892    0.742826    0.318811    0.000000
   103  O3    s     0.752183    0.295769    0.683995    0.000000
   104  O2    s     0.737857    0.757039    0.702883    0.000000
   105  O2    s     0.137688    0.293468    0.140040    0.000000
   106  O2    s     0.358949    0.736427    0.142286    0.000000
   107  O3    s     0.866096    0.299972    0.879546    0.000000
   108  O2    s     0.639031    0.735930    0.887606    0.000000
   109  O2    s     0.836569    0.781077    0.883892    0.000000
   110  O2    s     0.665791    0.250455    0.876161    0.000000
   111  O2    s     0.155440    0.767284    0.137898    0.000000
   112  O2    s     0.343084    0.261031    0.141464    0.000000
   113  O2    s     0.638931    0.475813    0.048032    0.000000
   114  O2    s     0.866543    0.542677    0.048118    0.000000
   115  O2    s     0.360046    0.499778    0.969726    0.000000
   116  O2    s     0.137851    0.536034    0.965918    0.000000
   117  O2    s     0.765223    0.300892    0.054569    0.000000
   118  O2    s     0.740390    0.719401    0.066893    0.000000
   119  O2    s     0.240301    0.297901    0.964553    0.000000
   120  O2    s     0.257788    0.738776    0.961999    0.000000
--------------------------------------------------------------------------------

  Final Cartesian lattice vectors (Angstroms) :

       17.026322   -0.084275   -0.029483
       -0.036445    7.575148    0.057034
       -0.018109    0.077770   10.337815


  Final cell parameters and derivatives :

--------------------------------------------------------------------------------
       a           17.026556 Angstrom     dE/de1(xx)    -0.000336 eV/strain
       b            7.575450 Angstrom     dE/de2(yy)    -0.002020 eV/strain
       c           10.338123 Angstrom     dE/de3(zz)     0.002766 eV/strain
       alpha       89.137134 Degrees      dE/de4(yz)     0.000022 eV/strain
       beta        90.201706 Degrees      dE/de5(xz)     0.000132 eV/strain
       gamma       90.559980 Degrees      dE/de6(xy)     0.000727 eV/strain
--------------------------------------------------------------------------------

  Primitive cell volume =          1333.228253 Angs**3

  Density of cell =      1.907144 g/cm**3

  Non-primitive cell volume =          1333.228253 Angs**3


  Final internal derivatives :

--------------------------------------------------------------------------------
   No.  Atomic          a             b             c           Radius
        Label          (eV)          (eV)          (eV)        (eV/Angs)
--------------------------------------------------------------------------------
      1 Ge    c       0.000000      0.000000      0.000000      0.000000
      2 Ge    c      -0.000266      0.000353     -0.000221      0.000000
      3 Si    c       0.005983      0.000185      0.000590      0.000000
      4 Si    c      -0.003831     -0.000185      0.001494      0.000000
      5 Si    c      -0.004564      0.001267      0.001886      0.000000
      6 Si    c       0.000658     -0.000194      0.000544      0.000000
      7 Si    c      -0.002606      0.000600     -0.001343      0.000000
      8 Si    c      -0.002929      0.000088     -0.000657      0.000000
      9 Si    c       0.001975     -0.000341      0.000496      0.000000
     10 Si    c      -0.000399     -0.000011      0.000115      0.000000
     11 Si    c       0.000247     -0.000028      0.000150      0.000000
     12 Si    c      -0.000300      0.000283     -0.000442      0.000000
     13 Si    c      -0.001299     -0.001066     -0.000213      0.000000
     14 Si    c       0.002455      0.000488     -0.000229      0.000000
     15 Si    c       0.000320     -0.000252      0.000074      0.000000
     16 Si    c       0.000204     -0.000022      0.000081      0.000000
     17 Si    c       0.004171      0.000809     -0.000040      0.000000
     18 Si    c      -0.001799     -0.000831      0.000580      0.000000
     19 Si    c       0.000139      0.000147     -0.000132      0.000000
     20 Si    c      -0.000311     -0.000148     -0.000023      0.000000
     21 Si    c       0.000119     -0.000179     -0.000160      0.000000
     22 Si    c      -0.000312      0.000183     -0.000096      0.000000
     23 Si    c       0.000098     -0.000320     -0.000123      0.000000
     24 Si    c      -0.000128      0.000060     -0.000001      0.000000
     25 O2    c       0.000032      0.000262     -0.000196      0.000000
     26 O2    c      -0.000252     -0.000434     -0.000067      0.000000
     27 O3    c       0.001754     -0.000916      0.000161      0.000000
     28 O2    c      -0.000331      0.000137     -0.000057      0.000000
     29 O2    c      -0.000479     -0.000502     -0.000314      0.000000
     30 O2    c      -0.000497     -0.000210     -0.000227      0.000000
     31 O2    c       0.000030     -0.000086      0.000377      0.000000
     32 O2    c       0.000087      0.000100      0.000051      0.000000
     33 O2    c       0.004766     -0.000954     -0.001891      0.000000
     34 O2    c       0.002883      0.000122     -0.000103      0.000000
     35 O2    c      -0.006355     -0.000070     -0.000926      0.000000
     36 O3    c      -0.000821      0.000724     -0.001792      0.000000
     37 O2    c      -0.000775     -0.000358     -0.001540      0.000000
     38 O2    c      -0.002249     -0.000018     -0.000050      0.000000
     39 O3    c      -0.001600     -0.001137     -0.000216      0.000000
     40 O2    c       0.001200      0.000150     -0.000337      0.000000
     41 O2    c       0.000210     -0.000323     -0.000337      0.000000
     42 O2    c      -0.000477      0.000245     -0.000079      0.000000
     43 O2    c       0.000269      0.000073      0.000016      0.000000
     44 O2    c       0.000568      0.000677      0.000126      0.000000
     45 O3    c      -0.001060     -0.000403      0.000270      0.000000
     46 O2    c       0.000809     -0.000514      0.000310      0.000000
     47 O3    c       0.003987      0.001334      0.000165      0.000000
     48 O2    c       0.000760     -0.000151      0.000338      0.000000
     49 O2    c      -0.000026     -0.000107     -0.000008      0.000000
     50 O2    c       0.000058      0.000033     -0.000000      0.000000
     51 O3    c      -0.001388      0.001381      0.001233      0.000000
     52 O2    c       0.000421     -0.002040      0.000245      0.000000
     53 O2    c      -0.000267      0.000020     -0.000035      0.000000
     54 O2    c       0.000414     -0.000033     -0.000002      0.000000
     55 O3    c      -0.004737      0.000746      0.001462      0.000000
     56 O2    c       0.005151     -0.000124      0.000346      0.000000
     57 O2    c      -0.000090      0.000063      0.000049      0.000000
     58 O2    c       0.000098     -0.000030      0.000038      0.000000
     59 O3    c      -0.000264      0.000269     -0.000472      0.000000
     60 O2    c       0.000281     -0.000201      0.000950      0.000000
     61 O2    c      -0.000451     -0.000307      0.000111      0.000000
     62 O2    c       0.000070      0.000187      0.000072      0.000000
     63 O2    c       0.000167     -0.000063     -0.000153      0.000000
     64 O2    c      -0.000184      0.000090      0.000053      0.000000
     65 O2    c       0.001804     -0.001369     -0.000206      0.000000
     66 O2    c      -0.001489      0.002203     -0.000374      0.000000
     67 O2    c       0.000038      0.000203     -0.000001      0.000000
     68 O2    c      -0.000150     -0.000098      0.000011      0.000000
     69 O2    c      -0.008342      0.000529     -0.000679      0.000000
     70 O2    c       0.005522     -0.000364     -0.000754      0.000000
     71 O2    c      -0.000599      0.000033     -0.000016      0.000000
     72 O2    c       0.000327     -0.000001     -0.000023      0.000000
     73 O2    s       0.001653      0.000348      0.000336      0.000000
     74 O2    s      -0.001467     -0.000187      0.000115      0.000000
     75 O3    s      -0.002129      0.000665      0.000097      0.000000
     76 O2    s       0.000145      0.000123      0.000129      0.000000
     77 O2    s      -0.002799     -0.000332      0.000150      0.000000
     78 O2    s       0.002410      0.000381      0.000133      0.000000
     79 O2    s       0.001689     -0.000253     -0.000334      0.000000
     80 O2    s      -0.001507      0.000189      0.000077      0.000000
     81 O2    s      -0.001847      0.000456      0.000838      0.000000
     82 O2    s       0.000994      0.000038      0.000449      0.000000
     83 O2    s       0.000404     -0.000222      0.000293      0.000000
     84 O3    s       0.000533      0.000139      0.000709      0.000000
     85 O2    s      -0.000339      0.000193      0.000766      0.000000
     86 O2    s       0.000331     -0.000238     -0.000007      0.000000
     87 O3    s       0.003965      0.001123      0.000096      0.000000
     88 O2    s      -0.001647     -0.000522     -0.000466      0.000000
     89 O2    s      -0.001324      0.000047      0.000291      0.000000
     90 O2    s       0.001367     -0.000036     -0.000016      0.000000
     91 O2    s      -0.000866     -0.000262     -0.000097      0.000000
     92 O2    s       0.001099     -0.000104     -0.000056      0.000000
     93 O3    s       0.001166      0.000068     -0.000356      0.000000
     94 O2    s      -0.000791     -0.000244     -0.000344      0.000000
     95 O3    s      -0.000885     -0.000619     -0.000289      0.000000
     96 O2    s      -0.001278     -0.000346      0.000281      0.000000
     97 O2    s       0.000167     -0.000024     -0.000025      0.000000
     98 O2    s      -0.000221      0.000046     -0.000003      0.000000
     99 O3    s      -0.001929      0.000170      0.000259      0.000000
    100 O2    s       0.001468     -0.000418      0.000634      0.000000
    101 O2    s      -0.000042     -0.000035      0.000047      0.000000
    102 O2    s       0.000097      0.000051     -0.000010      0.000000
    103 O3    s       0.000613      0.000520      0.000671      0.000000
    104 O2    s       0.001064     -0.000614      0.000703      0.000000
    105 O2    s       0.000292     -0.000188      0.000004      0.000000
    106 O2    s      -0.000149      0.000150     -0.000056      0.000000
    107 O3    s      -0.000567     -0.000352     -0.000317      0.000000
    108 O2    s       0.000137      0.000039     -0.000143      0.000000
    109 O2    s      -0.002235     -0.000404      0.000309      0.000000
    110 O2    s       0.003066      0.001463     -0.000098      0.000000
    111 O2    s      -0.000657      0.000264      0.000253      0.000000
    112 O2    s       0.000585     -0.000297     -0.000019      0.000000
    113 O2    s       0.001353     -0.000829     -0.001017      0.000000
    114 O2    s      -0.001350      0.000636     -0.000058      0.000000
    115 O2    s      -0.000082      0.000066      0.000060      0.000000
    116 O2    s       0.000370     -0.000096      0.000004      0.000000
    117 O2    s      -0.000687     -0.000025     -0.000498      0.000000
    118 O2    s       0.000414      0.000006     -0.001185      0.000000
    119 O2    s      -0.000116     -0.000067     -0.000019      0.000000
    120 O2    s       0.000156      0.000061     -0.000027      0.000000
--------------------------------------------------------------------------------
  Maximum abs         0.008342      0.002203      0.001891      0.000000
--------------------------------------------------------------------------------


  Born effective charge tensors : 

-------------------------------------------------------------------------------
  Atom             x           y             z
-------------------------------------------------------------------------------
    1 Ge    x       4.2985     -0.3493     -0.2040
            y       0.2165      3.9043      0.0156
            z      -0.7453      0.1302      3.7582
-------------------------------------------------------------------------------
    2 Ge    x       3.9689     -0.2716     -0.0678
            y      -0.4036      4.2122      0.2509
            z      -0.1378      0.0819      3.4430
-------------------------------------------------------------------------------
    3 Si    x       3.4451      0.1064     -0.1875
            y      -0.1237      3.2315      0.0229
            z      -0.4621     -0.0525      3.7994
-------------------------------------------------------------------------------
    4 Si    x       3.6380      0.1546     -0.0286
            y      -0.0919      3.2842      0.0042
            z       0.4499     -0.0343      4.0583
-------------------------------------------------------------------------------
    5 Si    x       3.5809     -0.3931     -0.1896
            y       0.0320      3.4596     -0.0521
            z      -0.4887      0.1780      3.8977
-------------------------------------------------------------------------------
    6 Si    x       3.4672     -0.1003      0.3211
            y       0.0911      3.2389     -0.0166
            z       0.3318     -0.0039      3.7908
-------------------------------------------------------------------------------
    7 Si    x       3.4567     -0.1706      0.2296
            y       0.2105      3.2304     -0.0123
            z       0.4860     -0.0318      3.1093
-------------------------------------------------------------------------------
    8 Si    x       3.7518      0.2001     -0.1863
            y      -0.1310      3.3184      0.0415
            z      -0.3072      0.0249      3.3035
-------------------------------------------------------------------------------
    9 Si    x       3.4559      0.1469      0.1989
            y      -0.1653      3.2550      0.0235
            z       0.5080      0.0252      3.1256
-------------------------------------------------------------------------------
   10 Si    x       3.1921      0.2139     -0.0778
            y       0.2843      3.4345     -0.1694
            z      -0.0847     -0.0783      2.8123
-------------------------------------------------------------------------------
   11 Si    x       3.1865      0.2052      0.0792
            y       0.2726      3.4214      0.1718
            z       0.1108      0.0868      2.8224
-------------------------------------------------------------------------------
   12 Si    x       3.2291     -0.2085      0.0748
            y      -0.2753      3.4364     -0.1903
            z       0.1247     -0.0676      2.8021
-------------------------------------------------------------------------------
   13 Si    x       3.3140      0.2588     -0.1398
            y       0.0080      3.7438     -0.0210
            z      -0.1563     -0.0059      2.8881
-------------------------------------------------------------------------------
   14 Si    x       3.5961      0.2754      0.0026
            y       0.1692      3.5448      0.2046
            z       0.0664      0.0743      2.8665
-------------------------------------------------------------------------------
   15 Si    x       3.1999     -0.2848     -0.1236
            y      -0.1961      3.4676      0.1596
            z      -0.1057      0.0749      2.8113
-------------------------------------------------------------------------------
   16 Si    x       3.1890     -0.2813      0.1481
            y      -0.1791      3.4522     -0.1559
            z       0.1125     -0.0663      2.8156
-------------------------------------------------------------------------------
   17 Si    x       3.3406      0.5278     -0.2480
            y       0.1616      3.6525     -0.3678
            z      -0.1773     -0.2126      2.8894
-------------------------------------------------------------------------------
   18 Si    x       3.2391      0.3701      0.1722
            y       0.0756      3.4334      0.1782
            z       0.1367      0.0666      2.7075
-------------------------------------------------------------------------------
   19 Si    x       3.2024     -0.2948     -0.1964
            y      -0.0877      3.4370      0.1919
            z      -0.1180      0.0950      2.7660
-------------------------------------------------------------------------------
   20 Si    x       3.2319     -0.3175      0.1821
            y      -0.1095      3.4431     -0.1770
            z       0.1084     -0.0742      2.7312
-------------------------------------------------------------------------------
   21 Si    x       3.2643      0.2285     -0.1379
            y       0.2544      3.3920     -0.1530
            z      -0.1717     -0.0609      2.7293
-------------------------------------------------------------------------------
   22 Si    x       3.2593      0.2368      0.1520
            y       0.2572      3.4002      0.1767
            z       0.1469      0.0708      2.7159
-------------------------------------------------------------------------------
   23 Si    x       3.5441     -0.3880     -0.2809
            y      -0.3969      3.5018      0.3352
            z      -0.3110      0.1316      2.8726
-------------------------------------------------------------------------------
   24 Si    x       3.3177     -0.3073      0.0925
            y      -0.3023      3.5033     -0.0940
            z       0.1261      0.0243      2.9907
-------------------------------------------------------------------------------
   25 O2    x      -1.6434     -0.6928      0.3180
            y      -0.6662     -1.9970      0.3260
            z       0.3521      0.3180     -1.3599
-------------------------------------------------------------------------------
   26 O2    x      -1.6355     -0.6777     -0.3190
            y      -0.6451     -1.9993     -0.3494
            z      -0.3884     -0.3467     -1.3725
-------------------------------------------------------------------------------
   27 O3    x      -1.9169      0.8834      0.3560
            y       0.8504     -2.5454     -0.3243
            z       0.4405     -0.3460     -1.5503
-------------------------------------------------------------------------------
   28 O2    x      -1.6990      0.7252     -0.3666
            y       0.6815     -2.0008      0.3708
            z      -0.3676      0.3498     -1.3555
-------------------------------------------------------------------------------
   29 O2    x      -1.8562     -0.6423      0.3410
            y      -0.7234     -1.8395      0.3437
            z       0.3838      0.2977     -1.3640
-------------------------------------------------------------------------------
   30 O2    x      -1.7824     -0.7248     -0.3564
            y      -0.7571     -1.9509     -0.3473
            z      -0.3700     -0.3315     -1.3502
-------------------------------------------------------------------------------
   31 O2    x      -1.7540      0.7135      0.3370
            y       0.7629     -1.9415     -0.3582
            z       0.3718     -0.3291     -1.3546
-------------------------------------------------------------------------------
   32 O2    x      -1.7374      0.7025     -0.3208
            y       0.7302     -1.9326      0.3387
            z      -0.3650      0.3139     -1.3631
-------------------------------------------------------------------------------
   33 O2    x      -1.5977      0.0509      0.7992
            y       0.0250     -1.0983     -0.0501
            z       1.0236     -0.0918     -2.7622
-------------------------------------------------------------------------------
   34 O2    x      -1.6600     -0.0180     -0.8266
            y      -0.0145     -1.0913     -0.0224
            z      -1.0336     -0.0352     -2.7279
-------------------------------------------------------------------------------
   35 O2    x      -1.7048      0.0265     -0.7392
            y      -0.0117     -1.1166      0.0123
            z      -0.7110      0.0387     -2.2361
-------------------------------------------------------------------------------
   36 O3    x      -2.0772      0.0398      1.0174
            y       0.0036     -1.2710     -0.0175
            z       1.0015     -0.0467     -2.7771
-------------------------------------------------------------------------------
   37 O2    x      -1.6836      0.0109     -0.7212
            y       0.0050     -1.1153      0.0067
            z      -0.7226     -0.0017     -2.2915
-------------------------------------------------------------------------------
   38 O2    x      -1.7358      0.0121      0.6831
            y       0.0362     -1.1120     -0.0152
            z       0.6788     -0.0072     -2.1841
-------------------------------------------------------------------------------
   39 O3    x      -2.1056     -0.9078      0.4419
            y      -0.8776     -2.2999      0.5673
            z       0.4522      0.4992     -1.5073
-------------------------------------------------------------------------------
   40 O2    x      -1.7721     -0.7062     -0.3346
            y      -0.6682     -1.8946     -0.3599
            z      -0.3395     -0.3400     -1.2574
-------------------------------------------------------------------------------
   41 O2    x      -1.7333      0.6911      0.4306
            y       0.6503     -1.9150     -0.4319
            z       0.3725     -0.3807     -1.3049
-------------------------------------------------------------------------------
   42 O2    x      -1.7553      0.7025     -0.3314
            y       0.6842     -1.9091      0.3587
            z      -0.3325      0.3270     -1.2596
-------------------------------------------------------------------------------
   43 O2    x      -1.6562     -0.6623      0.3902
            y      -0.5620     -2.0235      0.4203
            z       0.3793      0.3890     -1.2771
-------------------------------------------------------------------------------
   44 O2    x      -1.6432     -0.6734     -0.3527
            y      -0.5861     -2.0115     -0.3815
            z      -0.3700     -0.3627     -1.2568
-------------------------------------------------------------------------------
   45 O3    x      -2.0387      0.9225      0.5179
            y       0.7773     -2.3650     -0.4797
            z       0.5665     -0.4884     -1.4982
-------------------------------------------------------------------------------
   46 O2    x      -1.6370      0.6769     -0.3324
            y       0.5449     -2.0394      0.3537
            z      -0.3467      0.3398     -1.2284
-------------------------------------------------------------------------------
   47 O3    x      -2.2483     -0.0363     -0.8501
            y      -0.0667     -1.3464     -0.0153
            z      -0.4920      0.0242     -2.0168
-------------------------------------------------------------------------------
   48 O2    x      -1.7950      0.0085      0.6142
            y       0.0019     -1.2007     -0.0154
            z       0.3318     -0.0071     -1.6914
-------------------------------------------------------------------------------
   49 O2    x      -1.1566     -0.0478      0.0610
            y      -0.0956     -2.5592      0.0005
            z       0.0684     -0.0142     -1.0674
-------------------------------------------------------------------------------
   50 O2    x      -1.1575     -0.0483     -0.0672
            y      -0.0915     -2.5505     -0.0159
            z      -0.0764     -0.0054     -1.0704
-------------------------------------------------------------------------------
   51 O3    x      -1.3564      0.1876      0.1039
            y       0.2706     -3.1573     -0.1536
            z       0.1262     -0.1241     -1.2225
-------------------------------------------------------------------------------
   52 O2    x      -1.1708      0.0454     -0.0503
            y       0.1075     -2.6013     -0.0543
            z      -0.0637     -0.0620     -1.0677
-------------------------------------------------------------------------------
   53 O2    x      -2.3966      0.0906     -0.0083
            y       0.0400     -1.2520      0.0649
            z      -0.0013      0.0444     -1.0591
-------------------------------------------------------------------------------
   54 O2    x      -2.3923      0.0908     -0.0133
            y       0.0473     -1.2525     -0.0670
            z      -0.0275     -0.0470     -1.0654
-------------------------------------------------------------------------------
   55 O3    x      -3.0189     -0.1325      0.1342
            y      -0.0403     -1.3894     -0.0945
            z       0.1525     -0.0481     -1.2476
-------------------------------------------------------------------------------
   56 O2    x      -2.4160     -0.1726      0.0184
            y      -0.1014     -1.2558      0.0655
            z       0.0024      0.0390     -1.0853
-------------------------------------------------------------------------------
   57 O2    x      -1.2068     -0.1276     -0.0285
            y      -0.1288     -1.2717      0.0058
            z      -0.0373      0.0165     -2.0571
-------------------------------------------------------------------------------
   58 O2    x      -1.2117     -0.1236      0.0402
            y      -0.1274     -1.2721     -0.0015
            z       0.0458     -0.0132     -2.0765
-------------------------------------------------------------------------------
   59 O3    x      -1.3622      0.1658      0.0019
            y       0.1601     -1.4410     -0.0755
            z      -0.0456     -0.0544     -2.6026
-------------------------------------------------------------------------------
   60 O2    x      -1.2282      0.1376     -0.0018
            y       0.1275     -1.2990      0.0523
            z       0.0161      0.0645     -2.0396
-------------------------------------------------------------------------------
   61 O2    x      -1.1950     -0.1269     -0.0497
            y      -0.0677     -1.2782      0.0804
            z      -0.0330      0.0615     -2.0741
-------------------------------------------------------------------------------
   62 O2    x      -1.2025     -0.1205     -0.0771
            y      -0.0623     -1.3267     -0.0074
            z      -0.0741      0.0228     -2.0399
-------------------------------------------------------------------------------
   63 O2    x      -1.1768      0.1275     -0.0133
            y       0.0917     -1.2886     -0.0102
            z      -0.0027      0.0099     -2.0663
-------------------------------------------------------------------------------
   64 O2    x      -1.1728      0.1246      0.0224
            y       0.0891     -1.2908      0.0171
            z       0.0100      0.0052     -2.0807
-------------------------------------------------------------------------------
   65 O2    x      -1.2899      0.0794      0.0890
            y       0.1641     -2.3956     -0.0459
            z       0.1128     -0.0304     -1.0318
-------------------------------------------------------------------------------
   66 O2    x      -1.2751      0.1001     -0.0763
            y       0.1926     -2.4816     -0.0281
            z      -0.1030     -0.0017     -1.0021
-------------------------------------------------------------------------------
   67 O2    x      -1.2270     -0.0604      0.0897
            y      -0.1234     -2.5069     -0.0181
            z       0.0994     -0.0076     -1.0246
-------------------------------------------------------------------------------
   68 O2    x      -1.2227     -0.0555     -0.0898
            y      -0.1242     -2.5034      0.0033
            z      -0.0953     -0.0101     -1.0195
-------------------------------------------------------------------------------
   69 O2    x      -2.3964     -0.1358     -0.0491
            y      -0.0709     -1.2692      0.0537
            z      -0.0369      0.0254     -1.0345
-------------------------------------------------------------------------------
   70 O2    x      -2.4219     -0.1749     -0.0016
            y      -0.1169     -1.2539     -0.0667
            z       0.0029     -0.0272     -1.0600
-------------------------------------------------------------------------------
   71 O2    x      -2.4231      0.0988     -0.0031
            y       0.0552     -1.2429     -0.0650
            z      -0.0012     -0.0393     -1.0311
-------------------------------------------------------------------------------
   72 O2    x      -2.4233      0.0959     -0.0114
            y       0.0589     -1.2423      0.0634
            z       0.0035      0.0369     -1.0341
-------------------------------------------------------------------------------




  Elastic Constant Matrix: (Units=GPa)

-------------------------------------------------------------------------------
  Indices      1         2         3         4         5         6    
-------------------------------------------------------------------------------
       1     53.7985   25.7840   29.2206    2.6278    4.8468   -1.6215
       2     25.7840   72.3431   22.8868    2.9660    4.8706   -2.1233
       3     29.2206   22.8868   38.7409    1.8613    3.2588   -0.9667
       4      2.6278    2.9660    1.8613   12.5342   -1.2230    0.7163
       5      4.8468    4.8706    3.2588   -1.2230   24.9066    2.2884
       6     -1.6215   -2.1233   -0.9667    0.7163    2.2884   28.7374
-------------------------------------------------------------------------------


  Elastic Compliance Matrix: (Units=1/GPa)

-------------------------------------------------------------------------------
  Indices      1         2         3         4         5         6    
-------------------------------------------------------------------------------
       1    0.033067 -0.004520 -0.021853 -0.002967 -0.002939  0.001105
       2   -0.004520  0.017860 -0.006832 -0.002513 -0.001939  0.001052
       3   -0.021853 -0.006832  0.046407 -0.000736 -0.000509 -0.000118
       4   -0.002967 -0.002513 -0.000736  0.081802  0.005444 -0.002850
       5   -0.002939 -0.001939 -0.000509  0.005444  0.041783 -0.003789
       6    0.001105  0.001052 -0.000118 -0.002850 -0.003789  0.035307
-------------------------------------------------------------------------------

  Mechanical properties :

-------------------------------------------------------------------------------
  Convention :                    Reuss         Voigt         Hill
-------------------------------------------------------------------------------
  Bulk  Modulus (GPa)     =      32.33788      35.62948      33.98368
  Shear Modulus (GPa)     =      15.01761      19.03505      17.02633
-------------------------------------------------------------------------------
  Velocity S-wave (km/s)  =       2.80614       3.15926       2.98792
  Velocity P-wave (km/s)  =       5.23979       5.65597       5.45185
-------------------------------------------------------------------------------
  Compressibility (1/GPa) =    0.03092349
-------------------------------------------------------------------------------
  Stress axis :                     x             y             z
-------------------------------------------------------------------------------
  Youngs Moduli (GPa)     =      30.24187      55.99193      21.54856
-------------------------------------------------------------------------------
  Poissons Ratio (x)      =                     0.25307       0.47091
  Poissons Ratio (y)      =       0.13669                     0.14721
  Poissons Ratio (z)      =       0.66089       0.38252
-------------------------------------------------------------------------------


  Piezoelectric Strain Matrix: (Units=C/m**2)

-------------------------------------------------------------------------------
  Indices      1         2         3         4         5         6    
-------------------------------------------------------------------------------
       x    -0.14427   0.00389  -0.32585  -0.05813  -0.03026  -0.14631
       y     0.01454   0.11561  -0.34984  -0.12685  -0.40786   0.18359
       z    -0.01747   0.17354  -0.83396  -0.16541   0.13279  -0.03396
-------------------------------------------------------------------------------


  Piezoelectric Stress Matrix: (Units=10**-11 C/N)

-------------------------------------------------------------------------------
  Indices      1         2         3         4         5         6    
-------------------------------------------------------------------------------
       x     0.24327   0.29986  -1.19201  -0.38449  -0.04445  -0.50023
       y     0.93812   0.56919  -1.70632  -1.31968  -1.85167   0.85677
       z     1.69258   0.89982  -3.94469  -1.24819   0.49158  -0.09692
-------------------------------------------------------------------------------


  Static dielectric constant tensor : 

-------------------------------------------------------------------------------
              x         y         z
-------------------------------------------------------------------------------
       x     3.85621  -0.03412  -0.05938
       y    -0.03412   3.93677   0.07493
       z    -0.05938   0.07493   3.19944
--------------------------------------------------------------------------------

  High frequency dielectric constant tensor : 

-------------------------------------------------------------------------------
              x         y         z
-------------------------------------------------------------------------------
       x     1.68744  -0.00052   0.00115
       y    -0.00052   1.69504   0.00157
       z     0.00115   0.00157   1.62713
-------------------------------------------------------------------------------

  Static refractive indices : 

-------------------------------------------------------------------------------
    1 =    1.78529      2 =    1.96085      3 =    1.99003
-------------------------------------------------------------------------------

  High frequency refractive indices : 

-------------------------------------------------------------------------------
    1 =    1.27557      2 =    1.29901      3 =    1.30196
-------------------------------------------------------------------------------


  Time to end of optimisation =       9.5508 seconds


  Peak dynamic memory used =       5.01 MB 


  Timing analysis for GULP :

--------------------------------------------------------------------------------
  Task / Subroutine                                          Time (Seconds)
--------------------------------------------------------------------------------
  Calculation of reciprocal space energy and derivatives          0.5911
  Calculation of real space energy and derivatives                6.0678
  Calculation of three-body energy and derivatives                0.6595
  Calculation and manipulation of Hessian matrix                  2.8823
  Calculation of matrix inversion                                 0.0291
  Global summation overhead                                       0.0001
--------------------------------------------------------------------------------
  Total CPU time                                                  9.5508
--------------------------------------------------------------------------------


  Dump file written as c00021.vasp.grs
  CIF file written as c00021.vasp.cif


  Job Finished at 10:50.12  7th October    2025                               

