********************************************************************************
*                       GENERAL UTILITY LATTICE PROGRAM                        *
*                                 Julian Gale                                  *
*                       Curtin Institute for Computation                       *
*                    School of Molecular and Life Sciences                     *
*                    Curtin University, Western Australia                      *
********************************************************************************
* Version = 6.1.2 * Last modified =   3rd November 2022                        *
********************************************************************************
*  optimise     - perform optimisation run                                     *
*  conp         - constant pressure calculation                                *
*  property     - calculate properties for final geometry                      *
********************************************************************************

  Job Started  at 10:51.54  7th October    2025                               

  Number of CPUs =     1


  Total number of configurations input =      1

********************************************************************************
*  Input for Configuration =   1 : c00033.vasp                                 *
********************************************************************************

  Formula = Ge2Si22O48                                                  

  Number of irreducible atoms/shells =     120


  Total number atoms/shells =     120

  Dimensionality = 3               :  Bulk   



  Cartesian lattice vectors (Angstroms) :

       17.182800    0.000000    0.000000
        0.000000    7.513760    0.000000
        0.000000    0.000000   10.447700

  Cell parameters (Angstroms/Degrees):

  a =      17.1828    alpha =  90.0000
  b =       7.5138    beta  =  90.0000
  c =      10.4477    gamma =  90.0000

  Initial cell volume =        1348.875752 Angs**3

  Temperature of configuration =   0.00     K 

  Pressure of configuration =         0.000 GPa 

  Fractional coordinates of asymmetric unit :

--------------------------------------------------------------------------------
   No.  Atomic       x           y          z         Charge      Occupancy
        Label      (Frac)      (Frac)     (Frac)        (e)         (Frac)  
--------------------------------------------------------------------------------
      1 Ge    c    0.160190    0.293910    0.273440     4.00000    1.000000    
      2 Ge    c    0.339810 *  0.293910 *  0.273440 *   4.00000    1.000000    
      3 Si    c    0.052090 *  0.000000 *  0.372270 *   4.00000    1.000000    
      4 Si    c    0.447910 *  0.000000 *  0.372270 *   4.00000    1.000000    
      5 Si    c    0.947910 *  0.000000 *  0.627730 *   4.00000    1.000000    
      6 Si    c    0.552090 *  0.000000 *  0.627730 *   4.00000    1.000000    
      7 Si    c    0.556730 *  0.000000 *  0.122130 *   4.00000    1.000000    
      8 Si    c    0.943270 *  0.000000 *  0.122130 *   4.00000    1.000000    
      9 Si    c    0.443270 *  0.000000 *  0.877870 *   4.00000    1.000000    
     10 Si    c    0.056730 *  0.000000 *  0.877870 *   4.00000    1.000000    
     11 Si    c    0.339810 *  0.706090 *  0.273440 *   4.00000    1.000000    
     12 Si    c    0.839810 *  0.293910 *  0.726560 *   4.00000    1.000000    
     13 Si    c    0.660190 *  0.706090 *  0.726560 *   4.00000    1.000000    
     14 Si    c    0.839810 *  0.706090 *  0.726560 *   4.00000    1.000000    
     15 Si    c    0.660190 *  0.293910 *  0.726560 *   4.00000    1.000000    
     16 Si    c    0.160190 *  0.706090 *  0.273440 *   4.00000    1.000000    
     17 Si    c    0.660660 *  0.294090 *  0.017440 *   4.00000    1.000000    
     18 Si    c    0.839340 *  0.705910 *  0.017440 *   4.00000    1.000000    
     19 Si    c    0.339340 *  0.294090 *  0.982560 *   4.00000    1.000000    
     20 Si    c    0.160660 *  0.705910 *  0.982560 *   4.00000    1.000000    
     21 Si    c    0.339340 *  0.705910 *  0.982560 *   4.00000    1.000000    
     22 Si    c    0.160660 *  0.294090 *  0.982560 *   4.00000    1.000000    
     23 Si    c    0.660660 *  0.705910 *  0.017440 *   4.00000    1.000000    
     24 Si    c    0.839340 *  0.294090 *  0.017440 *   4.00000    1.000000    
     25 O3    c    0.106570 *  0.174340 *  0.366200 *   1.33043    1.000000    
     26 O2    c    0.393430 *  0.825660 *  0.366200 *   0.87073    1.000000    
     27 O2    c    0.893430 *  0.174340 *  0.633800 *   0.87073    1.000000    
     28 O2    c    0.606570 *  0.825660 *  0.633800 *   0.87073    1.000000    
     29 O2    c    0.893430 *  0.825660 *  0.633800 *   0.87073    1.000000    
     30 O2    c    0.606570 *  0.174340 *  0.633800 *   0.87073    1.000000    
     31 O2    c    0.106570 *  0.825660 *  0.366200 *   0.87073    1.000000    
     32 O3    c    0.393430 *  0.174340 *  0.366200 *   1.33043    1.000000    
     33 O2    c    0.000000 *  0.000000 *  0.500000 *   0.87073    1.000000    
     34 O2    c    0.500000 *  0.000000 *  0.500000 *   0.87073    1.000000    
     35 O2    c    0.994520 *  0.000000 *  0.250840 *   0.87073    1.000000    
     36 O2    c    0.505480 *  0.000000 *  0.250840 *   0.87073    1.000000    
     37 O2    c    0.005480 *  0.000000 *  0.749160 *   0.87073    1.000000    
     38 O2    c    0.494520 *  0.000000 *  0.749160 *   0.87073    1.000000    
     39 O2    c    0.610230 *  0.175520 *  0.115390 *   0.87073    1.000000    
     40 O2    c    0.889770 *  0.824480 *  0.115390 *   0.87073    1.000000    
     41 O2    c    0.389770 *  0.175520 *  0.884610 *   0.87073    1.000000    
     42 O2    c    0.110230 *  0.824480 *  0.884610 *   0.87073    1.000000    
     43 O2    c    0.389770 *  0.824480 *  0.884610 *   0.87073    1.000000    
     44 O2    c    0.110230 *  0.175520 *  0.884610 *   0.87073    1.000000    
     45 O2    c    0.610230 *  0.824480 *  0.115390 *   0.87073    1.000000    
     46 O2    c    0.889770 *  0.175520 *  0.115390 *   0.87073    1.000000    
     47 O2    c    0.500000 *  0.000000 *  0.000000 *   0.87073    1.000000    
     48 O2    c    0.000000 *  0.000000 *  0.000000 *   0.87073    1.000000    
     49 O3    c    0.151750 *  0.500000 *  0.313330 *   1.33043    1.000000    
     50 O3    c    0.348250 *  0.500000 *  0.313330 *   1.33043    1.000000    
     51 O2    c    0.848250 *  0.500000 *  0.686670 *   0.87073    1.000000    
     52 O2    c    0.651750 *  0.500000 *  0.686670 *   0.87073    1.000000    
     53 O1    c    0.250000 *  0.234950 *  0.285720 *   1.73396    1.000000    
     54 O2    c    0.250000 *  0.765050 *  0.285720 *   0.87073    1.000000    
     55 O2    c    0.750000 *  0.234950 *  0.714280 *   0.87073    1.000000    
     56 O2    c    0.750000 *  0.765050 *  0.714280 *   0.87073    1.000000    
     57 O3    c    0.131410 *  0.268650 *  0.127790 *   1.33043    1.000000    
     58 O2    c    0.368590 *  0.731350 *  0.127790 *   0.87073    1.000000    
     59 O2    c    0.868590 *  0.268650 *  0.872210 *   0.87073    1.000000    
     60 O2    c    0.631410 *  0.731350 *  0.872210 *   0.87073    1.000000    
     61 O2    c    0.868590 *  0.731350 *  0.872210 *   0.87073    1.000000    
     62 O2    c    0.631410 *  0.268650 *  0.872210 *   0.87073    1.000000    
     63 O2    c    0.131410 *  0.731350 *  0.127790 *   0.87073    1.000000    
     64 O3    c    0.368590 *  0.268650 *  0.127790 *   1.33043    1.000000    
     65 O2    c    0.653920 *  0.500000 *  0.058200 *   0.87073    1.000000    
     66 O2    c    0.846080 *  0.500000 *  0.058200 *   0.87073    1.000000    
     67 O2    c    0.346080 *  0.500000 *  0.941800 *   0.87073    1.000000    
     68 O2    c    0.153920 *  0.500000 *  0.941800 *   0.87073    1.000000    
     69 O2    c    0.750000 *  0.231060 *  0.027050 *   0.87073    1.000000    
     70 O2    c    0.750000 *  0.768940 *  0.027050 *   0.87073    1.000000    
     71 O2    c    0.250000 *  0.231060 *  0.972950 *   0.87073    1.000000    
     72 O2    c    0.250000 *  0.768940 *  0.972950 *   0.87073    1.000000    
     73 O3    s    0.106570 *  0.174340 *  0.366200 *  -3.33043    1.000000    
     74 O2    s    0.393430 *  0.825660 *  0.366200 *  -2.87073    1.000000    
     75 O2    s    0.893430 *  0.174340 *  0.633800 *  -2.87073    1.000000    
     76 O2    s    0.606570 *  0.825660 *  0.633800 *  -2.87073    1.000000    
     77 O2    s    0.893430 *  0.825660 *  0.633800 *  -2.87073    1.000000    
     78 O2    s    0.606570 *  0.174340 *  0.633800 *  -2.87073    1.000000    
     79 O2    s    0.106570 *  0.825660 *  0.366200 *  -2.87073    1.000000    
     80 O3    s    0.393430 *  0.174340 *  0.366200 *  -3.33043    1.000000    
     81 O2    s    0.000000 *  0.000000 *  0.500000 *  -2.87073    1.000000    
     82 O2    s    0.500000 *  0.000000 *  0.500000 *  -2.87073    1.000000    
     83 O2    s    0.994520 *  0.000000 *  0.250840 *  -2.87073    1.000000    
     84 O2    s    0.505480 *  0.000000 *  0.250840 *  -2.87073    1.000000    
     85 O2    s    0.005480 *  0.000000 *  0.749160 *  -2.87073    1.000000    
     86 O2    s    0.494520 *  0.000000 *  0.749160 *  -2.87073    1.000000    
     87 O2    s    0.610230 *  0.175520 *  0.115390 *  -2.87073    1.000000    
     88 O2    s    0.889770 *  0.824480 *  0.115390 *  -2.87073    1.000000    
     89 O2    s    0.389770 *  0.175520 *  0.884610 *  -2.87073    1.000000    
     90 O2    s    0.110230 *  0.824480 *  0.884610 *  -2.87073    1.000000    
     91 O2    s    0.389770 *  0.824480 *  0.884610 *  -2.87073    1.000000    
     92 O2    s    0.110230 *  0.175520 *  0.884610 *  -2.87073    1.000000    
     93 O2    s    0.610230 *  0.824480 *  0.115390 *  -2.87073    1.000000    
     94 O2    s    0.889770 *  0.175520 *  0.115390 *  -2.87073    1.000000    
     95 O2    s    0.500000 *  0.000000 *  0.000000 *  -2.87073    1.000000    
     96 O2    s    0.000000 *  0.000000 *  0.000000 *  -2.87073    1.000000    
     97 O3    s    0.151750 *  0.500000 *  0.313330 *  -3.33043    1.000000    
     98 O3    s    0.348250 *  0.500000 *  0.313330 *  -3.33043    1.000000    
     99 O2    s    0.848250 *  0.500000 *  0.686670 *  -2.87073    1.000000    
    100 O2    s    0.651750 *  0.500000 *  0.686670 *  -2.87073    1.000000    
    101 O1    s    0.250000 *  0.234950 *  0.285720 *  -3.73396    1.000000    
    102 O2    s    0.250000 *  0.765050 *  0.285720 *  -2.87073    1.000000    
    103 O2    s    0.750000 *  0.234950 *  0.714280 *  -2.87073    1.000000    
    104 O2    s    0.750000 *  0.765050 *  0.714280 *  -2.87073    1.000000    
    105 O3    s    0.131410 *  0.268650 *  0.127790 *  -3.33043    1.000000    
    106 O2    s    0.368590 *  0.731350 *  0.127790 *  -2.87073    1.000000    
    107 O2    s    0.868590 *  0.268650 *  0.872210 *  -2.87073    1.000000    
    108 O2    s    0.631410 *  0.731350 *  0.872210 *  -2.87073    1.000000    
    109 O2    s    0.868590 *  0.731350 *  0.872210 *  -2.87073    1.000000    
    110 O2    s    0.631410 *  0.268650 *  0.872210 *  -2.87073    1.000000    
    111 O2    s    0.131410 *  0.731350 *  0.127790 *  -2.87073    1.000000    
    112 O3    s    0.368590 *  0.268650 *  0.127790 *  -3.33043    1.000000    
    113 O2    s    0.653920 *  0.500000 *  0.058200 *  -2.87073    1.000000    
    114 O2    s    0.846080 *  0.500000 *  0.058200 *  -2.87073    1.000000    
    115 O2    s    0.346080 *  0.500000 *  0.941800 *  -2.87073    1.000000    
    116 O2    s    0.153920 *  0.500000 *  0.941800 *  -2.87073    1.000000    
    117 O2    s    0.750000 *  0.231060 *  0.027050 *  -2.87073    1.000000    
    118 O2    s    0.750000 *  0.768940 *  0.027050 *  -2.87073    1.000000    
    119 O2    s    0.250000 *  0.231060 *  0.972950 *  -2.87073    1.000000    
    120 O2    s    0.250000 *  0.768940 *  0.972950 *  -2.87073    1.000000    
--------------------------------------------------------------------------------



********************************************************************************
*  General input information                                                   *
********************************************************************************

  Species output for all configurations : 

--------------------------------------------------------------------------------
  Species    Type    Atomic    Atomic    Charge       Radii (Angs)     Library
                     Number     Mass       (e)     Cova   Ionic  VDW   Symbol
--------------------------------------------------------------------------------
    Ge       Core       32      72.61   4.000000   1.170  0.000  1.750 Ge       
    Si       Core       14      28.09   4.000000   1.200  0.000  2.100 Si       
    O1       Core        8      16.00   1.733957   0.730  0.000  1.360 O1       
    O2       Core        8      16.00   0.870733   0.730  0.000  1.360 O2       
    O3       Core        8      16.00   1.330431   0.730  0.000  1.360 O3       
    O1       Shell       8       0.00  -3.733957   0.730  0.000  0.000 O1       
    O2       Shell       8       0.00  -2.870733   0.730  0.000  0.000 O2       
    O3       Shell       8       0.00  -3.330431   0.730  0.000  0.000 O3       
--------------------------------------------------------------------------------


  Lattice summation method               =    Ewald          (3-D)
                                         =    Parry          (2-D)
                                         =    Saunders et al (1-D)
  Accuracy factor for lattice sums       =   12.000


  Analytic derivatives to be used

  Time limit = Infinity

  Maximum range for interatomic potentials =    100000.000000 Angstroms

  General interatomic potentials :

--------------------------------------------------------------------------------
Atom  Types   Potential      Parameter       Value         Units   Cutoffs(Ang)
  1     2                                                            Min /  Max 
--------------------------------------------------------------------------------
Si   c O1   s Buckingham    Buckingham A     1315.2478    eV        0.000 16.000
                            Buckingham rho  0.31775900    Ang       
                            Buckingham C     10.141118    eV*Ang^6  
--------------------------------------------------------------------------------
Si   c O2   s Buckingham    Buckingham A     1315.2478    eV        0.000 16.000
                            Buckingham rho  0.31775900    Ang       
                            Buckingham C     10.141118    eV*Ang^6  
--------------------------------------------------------------------------------
Si   c O3   s Buckingham    Buckingham A     1315.2478    eV        0.000 16.000
                            Buckingham rho  0.31775900    Ang       
                            Buckingham C     10.141118    eV*Ang^6  
--------------------------------------------------------------------------------
Ge   c O1   s Buckingham    Buckingham A     1497.3996    eV        0.000 16.000
                            Buckingham rho  0.32564600    Ang       
                            Buckingham C     16.808599    eV*Ang^6  
--------------------------------------------------------------------------------
Ge   c O2   s Buckingham    Buckingham A     1497.3996    eV        0.000 16.000
                            Buckingham rho  0.32564600    Ang       
                            Buckingham C     16.808599    eV*Ang^6  
--------------------------------------------------------------------------------
Ge   c O3   s Buckingham    Buckingham A     1497.3996    eV        0.000 16.000
                            Buckingham rho  0.32564600    Ang       
                            Buckingham C     16.808599    eV*Ang^6  
--------------------------------------------------------------------------------
O1   s O1   s Buckingham    Buckingham A     22764.000    eV        0.000 16.000
                            Buckingham rho  0.14900000    Ang       
                            Buckingham C     10.937044    eV*Ang^6  
--------------------------------------------------------------------------------
O1   s O2   s Buckingham    Buckingham A     22764.000    eV        0.000 16.000
                            Buckingham rho  0.14900000    Ang       
                            Buckingham C     10.937044    eV*Ang^6  
--------------------------------------------------------------------------------
O1   s O3   s Buckingham    Buckingham A     22764.000    eV        0.000 16.000
                            Buckingham rho  0.14900000    Ang       
                            Buckingham C     10.937044    eV*Ang^6  
--------------------------------------------------------------------------------
O2   s O2   s Buckingham    Buckingham A     22764.000    eV        0.000 16.000
                            Buckingham rho  0.14900000    Ang       
                            Buckingham C     10.937044    eV*Ang^6  
--------------------------------------------------------------------------------
O2   s O3   s Buckingham    Buckingham A     22764.000    eV        0.000 16.000
                            Buckingham rho  0.14900000    Ang       
                            Buckingham C     10.937044    eV*Ang^6  
--------------------------------------------------------------------------------
O3   s O3   s Buckingham    Buckingham A     22764.000    eV        0.000 16.000
                            Buckingham rho  0.14900000    Ang       
                            Buckingham C     10.937044    eV*Ang^6  
--------------------------------------------------------------------------------
O1   c O1   s Spring (c-s)  Spring k 2       180.31577    eV*Ang^-2 0.000  0.800
                            Spring k 4       0.0000000    eV*Ang^-4 
--------------------------------------------------------------------------------
O2   c O2   s Spring (c-s)  Spring k 2       75.969800    eV*Ang^-2 0.000  0.800
                            Spring k 4       0.0000000    eV*Ang^-4 
--------------------------------------------------------------------------------
O3   c O3   s Spring (c-s)  Spring k 2       128.14270    eV*Ang^-2 0.000  0.800
                            Spring k 4       0.0000000    eV*Ang^-4 
--------------------------------------------------------------------------------

  General Three-body potentials :

--------------------------------------------------------------------------------
  Atoms       Potential      Parameter       Value         Units   Cutoffs(Ang)
  1 / 2 / 3                                                          Min /  Max 
--------------------------------------------------------------------------------
Si    core    Harmonic      Three-body cnst  1.2614000    eV*rad^-2 0.000  1.900
O1    shel                  Three-body angl  109.47000    degrees   0.000  1.900
O1    shel                  Three-body k4    0.0000000    eV*rad^-4 0.000  3.500
                            Three-body k3    0.0000000    eV*rad^-3 
--------------------------------------------------------------------------------
Si    core    Harmonic      Three-body cnst  1.2614000    eV*rad^-2 0.000  1.900
O1    shel                  Three-body angl  109.47000    degrees   0.000  1.900
õ(1   shel                  Three-body k4    0.0000000    eV*rad^-4 0.000  3.500
                            Three-body k3    0.0000000    eV*rad^-3 
--------------------------------------------------------------------------------
Si    core    Harmonic      Three-body cnst  1.2614000    eV*rad^-2 0.000  1.900
õ(1   shel                  Three-body angl  109.47000    degrees   0.000  1.900
õ(1   shel                  Three-body k4    0.0000000    eV*rad^-4 0.000  3.500
                            Three-body k3    0.0000000    eV*rad^-3 
--------------------------------------------------------------------------------
Si    core    Harmonic      Three-body cnst  1.2614000    eV*rad^-2 0.000  1.900
O1    shel                  Three-body angl  109.47000    degrees   0.000  1.900
O2    shel                  Three-body k4    0.0000000    eV*rad^-4 0.000  3.500
                            Three-body k3    0.0000000    eV*rad^-3 
--------------------------------------------------------------------------------
Si    core    Harmonic      Three-body cnst  1.2614000    eV*rad^-2 0.000  1.900
O1    shel                  Three-body angl  109.47000    degrees   0.000  1.900
õ(2   shel                  Three-body k4    0.0000000    eV*rad^-4 0.000  3.500
                            Three-body k3    0.0000000    eV*rad^-3 
--------------------------------------------------------------------------------
Si    core    Harmonic      Three-body cnst  1.2614000    eV*rad^-2 0.000  1.900
O2    shel                  Three-body angl  109.47000    degrees   0.000  1.900
õ(1   shel                  Three-body k4    0.0000000    eV*rad^-4 0.000  3.500
                            Three-body k3    0.0000000    eV*rad^-3 
--------------------------------------------------------------------------------
Si    core    Harmonic      Three-body cnst  1.2614000    eV*rad^-2 0.000  1.900
õ(1   shel                  Three-body angl  109.47000    degrees   0.000  1.900
õ(2   shel                  Three-body k4    0.0000000    eV*rad^-4 0.000  3.500
                            Three-body k3    0.0000000    eV*rad^-3 
--------------------------------------------------------------------------------
Si    core    Harmonic      Three-body cnst  1.2614000    eV*rad^-2 0.000  1.900
O2    shel                  Three-body angl  109.47000    degrees   0.000  1.900
O2    shel                  Three-body k4    0.0000000    eV*rad^-4 0.000  3.500
                            Three-body k3    0.0000000    eV*rad^-3 
--------------------------------------------------------------------------------
Si    core    Harmonic      Three-body cnst  1.2614000    eV*rad^-2 0.000  1.900
O2    shel                  Three-body angl  109.47000    degrees   0.000  1.900
õ(2   shel                  Three-body k4    0.0000000    eV*rad^-4 0.000  3.500
                            Three-body k3    0.0000000    eV*rad^-3 
--------------------------------------------------------------------------------
Si    core    Harmonic      Three-body cnst  1.2614000    eV*rad^-2 0.000  1.900
õ(2   shel                  Three-body angl  109.47000    degrees   0.000  1.900
õ(2   shel                  Three-body k4    0.0000000    eV*rad^-4 0.000  3.500
                            Three-body k3    0.0000000    eV*rad^-3 
--------------------------------------------------------------------------------

********************************************************************************
*  Output for configuration   1 : c00033.vasp                                  *
********************************************************************************


  Components of energy : 

--------------------------------------------------------------------------------
  Interatomic potentials     =         752.27043345 eV    
  Three-body potentials      =           0.01786609 eV    
  Monopole - monopole (real) =       -2676.00317478 eV    
  Monopole - monopole (recip)=       -1115.35404472 eV    
  Monopole - monopole (total)=       -3791.35721950 eV    
--------------------------------------------------------------------------------
  Total lattice energy       =       -3039.06891996 eV    
--------------------------------------------------------------------------------
  Total lattice energy       =         -293223.6944 kJ/(mole unit cells)
--------------------------------------------------------------------------------


  Number of variables =      363

  Maximum number of calculations  =          1000
  Maximum Hessian update interval =            10
  Maximum step size               =   0.100000000
  Maximum parameter tolerance     =   0.000010000
  Maximum function  tolerance     =   0.000010000
  Maximum gradient  tolerance     =   0.001000000
  Maximum gradient  component     =   0.010000000

  Symmetry not applied to optimisation

  Cell parameters to be optimised using strains

  Newton-Raphson optimiser to be used

  BFGS hessian update to be used

  Lower half triangular hessian to be used

  Minimiser to switch to RFO
  When gradient norm is less than     0.050000

  Dumpfile to be written after every cycle

  Start of bulk optimisation :

  Cycle:      0 Energy:     -3039.068920  Gnorm:      4.321743  CPU:    0.100
  ** Hessian calculated **
  Cycle:      1 Energy:     -3050.842391  Gnorm:      3.544598  CPU:    0.263
  ** Hessian calculated **
  Cycle:      2 Energy:     -3071.197404  Gnorm:      0.731946  CPU:    0.436
  ** Hessian calculated **
  Cycle:      3 Energy:     -3072.776895  Gnorm:      0.381100  CPU:    0.608
  Cycle:      4 Energy:     -3073.237093  Gnorm:      0.218223  CPU:    0.698
  Cycle:      5 Energy:     -3073.535397  Gnorm:      0.161315  CPU:    0.804
  Cycle:      6 Energy:     -3073.806997  Gnorm:      0.137167  CPU:    0.910
  Cycle:      7 Energy:     -3074.055798  Gnorm:      0.144562  CPU:    1.015
  Cycle:      8 Energy:     -3074.194215  Gnorm:      0.107838  CPU:    1.105
  Cycle:      9 Energy:     -3074.271348  Gnorm:      0.079624  CPU:    1.195
  Cycle:     10 Energy:     -3074.320264  Gnorm:      0.059099  CPU:    1.301
  Cycle:     11 Energy:     -3074.352730  Gnorm:      0.052069  CPU:    1.408
  Cycle:     12 Energy:     -3074.378735  Gnorm:      0.050363  CPU:    1.498
  ** Hessian calculated **
  Cycle:     13 Energy:     -3074.399647  Gnorm:      0.049452  CPU:    1.689
  ** Hessian has wrong structure
  ** Imaginary eigenvectors =   2
  Cycle:     14 Energy:     -3074.400089  Gnorm:      0.046780  CPU:    1.955
  ** Hessian has wrong structure
  ** Imaginary eigenvectors =   2
  ** Hessian has wrong structure
  ** Imaginary eigenvectors =   2
  Cycle:     15 Energy:     -3074.406236  Gnorm:      0.046463  CPU:    2.486
  ** Hessian has wrong structure
  ** Imaginary eigenvectors =   2
  ** Hessian has wrong structure
  ** Imaginary eigenvectors =   1
  Cycle:     16 Energy:     -3074.413538  Gnorm:      0.046034  CPU:    2.933
  ** Hessian has wrong structure
  ** Imaginary eigenvectors =   1
  ** Hessian has wrong structure
  ** Imaginary eigenvectors =   1
  Cycle:     17 Energy:     -3074.439906  Gnorm:      0.044816  CPU:    3.413
  ** Hessian has wrong structure
  ** Imaginary eigenvectors =   1
  Cycle:     18 Energy:     -3074.556791  Gnorm:      0.044118  CPU:    3.716
  ** Hessian has required structure
  Cycle:     19 Energy:     -3074.809754  Gnorm:      0.027175  CPU:    3.972
  ** Hessian has required structure
  Cycle:     20 Energy:     -3074.908806  Gnorm:      0.023022  CPU:    4.147
  ** Hessian has required structure
  Cycle:     21 Energy:     -3074.953853  Gnorm:      0.016208  CPU:    4.321
  ** Hessian has required structure
  Cycle:     22 Energy:     -3074.969008  Gnorm:      0.019770  CPU:    4.491
  ** Hessian has required structure
  Cycle:     23 Energy:     -3074.990951  Gnorm:      0.012647  CPU:    4.642
  ** Hessian has required structure
  Cycle:     24 Energy:     -3075.000850  Gnorm:      0.012281  CPU:    4.813
  ** Hessian has required structure
  Cycle:     25 Energy:     -3075.007132  Gnorm:      0.011183  CPU:    4.963
  ** Hessian has required structure
  Cycle:     26 Energy:     -3075.012810  Gnorm:      0.011914  CPU:    5.107
  ** Hessian has required structure
  Cycle:     27 Energy:     -3075.016022  Gnorm:      0.007587  CPU:    5.252
  ** Hessian has required structure
  Cycle:     28 Energy:     -3075.017862  Gnorm:      0.006796  CPU:    5.414
  ** Hessian has required structure
  Cycle:     29 Energy:     -3075.019417  Gnorm:      0.003506  CPU:    5.648
  ** Hessian has required structure
  Cycle:     30 Energy:     -3075.019801  Gnorm:      0.001851  CPU:    5.808
  ** Hessian has required structure
  Cycle:     31 Energy:     -3075.019902  Gnorm:      0.000935  CPU:    5.967
  ** Hessian has required structure
  Cycle:     32 Energy:     -3075.019929  Gnorm:      0.000572  CPU:    6.113
  ** Hessian has required structure
  Cycle:     33 Energy:     -3075.019940  Gnorm:      0.000285  CPU:    6.276
  ** Hessian has required structure
  Cycle:     34 Energy:     -3075.019941  Gnorm:      0.000212  CPU:    6.406
  ** Hessian has required structure
  Cycle:     35 Energy:     -3075.019941  Gnorm:      0.000212  CPU:    6.654
  ** Hessian has required structure
  Cycle:     36 Energy:     -3075.019941  Gnorm:      0.000212  CPU:    6.817
  ** Hessian has required structure
  Cycle:     37 Energy:     -3075.019941  Gnorm:      0.000212  CPU:    7.073
  ** Hessian calculated **
  Cycle:     38 Energy:     -3075.019941  Gnorm:      0.000142  CPU:    7.232
  ** Hessian has required structure
  Cycle:     39 Energy:     -3075.019941  Gnorm:      0.000221  CPU:    7.366
  ** Hessian has required structure
  Cycle:     40 Energy:     -3075.019942  Gnorm:      0.000225  CPU:    7.499
  ** Hessian has required structure
  Cycle:     41 Energy:     -3075.019942  Gnorm:      0.000181  CPU:    7.633
  ** Hessian has required structure
  Cycle:     42 Energy:     -3075.019942  Gnorm:      0.000175  CPU:    7.765
  ** Hessian has required structure
  Cycle:     43 Energy:     -3075.019942  Gnorm:      0.000148  CPU:    7.896
  ** Hessian has required structure
  Cycle:     44 Energy:     -3075.019942  Gnorm:      0.000134  CPU:    8.027
  ** Hessian has required structure
  Cycle:     45 Energy:     -3075.019942  Gnorm:      0.000146  CPU:    8.157
  ** Hessian has required structure
  Cycle:     46 Energy:     -3075.019942  Gnorm:      0.000131  CPU:    8.288
  ** Hessian has required structure
  Cycle:     47 Energy:     -3075.019942  Gnorm:      0.000135  CPU:    8.420
  ** Hessian has required structure
  Cycle:     48 Energy:     -3075.019942  Gnorm:      0.000135  CPU:    8.695
  ** Hessian calculated **


  **** Optimisation achieved ****


  Final energy =   -3075.01994167 eV      
  Final Gnorm  =       0.00013528

  Components of energy : 

--------------------------------------------------------------------------------
  Interatomic potentials     =         814.84774557 eV    
  Three-body potentials      =           0.23282756 eV    
  Monopole - monopole (real) =       -2242.67368260 eV    
  Monopole - monopole (recip)=       -1647.42683220 eV    
  Monopole - monopole (total)=       -3890.10051480 eV    
--------------------------------------------------------------------------------
  Total lattice energy       =       -3075.01994167 eV    
--------------------------------------------------------------------------------
  Total lattice energy       =         -296692.4184 kJ/(mole unit cells)
--------------------------------------------------------------------------------

  Final fractional coordinates of atoms :

--------------------------------------------------------------------------------
   No.  Atomic        x           y          z          Radius
        Label       (Frac)      (Frac)     (Frac)       (Angs) 
--------------------------------------------------------------------------------
     1  Ge    c     0.160190    0.293910    0.273440    0.000000
     2  Ge    c     0.350358    0.326564    0.272269    0.000000
     3  Si    c     0.044628    0.006105    0.352787    0.000000
     4  Si    c     0.454417    0.022984    0.356260    0.000000
     5  Si    c     0.947173    0.986366    0.609867    0.000000
     6  Si    c     0.548311    0.990440    0.617700    0.000000
     7  Si    c     0.555716    0.007326    0.104204    0.000000
     8  Si    c     0.943506    0.007711    0.094652    0.000000
     9  Si    c     0.439272    0.994938    0.865541    0.000000
    10  Si    c     0.056214    0.985734    0.855301    0.000000
    11  Si    c     0.334198    0.735737    0.257820    0.000000
    12  Si    c     0.835343    0.283999    0.703991    0.000000
    13  Si    c     0.661114    0.700648    0.702548    0.000000
    14  Si    c     0.841574    0.686887    0.703534    0.000000
    15  Si    c     0.655380    0.297607    0.701464    0.000000
    16  Si    c     0.153647    0.705578    0.261481    0.000000
    17  Si    c     0.654158    0.313449    0.005447    0.000000
    18  Si    c     0.843857    0.694288    0.007146    0.000000
    19  Si    c     0.345698    0.307642    0.965492    0.000000
    20  Si    c     0.150634    0.676714    0.956060    0.000000
    21  Si    c     0.331188    0.702544    0.951462    0.000000
    22  Si    c     0.160893    0.277824    0.967090    0.000000
    23  Si    c     0.662956    0.711489    0.006032    0.000000
    24  Si    c     0.834401    0.296968    0.008245    0.000000
    25  O3    c     0.101685    0.170863    0.371870    0.000000
    26  O2    c     0.382326    0.890088    0.329144    0.000000
    27  O2    c     0.889731    0.151992    0.623429    0.000000
    28  O2    c     0.607664    0.827166    0.618449    0.000000
    29  O2    c     0.897999    0.806955    0.620185    0.000000
    30  O2    c     0.597623    0.171375    0.618438    0.000000
    31  O2    c     0.097335    0.832839    0.342286    0.000000
    32  O3    c     0.417966    0.214659    0.363390    0.000000
    33  O2    c     0.984277    0.988291    0.468707    0.000000
    34  O2    c     0.496185    0.974406    0.489457    0.000000
    35  O2    c     0.995691    0.030158    0.221329    0.000000
    36  O2    c     0.518977    0.003786    0.245172    0.000000
    37  O2    c     0.017245    0.996121    0.714271    0.000000
    38  O2    c     0.490677    0.984420    0.738384    0.000000
    39  O2    c     0.598303    0.194230    0.089832    0.000000
    40  O2    c     0.898939    0.820738    0.094613    0.000000
    41  O2    c     0.392784    0.178121    0.868800    0.000000
    42  O2    c     0.093176    0.793042    0.870113    0.000000
    43  O2    c     0.377783    0.834153    0.861187    0.000000
    44  O2    c     0.123225    0.134903    0.867206    0.000000
    45  O2    c     0.617648    0.850008    0.095444    0.000000
    46  O2    c     0.881142    0.164940    0.097271    0.000000
    47  O2    c     0.491103    0.975912    0.993840    0.000000
    48  O2    c     0.993053    0.025210    0.964987    0.000000
    49  O3    c     0.141832    0.511784    0.308634    0.000000
    50  O3    c     0.358414    0.548076    0.308642    0.000000
    51  O2    c     0.859965    0.483014    0.673227    0.000000
    52  O2    c     0.636515    0.499328    0.671492    0.000000
    53  O1    c     0.257163    0.257396    0.300847    0.000000
    54  O2    c     0.242863    0.768338    0.286341    0.000000
    55  O2    c     0.744714    0.253791    0.664170    0.000000
    56  O2    c     0.751808    0.727849    0.666910    0.000000
    57  O3    c     0.135292    0.243247    0.112952    0.000000
    58  O2    c     0.348448    0.743039    0.103172    0.000000
    59  O2    c     0.845761    0.247607    0.856438    0.000000
    60  O2    c     0.649105    0.750441    0.854354    0.000000
    61  O2    c     0.857291    0.732505    0.855470    0.000000
    62  O2    c     0.641630    0.263158    0.853528    0.000000
    63  O2    c     0.134324    0.717758    0.107692    0.000000
    64  O3    c     0.375817    0.286570    0.111268    0.000000
    65  O2    c     0.632187    0.515864    0.034083    0.000000
    66  O2    c     0.865578    0.494265    0.037257    0.000000
    67  O2    c     0.358545    0.504983    0.916724    0.000000
    68  O2    c     0.134239    0.471773    0.924487    0.000000
    69  O2    c     0.743731    0.281574    0.045172    0.000000
    70  O2    c     0.754029    0.729285    0.042122    0.000000
    71  O2    c     0.254134    0.261577    0.963227    0.000000
    72  O2    c     0.239529    0.724351    0.921437    0.000000
    73  O3    s     0.100727    0.164375    0.361961    0.000000
    74  O2    s     0.384608    0.886803    0.323860    0.000000
    75  O2    s     0.889779    0.148994    0.631165    0.000000
    76  O2    s     0.607291    0.830538    0.627852    0.000000
    77  O2    s     0.896952    0.812857    0.628512    0.000000
    78  O2    s     0.598794    0.166155    0.627578    0.000000
    79  O2    s     0.097956    0.837299    0.334258    0.000000
    80  O3    s     0.416181    0.204425    0.355384    0.000000
    81  O2    s     0.986949    0.990170    0.471793    0.000000
    82  O2    s     0.497487    0.981934    0.489154    0.000000
    83  O2    s     0.994926    0.024720    0.220844    0.000000
    84  O2    s     0.516039    0.006359    0.241017    0.000000
    85  O2    s     0.013897    0.993841    0.718776    0.000000
    86  O2    s     0.491211    0.986376    0.739670    0.000000
    87  O2    s     0.600049    0.187584    0.081727    0.000000
    88  O2    s     0.897535    0.826452    0.084826    0.000000
    89  O2    s     0.392641    0.172619    0.878961    0.000000
    90  O2    s     0.095569    0.800690    0.878031    0.000000
    91  O2    s     0.379184    0.836728    0.871733    0.000000
    92  O2    s     0.120191    0.134546    0.876845    0.000000
    93  O2    s     0.616089    0.851284    0.086062    0.000000
    94  O2    s     0.882538    0.163021    0.086784    0.000000
    95  O2    s     0.492642    0.981696    0.991922    0.000000
    96  O2    s     0.994631    0.018742    0.967195    0.000000
    97  O3    s     0.144588    0.514371    0.300783    0.000000
    98  O3    s     0.355327    0.549156    0.300599    0.000000
    99  O2    s     0.855354    0.483699    0.679746    0.000000
   100  O2    s     0.641179    0.499144    0.678010    0.000000
   101  O1    s     0.256836    0.265697    0.296479    0.000000
   102  O2    s     0.243143    0.758274    0.280606    0.000000
   103  O2    s     0.744840    0.261715    0.672375    0.000000
   104  O2    s     0.751659    0.720490    0.674664    0.000000
   105  O3    s     0.139834    0.250619    0.110910    0.000000
   106  O2    s     0.345031    0.737874    0.103138    0.000000
   107  O2    s     0.843393    0.256833    0.856282    0.000000
   108  O2    s     0.651867    0.741020    0.854374    0.000000
   109  O2    s     0.854191    0.723646    0.855406    0.000000
   110  O2    s     0.644435    0.272147    0.853549    0.000000
   111  O2    s     0.138103    0.712145    0.107453    0.000000
   112  O3    s     0.370792    0.291734    0.109185    0.000000
   113  O2    s     0.637788    0.514963    0.028036    0.000000
   114  O2    s     0.859943    0.494815    0.030931    0.000000
   115  O2    s     0.354265    0.505094    0.925561    0.000000
   116  O2    s     0.138754    0.473606    0.932249    0.000000
   117  O2    s     0.743829    0.286847    0.036715    0.000000
   118  O2    s     0.753877    0.723373    0.034234    0.000000
   119  O2    s     0.253881    0.268586    0.963922    0.000000
   120  O2    s     0.239858    0.716737    0.928507    0.000000
--------------------------------------------------------------------------------

  Final Cartesian lattice vectors (Angstroms) :

       17.112355   -0.046483   -0.072495
       -0.020173    7.634146   -0.101412
       -0.044096   -0.138459   10.275345


  Final cell parameters and derivatives :

--------------------------------------------------------------------------------
       a           17.112572 Angstrom     dE/de1(xx)     0.014680 eV/strain
       b            7.634846 Angstrom     dE/de2(yy)     0.016307 eV/strain
       c           10.276372 Angstrom     dE/de3(zz)     0.010882 eV/strain
       alpha       91.532405 Degrees      dE/de4(yz)    -0.002214 eV/strain
       beta        90.486466 Degrees      dE/de5(xz)     0.000438 eV/strain
       gamma       90.303779 Degrees      dE/de6(xy)     0.000579 eV/strain
--------------------------------------------------------------------------------

  Primitive cell volume =          1342.077995 Angs**3

  Density of cell =      1.894568 g/cm**3

  Non-primitive cell volume =          1342.077995 Angs**3


  Final internal derivatives :

--------------------------------------------------------------------------------
   No.  Atomic          a             b             c           Radius
        Label          (eV)          (eV)          (eV)        (eV/Angs)
--------------------------------------------------------------------------------
      1 Ge    c       0.000000      0.000000      0.000000      0.000000
      2 Ge    c       0.006375      0.000643      0.002507      0.000000
      3 Si    c      -0.006360     -0.000362      0.000983      0.000000
      4 Si    c       0.002101      0.000874     -0.001720      0.000000
      5 Si    c       0.001806      0.000207      0.001165      0.000000
      6 Si    c      -0.002828     -0.000346      0.000797      0.000000
      7 Si    c      -0.003291     -0.000900      0.000970      0.000000
      8 Si    c       0.003619     -0.000400     -0.002010      0.000000
      9 Si    c       0.003924      0.000889      0.001440      0.000000
     10 Si    c      -0.002119      0.000517      0.000414      0.000000
     11 Si    c       0.002359      0.002396     -0.002284      0.000000
     12 Si    c       0.003407     -0.001250     -0.002457      0.000000
     13 Si    c      -0.001607      0.000917     -0.000274      0.000000
     14 Si    c      -0.000159      0.000288     -0.002157      0.000000
     15 Si    c      -0.002563     -0.001204     -0.003573      0.000000
     16 Si    c      -0.002557      0.001073      0.001340      0.000000
     17 Si    c      -0.002736     -0.001274      0.003872      0.000000
     18 Si    c       0.002005      0.002004      0.003237      0.000000
     19 Si    c       0.005007     -0.001154     -0.003037      0.000000
     20 Si    c      -0.001116     -0.000383     -0.002139      0.000000
     21 Si    c       0.003872      0.000445      0.001304      0.000000
     22 Si    c      -0.004820     -0.002662     -0.000842      0.000000
     23 Si    c      -0.005635      0.003202      0.001261      0.000000
     24 Si    c       0.004071     -0.001982      0.000438      0.000000
     25 O3    c      -0.000566      0.002995      0.000926      0.000000
     26 O2    c      -0.002604     -0.000260      0.000280      0.000000
     27 O2    c      -0.002750      0.000378      0.000211      0.000000
     28 O2    c       0.001220     -0.000534      0.000614      0.000000
     29 O2    c      -0.000420     -0.000674      0.000563      0.000000
     30 O2    c       0.003455      0.002347      0.001987      0.000000
     31 O2    c       0.003813     -0.002358     -0.002545      0.000000
     32 O3    c      -0.003829      0.001998      0.001891      0.000000
     33 O2    c       0.005445     -0.000417     -0.004243      0.000000
     34 O2    c       0.000103     -0.000980      0.001709      0.000000
     35 O2    c       0.001433     -0.000417      0.000032      0.000000
     36 O2    c      -0.000425      0.000905      0.000143      0.000000
     37 O2    c       0.002260     -0.001170      0.000139      0.000000
     38 O2    c      -0.002340      0.000390     -0.000189      0.000000
     39 O2    c       0.003231      0.003647     -0.001119      0.000000
     40 O2    c      -0.003252     -0.002815     -0.001603      0.000000
     41 O2    c      -0.004560      0.002703      0.000755      0.000000
     42 O2    c       0.000917     -0.001534     -0.000461      0.000000
     43 O2    c      -0.002313     -0.002672     -0.001117      0.000000
     44 O2    c       0.004123      0.001743      0.001857      0.000000
     45 O2    c       0.001322     -0.000593     -0.001157      0.000000
     46 O2    c      -0.003235      0.001775     -0.000175      0.000000
     47 O2    c      -0.004423      0.000632     -0.001501      0.000000
     48 O2    c       0.000152     -0.001284      0.000451      0.000000
     49 O3    c       0.001928      0.001212      0.000176      0.000000
     50 O3    c       0.001481     -0.008185      0.001128      0.000000
     51 O2    c      -0.000064      0.001401     -0.003013      0.000000
     52 O2    c       0.000078     -0.000881     -0.001760      0.000000
     53 O1    c       0.003677     -0.003628      0.000471      0.000000
     54 O2    c       0.000106      0.001059     -0.000819      0.000000
     55 O2    c      -0.000505     -0.000792     -0.001220      0.000000
     56 O2    c       0.000925      0.000418     -0.000790      0.000000
     57 O3    c      -0.004495     -0.001664      0.000628      0.000000
     58 O2    c       0.002210     -0.000295     -0.000105      0.000000
     59 O2    c       0.001429     -0.000587      0.002974      0.000000
     60 O2    c      -0.000090      0.000213      0.000297      0.000000
     61 O2    c      -0.000990      0.000701     -0.000592      0.000000
     62 O2    c       0.000823     -0.000373      0.000163      0.000000
     63 O2    c      -0.001537      0.000363      0.001448      0.000000
     64 O3    c       0.011888      0.000966      0.001724      0.000000
     65 O2    c      -0.002709     -0.002714      0.001507      0.000000
     66 O2    c       0.002622      0.002648      0.002149      0.000000
     67 O2    c       0.001535     -0.002687      0.000998      0.000000
     68 O2    c      -0.001361      0.003302     -0.001532      0.000000
     69 O2    c      -0.002707     -0.000299      0.001197      0.000000
     70 O2    c       0.004179     -0.000024      0.001254      0.000000
     71 O2    c       0.001199      0.000746      0.003568      0.000000
     72 O2    c      -0.000150      0.000131     -0.000180      0.000000
     73 O3    s       0.002903     -0.002098      0.000952      0.000000
     74 O2    s       0.003092     -0.000263      0.002512      0.000000
     75 O2    s       0.002909      0.000352     -0.001474      0.000000
     76 O2    s      -0.001339      0.001231     -0.001094      0.000000
     77 O2    s       0.000272      0.000106     -0.000991      0.000000
     78 O2    s      -0.001504     -0.001376     -0.002877      0.000000
     79 O2    s      -0.001098      0.001738      0.003363      0.000000
     80 O3    s       0.005145      0.000039     -0.001312      0.000000
     81 O2    s      -0.005562      0.000377      0.002405      0.000000
     82 O2    s       0.001966     -0.000877     -0.002365      0.000000
     83 O2    s      -0.003379      0.001295      0.001562      0.000000
     84 O2    s       0.002187     -0.001275      0.002041      0.000000
     85 O2    s      -0.000477      0.001016     -0.000529      0.000000
     86 O2    s       0.000691     -0.000138     -0.001938      0.000000
     87 O2    s      -0.000607     -0.002168      0.001936      0.000000
     88 O2    s       0.001854      0.001160      0.002191      0.000000
     89 O2    s       0.001371     -0.000940     -0.003962      0.000000
     90 O2    s      -0.001305      0.000378     -0.002205      0.000000
     91 O2    s       0.001164      0.001164     -0.002282      0.000000
     92 O2    s      -0.002821      0.000332     -0.004556      0.000000
     93 O2    s      -0.000601     -0.000028      0.002733      0.000000
     94 O2    s       0.002660     -0.000784      0.001923      0.000000
     95 O2    s       0.004197     -0.000946      0.000131      0.000000
     96 O2    s      -0.000833      0.001401     -0.000936      0.000000
     97 O3    s      -0.003185     -0.001429      0.001745      0.000000
     98 O3    s      -0.002032      0.005345      0.001255      0.000000
     99 O2    s       0.002546     -0.000478      0.001433      0.000000
    100 O2    s      -0.001070      0.000452      0.000587      0.000000
    101 O1    s      -0.003358      0.001169     -0.001790      0.000000
    102 O2    s       0.000296      0.000523      0.000803      0.000000
    103 O2    s       0.000199     -0.000979      0.000703      0.000000
    104 O2    s      -0.000634      0.000542     -0.000980      0.000000
    105 O3    s       0.002777      0.001837      0.000526      0.000000
    106 O2    s      -0.002746      0.000739      0.001165      0.000000
    107 O2    s       0.000297      0.001283     -0.001906      0.000000
    108 O2    s       0.000103     -0.000791     -0.000220      0.000000
    109 O2    s       0.002234     -0.001110      0.000193      0.000000
    110 O2    s      -0.000011      0.000644      0.000425      0.000000
    111 O2    s      -0.000818     -0.001048     -0.001502      0.000000
    112 O3    s      -0.012995     -0.001149     -0.000721      0.000000
    113 O2    s       0.002180      0.001077     -0.001107      0.000000
    114 O2    s       0.000644     -0.001215     -0.001159      0.000000
    115 O2    s      -0.001684      0.001259     -0.003372      0.000000
    116 O2    s      -0.001277     -0.001687     -0.000055      0.000000
    117 O2    s       0.000906      0.000007     -0.000865      0.000000
    118 O2    s      -0.001241      0.000422      0.000811      0.000000
    119 O2    s       0.001234      0.001247     -0.000262      0.000000
    120 O2    s      -0.001324     -0.000039     -0.000298      0.000000
--------------------------------------------------------------------------------
  Maximum abs         0.012995      0.008185      0.004556      0.000000
--------------------------------------------------------------------------------


  Born effective charge tensors : 

-------------------------------------------------------------------------------
  Atom             x           y             z
-------------------------------------------------------------------------------
    1 Ge    x       4.0710      0.2599     -0.2167
            y       0.2784      4.2056     -0.2210
            z      -0.0368     -0.1169      3.4738
-------------------------------------------------------------------------------
    2 Ge    x       4.0268     -0.1705      0.1484
            y      -0.3895      4.2337     -0.2144
            z       0.0507     -0.1510      3.4746
-------------------------------------------------------------------------------
    3 Si    x       3.6176      0.1206     -0.0686
            y       0.2093      3.4208      0.0562
            z      -0.6168     -0.1347      3.8494
-------------------------------------------------------------------------------
    4 Si    x       3.5657     -0.3449      0.2471
            y       0.0121      3.4658      0.0504
            z       0.3726     -0.2241      3.8914
-------------------------------------------------------------------------------
    5 Si    x       3.4524      0.0347     -0.2714
            y      -0.0606      3.2727     -0.0343
            z      -0.3195     -0.0382      3.8103
-------------------------------------------------------------------------------
    6 Si    x       3.4640      0.0578      0.1008
            y      -0.0769      3.2589     -0.0387
            z       0.4875      0.0218      3.7611
-------------------------------------------------------------------------------
    7 Si    x       3.4977      0.0909     -0.2303
            y      -0.1046      3.2844     -0.0229
            z      -0.4216     -0.0138      3.1473
-------------------------------------------------------------------------------
    8 Si    x       3.4847      0.1068      0.0937
            y      -0.1036      3.2737     -0.0005
            z       0.5438      0.0465      3.0757
-------------------------------------------------------------------------------
    9 Si    x       3.5355     -0.0582     -0.1538
            y       0.0918      3.2465      0.0061
            z      -0.5418     -0.0131      3.0755
-------------------------------------------------------------------------------
   10 Si    x       3.5017     -0.1805      0.2843
            y       0.1259      3.2533     -0.0079
            z       0.4180     -0.0449      3.1294
-------------------------------------------------------------------------------
   11 Si    x       3.3034      0.2079      0.1581
            y       0.0776      3.7493     -0.0584
            z       0.1079      0.0431      2.9373
-------------------------------------------------------------------------------
   12 Si    x       3.2078     -0.2825     -0.0997
            y      -0.2312      3.4678      0.1425
            z      -0.1260      0.0793      2.8081
-------------------------------------------------------------------------------
   13 Si    x       3.1991     -0.2821      0.1184
            y      -0.2235      3.4644     -0.1657
            z       0.1080     -0.0760      2.8018
-------------------------------------------------------------------------------
   14 Si    x       3.1999      0.2377     -0.0858
            y       0.2656      3.4462     -0.1761
            z      -0.1015     -0.0920      2.8161
-------------------------------------------------------------------------------
   15 Si    x       3.1986      0.2445      0.0851
            y       0.2675      3.4451      0.1569
            z       0.1065      0.0747      2.8050
-------------------------------------------------------------------------------
   16 Si    x       3.2981     -0.1284     -0.1678
            y      -0.1972      3.7278     -0.0262
            z      -0.1128      0.0087      2.9508
-------------------------------------------------------------------------------
   17 Si    x       3.2469      0.2586     -0.1514
            y       0.2359      3.4047     -0.1832
            z      -0.1645     -0.0768      2.7326
-------------------------------------------------------------------------------
   18 Si    x       3.2557      0.2700      0.1414
            y       0.2375      3.4014      0.1575
            z       0.1325      0.0569      2.7113
-------------------------------------------------------------------------------
   19 Si    x       3.3908     -0.2829     -0.1481
            y      -0.2786      3.4954      0.0684
            z       0.0331      0.0731      2.9796
-------------------------------------------------------------------------------
   20 Si    x       3.3206     -0.2101      0.1494
            y      -0.2746      3.4162     -0.1623
            z       0.1255     -0.0942      2.7231
-------------------------------------------------------------------------------
   21 Si    x       3.3097      0.2769     -0.1941
            y       0.1635      3.4055     -0.1457
            z      -0.0987     -0.1021      2.7207
-------------------------------------------------------------------------------
   22 Si    x       3.3502      0.3478      0.1766
            y       0.1628      3.5505      0.0585
            z      -0.0440      0.0395      2.9982
-------------------------------------------------------------------------------
   23 Si    x       3.2184     -0.3102     -0.1671
            y      -0.1396      3.4372      0.1699
            z      -0.1170      0.0785      2.7333
-------------------------------------------------------------------------------
   24 Si    x       3.2223     -0.3104      0.1600
            y      -0.1419      3.4310     -0.1836
            z       0.1196     -0.0829      2.7211
-------------------------------------------------------------------------------
   25 O3    x      -2.0620     -0.9282      0.3226
            y      -0.9903     -2.3601      0.3142
            z       0.3813      0.3094     -1.5809
-------------------------------------------------------------------------------
   26 O2    x      -1.8532     -0.6834     -0.3710
            y      -0.7314     -1.8645     -0.3428
            z      -0.3786     -0.3179     -1.3581
-------------------------------------------------------------------------------
   27 O2    x      -1.7306      0.7450      0.3460
            y       0.7605     -1.9973     -0.3492
            z       0.3681     -0.3450     -1.3413
-------------------------------------------------------------------------------
   28 O2    x      -1.7292      0.7299     -0.3075
            y       0.7538     -1.9717      0.3381
            z      -0.3655      0.3270     -1.3457
-------------------------------------------------------------------------------
   29 O2    x      -1.6698     -0.7150      0.3515
            y      -0.6995     -1.9996      0.3715
            z       0.3630      0.3640     -1.3670
-------------------------------------------------------------------------------
   30 O2    x      -1.6772     -0.7257     -0.2922
            y      -0.7046     -2.0042     -0.3008
            z      -0.3505     -0.3031     -1.3365
-------------------------------------------------------------------------------
   31 O2    x      -1.7496      0.6938      0.3306
            y       0.7007     -1.8918     -0.3291
            z       0.3792     -0.3012     -1.3743
-------------------------------------------------------------------------------
   32 O3    x      -1.9081      0.8790     -0.3834
            y       0.8605     -2.5350      0.3309
            z      -0.4032      0.3556     -1.5570
-------------------------------------------------------------------------------
   33 O2    x      -1.6312     -0.0353      0.8068
            y      -0.0197     -1.0859      0.0339
            z       1.0129      0.0846     -2.7390
-------------------------------------------------------------------------------
   34 O2    x      -1.5828      0.0677     -0.7805
            y       0.0256     -1.1039      0.0732
            z      -0.9776      0.1449     -2.7467
-------------------------------------------------------------------------------
   35 O2    x      -1.6735     -0.0009     -0.7106
            y       0.0177     -1.1392      0.0334
            z      -0.6854      0.0414     -2.2744
-------------------------------------------------------------------------------
   36 O2    x      -1.6823      0.0111      0.6996
            y       0.0001     -1.1088     -0.0042
            z       0.6955      0.0140     -2.2857
-------------------------------------------------------------------------------
   37 O2    x      -1.7578      0.0319     -0.7179
            y      -0.0036     -1.1063      0.0285
            z      -0.7115      0.0440     -2.2027
-------------------------------------------------------------------------------
   38 O2    x      -1.7802      0.0062      0.7705
            y      -0.0034     -1.1136      0.0053
            z       0.7683     -0.0069     -2.2066
-------------------------------------------------------------------------------
   39 O2    x      -1.6729     -0.7053      0.3708
            y      -0.6301     -2.0116      0.3898
            z       0.3780      0.3726     -1.2594
-------------------------------------------------------------------------------
   40 O2    x      -1.6693     -0.7122     -0.2972
            y      -0.6355     -2.0110     -0.3173
            z      -0.3380     -0.3066     -1.2215
-------------------------------------------------------------------------------
   41 O2    x      -1.6604      0.7025      0.3154
            y       0.6189     -2.0247     -0.3418
            z       0.3143     -0.3304     -1.2351
-------------------------------------------------------------------------------
   42 O2    x      -1.6819      0.7131     -0.3833
            y       0.6062     -2.0308      0.3874
            z      -0.3638      0.3737     -1.2559
-------------------------------------------------------------------------------
   43 O2    x      -1.7608     -0.7331      0.3170
            y      -0.6923     -1.9372      0.3328
            z       0.3353      0.3290     -1.2501
-------------------------------------------------------------------------------
   44 O2    x      -1.7308     -0.6936     -0.3562
            y      -0.6540     -1.9433     -0.3790
            z      -0.2970     -0.3445     -1.2640
-------------------------------------------------------------------------------
   45 O2    x      -1.7305      0.7312      0.3494
            y       0.6871     -1.9573     -0.3621
            z       0.3399     -0.3431     -1.2529
-------------------------------------------------------------------------------
   46 O2    x      -1.7350      0.7221     -0.2988
            y       0.6931     -1.9410      0.3355
            z      -0.3430      0.3216     -1.2428
-------------------------------------------------------------------------------
   47 O2    x      -1.8497     -0.0246     -0.6350
            y      -0.0128     -1.1679     -0.0066
            z      -0.3629     -0.0059     -1.7109
-------------------------------------------------------------------------------
   48 O2    x      -1.8238      0.0473      0.6310
            y       0.0208     -1.1777     -0.0269
            z       0.3538     -0.0322     -1.7184
-------------------------------------------------------------------------------
   49 O3    x      -1.2705     -0.0353      0.1028
            y       0.0233     -3.2165      0.1908
            z       0.0770      0.1734     -1.2673
-------------------------------------------------------------------------------
   50 O3    x      -1.3057      0.1919     -0.1224
            y       0.2304     -3.1642      0.1948
            z      -0.1096      0.1768     -1.2842
-------------------------------------------------------------------------------
   51 O2    x      -1.1569     -0.0239      0.0597
            y      -0.0466     -2.5700      0.0222
            z       0.0747      0.0120     -1.0713
-------------------------------------------------------------------------------
   52 O2    x      -1.1562     -0.0246     -0.0633
            y      -0.0454     -2.5657      0.0112
            z      -0.0756      0.0195     -1.0702
-------------------------------------------------------------------------------
   53 O1    x      -3.2341     -0.1286      0.0141
            y      -0.0616     -1.5220      0.0938
            z       0.0005      0.0834     -1.2648
-------------------------------------------------------------------------------
   54 O2    x      -2.4593     -0.0959      0.0260
            y      -0.0500     -1.2461     -0.0423
            z       0.0201     -0.0504     -1.0827
-------------------------------------------------------------------------------
   55 O2    x      -2.3955      0.0478     -0.0062
            y       0.0219     -1.2457     -0.0645
            z      -0.0087     -0.0481     -1.0711
-------------------------------------------------------------------------------
   56 O2    x      -2.4005      0.0486     -0.0020
            y       0.0212     -1.2453      0.0693
            z       0.0061      0.0494     -1.0654
-------------------------------------------------------------------------------
   57 O3    x      -1.3904     -0.1740      0.1401
            y      -0.1556     -1.4354      0.0747
            z       0.0636      0.0168     -2.5715
-------------------------------------------------------------------------------
   58 O2    x      -1.2186     -0.1129      0.0087
            y      -0.0873     -1.2571     -0.0900
            z       0.0199     -0.0846     -2.1037
-------------------------------------------------------------------------------
   59 O2    x      -1.1752      0.1257     -0.0203
            y       0.0947     -1.2794     -0.0197
            z      -0.0108     -0.0096     -2.0633
-------------------------------------------------------------------------------
   60 O2    x      -1.1796      0.1303      0.0184
            y       0.1008     -1.2815      0.0055
            z       0.0097     -0.0147     -2.0596
-------------------------------------------------------------------------------
   61 O2    x      -1.1986     -0.1296     -0.0252
            y      -0.1206     -1.2703     -0.0034
            z      -0.0357     -0.0056     -2.0613
-------------------------------------------------------------------------------
   62 O2    x      -1.1873     -0.1229      0.0316
            y      -0.1150     -1.2727     -0.0145
            z       0.0373     -0.0257     -2.0687
-------------------------------------------------------------------------------
   63 O2    x      -1.2330      0.0971     -0.0288
            y       0.1111     -1.2514     -0.0769
            z      -0.0406     -0.0806     -2.1045
-------------------------------------------------------------------------------
   64 O3    x      -1.4209      0.1530     -0.1567
            y       0.1706     -1.4079      0.0265
            z      -0.0781     -0.0140     -2.5724
-------------------------------------------------------------------------------
   65 O2    x      -1.2206     -0.0292      0.0880
            y      -0.0687     -2.5098      0.0159
            z       0.1000      0.0218     -1.0241
-------------------------------------------------------------------------------
   66 O2    x      -1.2207     -0.0341     -0.0860
            y      -0.0781     -2.4979      0.0262
            z      -0.0957      0.0190     -1.0215
-------------------------------------------------------------------------------
   67 O2    x      -1.2311      0.0777      0.1002
            y       0.1167     -2.4997      0.0547
            z       0.0765      0.0151     -1.0431
-------------------------------------------------------------------------------
   68 O2    x      -1.2328      0.0186     -0.0967
            y       0.0933     -2.5425      0.0416
            z      -0.0779      0.0130     -1.0316
-------------------------------------------------------------------------------
   69 O2    x      -2.4118      0.0522     -0.0036
            y       0.0310     -1.2331      0.0681
            z       0.0031      0.0413     -1.0439
-------------------------------------------------------------------------------
   70 O2    x      -2.4265      0.0557      0.0001
            y       0.0346     -1.2360     -0.0592
            z       0.0035     -0.0358     -1.0337
-------------------------------------------------------------------------------
   71 O2    x      -2.5290     -0.0889      0.0089
            y      -0.0536     -1.2879     -0.0253
            z       0.0168     -0.0281     -0.9903
-------------------------------------------------------------------------------
   72 O2    x      -2.4814     -0.0755      0.0265
            y      -0.0411     -1.2351      0.0603
            z       0.0066      0.0494     -1.0300
-------------------------------------------------------------------------------




  Elastic Constant Matrix: (Units=GPa)

-------------------------------------------------------------------------------
  Indices      1         2         3         4         5         6    
-------------------------------------------------------------------------------
       1     57.3514   34.8075   24.0286   -3.8410   -8.3601   -3.8485
       2     34.8075   80.2605   21.0043   -1.4455   -9.1738   -2.3895
       3     24.0286   21.0043   34.8214   -3.2251   -4.3390   -4.9606
       4     -3.8410   -1.4455   -3.2251   11.5473   -0.3377    0.2587
       5     -8.3601   -9.1738   -4.3390   -0.3377   25.0109   -4.9377
       6     -3.8485   -2.3895   -4.9606    0.2587   -4.9377   23.1237
-------------------------------------------------------------------------------


  Elastic Compliance Matrix: (Units=1/GPa)

-------------------------------------------------------------------------------
  Indices      1         2         3         4         5         6    
-------------------------------------------------------------------------------
       1    0.029610 -0.008485 -0.013961  0.004984  0.004831  0.002032
       2   -0.008485  0.017631 -0.004590 -0.001816  0.002819  0.000047
       3   -0.013961 -0.004590  0.043049  0.006725  0.002573  0.006911
       4    0.004984 -0.001816  0.006725  0.089977  0.003752  0.001879
       5    0.004831  0.002819  0.002573  0.003752  0.045358  0.011291
       6    0.002032  0.000047  0.006911  0.001879  0.011291  0.047461
-------------------------------------------------------------------------------

  Mechanical properties :

-------------------------------------------------------------------------------
  Convention :                    Reuss         Voigt         Hill
-------------------------------------------------------------------------------
  Bulk  Modulus (GPa)     =      27.61113      36.90158      32.25635
  Shear Modulus (GPa)     =      14.73921      18.10925      16.42423
-------------------------------------------------------------------------------
  Velocity S-wave (km/s)  =       2.78921       3.09168       2.94434
  Velocity P-wave (km/s)  =       4.99468       5.67646       5.34645
-------------------------------------------------------------------------------
  Compressibility (1/GPa) =    0.03621728
-------------------------------------------------------------------------------
  Stress axis :                     x             y             z
-------------------------------------------------------------------------------
  Youngs Moduli (GPa)     =      33.77259      56.71669      23.22945
-------------------------------------------------------------------------------
  Poissons Ratio (x)      =                     0.48125       0.32431
  Poissons Ratio (y)      =       0.28656                     0.10663
  Poissons Ratio (z)      =       0.47150       0.26035
-------------------------------------------------------------------------------


  Piezoelectric Strain Matrix: (Units=C/m**2)

-------------------------------------------------------------------------------
  Indices      1         2         3         4         5         6    
-------------------------------------------------------------------------------
       x    -0.42068  -0.30826  -0.52660   0.06139   0.05107  -0.46919
       y    -0.07963   0.07241  -0.16615   0.21305   0.16113   0.02747
       z     0.25565  -0.46594   0.24389  -0.11858  -0.42795   0.12559
-------------------------------------------------------------------------------


  Piezoelectric Stress Matrix: (Units=10**-11 C/N)

-------------------------------------------------------------------------------
  Indices      1         2         3         4         5         6    
-------------------------------------------------------------------------------
       x    -0.28895   0.05619  -1.80797  -0.02445  -0.70075  -2.60854
       y     0.12434   0.27837  -0.43358   1.81797   0.78099   0.22168
       z     0.57150  -1.24893   0.80383  -0.82788  -1.78887   0.30891
-------------------------------------------------------------------------------


  Static dielectric constant tensor : 

-------------------------------------------------------------------------------
              x         y         z
-------------------------------------------------------------------------------
       x     3.75167  -0.00077  -0.03156
       y    -0.00077   3.94031  -0.06019
       z    -0.03156  -0.06019   3.15206
--------------------------------------------------------------------------------

  High frequency dielectric constant tensor : 

-------------------------------------------------------------------------------
              x         y         z
-------------------------------------------------------------------------------
       x     1.68405  -0.00058  -0.00087
       y    -0.00058   1.69146  -0.00284
       z    -0.00087  -0.00284   1.62450
-------------------------------------------------------------------------------

  Static refractive indices : 

-------------------------------------------------------------------------------
    1 =    1.77365      2 =    1.93734      3 =    1.98617
-------------------------------------------------------------------------------

  High frequency refractive indices : 

-------------------------------------------------------------------------------
    1 =    1.27451      2 =    1.29770      3 =    1.30062
-------------------------------------------------------------------------------


  Time to end of optimisation =       9.0956 seconds


  Peak dynamic memory used =       5.01 MB 


  Timing analysis for GULP :

--------------------------------------------------------------------------------
  Task / Subroutine                                          Time (Seconds)
--------------------------------------------------------------------------------
  Calculation of reciprocal space energy and derivatives          0.5680
  Calculation of real space energy and derivatives                5.6820
  Calculation of three-body energy and derivatives                0.6445
  Calculation and manipulation of Hessian matrix                  2.7603
  Calculation of matrix inversion                                 0.0398
  Global summation overhead                                       0.0001
--------------------------------------------------------------------------------
  Total CPU time                                                  9.0956
--------------------------------------------------------------------------------


  Dump file written as c00033.vasp.grs
  CIF file written as c00033.vasp.cif


  Job Finished at 10:52.03  7th October    2025                               

