********************************************************************************
*                       GENERAL UTILITY LATTICE PROGRAM                        *
*                                 Julian Gale                                  *
*                       Curtin Institute for Computation                       *
*                    School of Molecular and Life Sciences                     *
*                    Curtin University, Western Australia                      *
********************************************************************************
* Version = 6.1.2 * Last modified =   3rd November 2022                        *
********************************************************************************
*  optimise     - perform optimisation run                                     *
*  conp         - constant pressure calculation                                *
*  property     - calculate properties for final geometry                      *
********************************************************************************

  Job Started  at 10:50.29  7th October    2025                               

  Number of CPUs =     1


  Total number of configurations input =      1

********************************************************************************
*  Input for Configuration =   1 : c00024.vasp                                 *
********************************************************************************

  Formula = Ge2Si22O48                                                  

  Number of irreducible atoms/shells =     120


  Total number atoms/shells =     120

  Dimensionality = 3               :  Bulk   



  Cartesian lattice vectors (Angstroms) :

       17.182800    0.000000    0.000000
        0.000000    7.513760    0.000000
        0.000000    0.000000   10.447700

  Cell parameters (Angstroms/Degrees):

  a =      17.1828    alpha =  90.0000
  b =       7.5138    beta  =  90.0000
  c =      10.4477    gamma =  90.0000

  Initial cell volume =        1348.875752 Angs**3

  Temperature of configuration =   0.00     K 

  Pressure of configuration =         0.000 GPa 

  Fractional coordinates of asymmetric unit :

--------------------------------------------------------------------------------
   No.  Atomic       x           y          z         Charge      Occupancy
        Label      (Frac)      (Frac)     (Frac)        (e)         (Frac)  
--------------------------------------------------------------------------------
      1 Ge    c    0.556730    0.000000    0.122130     4.00000    1.000000    
      2 Ge    c    0.839340 *  0.705910 *  0.017440 *   4.00000    1.000000    
      3 Si    c    0.052090 *  0.000000 *  0.372270 *   4.00000    1.000000    
      4 Si    c    0.447910 *  0.000000 *  0.372270 *   4.00000    1.000000    
      5 Si    c    0.947910 *  0.000000 *  0.627730 *   4.00000    1.000000    
      6 Si    c    0.552090 *  0.000000 *  0.627730 *   4.00000    1.000000    
      7 Si    c    0.943270 *  0.000000 *  0.122130 *   4.00000    1.000000    
      8 Si    c    0.443270 *  0.000000 *  0.877870 *   4.00000    1.000000    
      9 Si    c    0.056730 *  0.000000 *  0.877870 *   4.00000    1.000000    
     10 Si    c    0.160190 *  0.293910 *  0.273440 *   4.00000    1.000000    
     11 Si    c    0.339810 *  0.706090 *  0.273440 *   4.00000    1.000000    
     12 Si    c    0.839810 *  0.293910 *  0.726560 *   4.00000    1.000000    
     13 Si    c    0.660190 *  0.706090 *  0.726560 *   4.00000    1.000000    
     14 Si    c    0.839810 *  0.706090 *  0.726560 *   4.00000    1.000000    
     15 Si    c    0.660190 *  0.293910 *  0.726560 *   4.00000    1.000000    
     16 Si    c    0.160190 *  0.706090 *  0.273440 *   4.00000    1.000000    
     17 Si    c    0.339810 *  0.293910 *  0.273440 *   4.00000    1.000000    
     18 Si    c    0.660660 *  0.294090 *  0.017440 *   4.00000    1.000000    
     19 Si    c    0.339340 *  0.294090 *  0.982560 *   4.00000    1.000000    
     20 Si    c    0.160660 *  0.705910 *  0.982560 *   4.00000    1.000000    
     21 Si    c    0.339340 *  0.705910 *  0.982560 *   4.00000    1.000000    
     22 Si    c    0.160660 *  0.294090 *  0.982560 *   4.00000    1.000000    
     23 Si    c    0.660660 *  0.705910 *  0.017440 *   4.00000    1.000000    
     24 Si    c    0.839340 *  0.294090 *  0.017440 *   4.00000    1.000000    
     25 O2    c    0.106570 *  0.174340 *  0.366200 *   0.87073    1.000000    
     26 O2    c    0.393430 *  0.825660 *  0.366200 *   0.87073    1.000000    
     27 O2    c    0.893430 *  0.174340 *  0.633800 *   0.87073    1.000000    
     28 O2    c    0.606570 *  0.825660 *  0.633800 *   0.87073    1.000000    
     29 O2    c    0.893430 *  0.825660 *  0.633800 *   0.87073    1.000000    
     30 O2    c    0.606570 *  0.174340 *  0.633800 *   0.87073    1.000000    
     31 O2    c    0.106570 *  0.825660 *  0.366200 *   0.87073    1.000000    
     32 O2    c    0.393430 *  0.174340 *  0.366200 *   0.87073    1.000000    
     33 O2    c    0.000000 *  0.000000 *  0.500000 *   0.87073    1.000000    
     34 O2    c    0.500000 *  0.000000 *  0.500000 *   0.87073    1.000000    
     35 O2    c    0.994520 *  0.000000 *  0.250840 *   0.87073    1.000000    
     36 O3    c    0.505480 *  0.000000 *  0.250840 *   1.33043    1.000000    
     37 O2    c    0.005480 *  0.000000 *  0.749160 *   0.87073    1.000000    
     38 O2    c    0.494520 *  0.000000 *  0.749160 *   0.87073    1.000000    
     39 O3    c    0.610230 *  0.175520 *  0.115390 *   1.33043    1.000000    
     40 O3    c    0.889770 *  0.824480 *  0.115390 *   1.33043    1.000000    
     41 O2    c    0.389770 *  0.175520 *  0.884610 *   0.87073    1.000000    
     42 O2    c    0.110230 *  0.824480 *  0.884610 *   0.87073    1.000000    
     43 O2    c    0.389770 *  0.824480 *  0.884610 *   0.87073    1.000000    
     44 O2    c    0.110230 *  0.175520 *  0.884610 *   0.87073    1.000000    
     45 O3    c    0.610230 *  0.824480 *  0.115390 *   1.33043    1.000000    
     46 O2    c    0.889770 *  0.175520 *  0.115390 *   0.87073    1.000000    
     47 O3    c    0.500000 *  0.000000 *  0.000000 *   1.33043    1.000000    
     48 O2    c    0.000000 *  0.000000 *  0.000000 *   0.87073    1.000000    
     49 O2    c    0.151750 *  0.500000 *  0.313330 *   0.87073    1.000000    
     50 O2    c    0.348250 *  0.500000 *  0.313330 *   0.87073    1.000000    
     51 O2    c    0.848250 *  0.500000 *  0.686670 *   0.87073    1.000000    
     52 O2    c    0.651750 *  0.500000 *  0.686670 *   0.87073    1.000000    
     53 O2    c    0.250000 *  0.234950 *  0.285720 *   0.87073    1.000000    
     54 O2    c    0.250000 *  0.765050 *  0.285720 *   0.87073    1.000000    
     55 O2    c    0.750000 *  0.234950 *  0.714280 *   0.87073    1.000000    
     56 O2    c    0.750000 *  0.765050 *  0.714280 *   0.87073    1.000000    
     57 O2    c    0.131410 *  0.268650 *  0.127790 *   0.87073    1.000000    
     58 O2    c    0.368590 *  0.731350 *  0.127790 *   0.87073    1.000000    
     59 O2    c    0.868590 *  0.268650 *  0.872210 *   0.87073    1.000000    
     60 O2    c    0.631410 *  0.731350 *  0.872210 *   0.87073    1.000000    
     61 O3    c    0.868590 *  0.731350 *  0.872210 *   1.33043    1.000000    
     62 O2    c    0.631410 *  0.268650 *  0.872210 *   0.87073    1.000000    
     63 O2    c    0.131410 *  0.731350 *  0.127790 *   0.87073    1.000000    
     64 O2    c    0.368590 *  0.268650 *  0.127790 *   0.87073    1.000000    
     65 O2    c    0.653920 *  0.500000 *  0.058200 *   0.87073    1.000000    
     66 O3    c    0.846080 *  0.500000 *  0.058200 *   1.33043    1.000000    
     67 O2    c    0.346080 *  0.500000 *  0.941800 *   0.87073    1.000000    
     68 O2    c    0.153920 *  0.500000 *  0.941800 *   0.87073    1.000000    
     69 O2    c    0.750000 *  0.231060 *  0.027050 *   0.87073    1.000000    
     70 O3    c    0.750000 *  0.768940 *  0.027050 *   1.33043    1.000000    
     71 O2    c    0.250000 *  0.231060 *  0.972950 *   0.87073    1.000000    
     72 O2    c    0.250000 *  0.768940 *  0.972950 *   0.87073    1.000000    
     73 O2    s    0.106570 *  0.174340 *  0.366200 *  -2.87073    1.000000    
     74 O2    s    0.393430 *  0.825660 *  0.366200 *  -2.87073    1.000000    
     75 O2    s    0.893430 *  0.174340 *  0.633800 *  -2.87073    1.000000    
     76 O2    s    0.606570 *  0.825660 *  0.633800 *  -2.87073    1.000000    
     77 O2    s    0.893430 *  0.825660 *  0.633800 *  -2.87073    1.000000    
     78 O2    s    0.606570 *  0.174340 *  0.633800 *  -2.87073    1.000000    
     79 O2    s    0.106570 *  0.825660 *  0.366200 *  -2.87073    1.000000    
     80 O2    s    0.393430 *  0.174340 *  0.366200 *  -2.87073    1.000000    
     81 O2    s    0.000000 *  0.000000 *  0.500000 *  -2.87073    1.000000    
     82 O2    s    0.500000 *  0.000000 *  0.500000 *  -2.87073    1.000000    
     83 O2    s    0.994520 *  0.000000 *  0.250840 *  -2.87073    1.000000    
     84 O3    s    0.505480 *  0.000000 *  0.250840 *  -3.33043    1.000000    
     85 O2    s    0.005480 *  0.000000 *  0.749160 *  -2.87073    1.000000    
     86 O2    s    0.494520 *  0.000000 *  0.749160 *  -2.87073    1.000000    
     87 O3    s    0.610230 *  0.175520 *  0.115390 *  -3.33043    1.000000    
     88 O3    s    0.889770 *  0.824480 *  0.115390 *  -3.33043    1.000000    
     89 O2    s    0.389770 *  0.175520 *  0.884610 *  -2.87073    1.000000    
     90 O2    s    0.110230 *  0.824480 *  0.884610 *  -2.87073    1.000000    
     91 O2    s    0.389770 *  0.824480 *  0.884610 *  -2.87073    1.000000    
     92 O2    s    0.110230 *  0.175520 *  0.884610 *  -2.87073    1.000000    
     93 O3    s    0.610230 *  0.824480 *  0.115390 *  -3.33043    1.000000    
     94 O2    s    0.889770 *  0.175520 *  0.115390 *  -2.87073    1.000000    
     95 O3    s    0.500000 *  0.000000 *  0.000000 *  -3.33043    1.000000    
     96 O2    s    0.000000 *  0.000000 *  0.000000 *  -2.87073    1.000000    
     97 O2    s    0.151750 *  0.500000 *  0.313330 *  -2.87073    1.000000    
     98 O2    s    0.348250 *  0.500000 *  0.313330 *  -2.87073    1.000000    
     99 O2    s    0.848250 *  0.500000 *  0.686670 *  -2.87073    1.000000    
    100 O2    s    0.651750 *  0.500000 *  0.686670 *  -2.87073    1.000000    
    101 O2    s    0.250000 *  0.234950 *  0.285720 *  -2.87073    1.000000    
    102 O2    s    0.250000 *  0.765050 *  0.285720 *  -2.87073    1.000000    
    103 O2    s    0.750000 *  0.234950 *  0.714280 *  -2.87073    1.000000    
    104 O2    s    0.750000 *  0.765050 *  0.714280 *  -2.87073    1.000000    
    105 O2    s    0.131410 *  0.268650 *  0.127790 *  -2.87073    1.000000    
    106 O2    s    0.368590 *  0.731350 *  0.127790 *  -2.87073    1.000000    
    107 O2    s    0.868590 *  0.268650 *  0.872210 *  -2.87073    1.000000    
    108 O2    s    0.631410 *  0.731350 *  0.872210 *  -2.87073    1.000000    
    109 O3    s    0.868590 *  0.731350 *  0.872210 *  -3.33043    1.000000    
    110 O2    s    0.631410 *  0.268650 *  0.872210 *  -2.87073    1.000000    
    111 O2    s    0.131410 *  0.731350 *  0.127790 *  -2.87073    1.000000    
    112 O2    s    0.368590 *  0.268650 *  0.127790 *  -2.87073    1.000000    
    113 O2    s    0.653920 *  0.500000 *  0.058200 *  -2.87073    1.000000    
    114 O3    s    0.846080 *  0.500000 *  0.058200 *  -3.33043    1.000000    
    115 O2    s    0.346080 *  0.500000 *  0.941800 *  -2.87073    1.000000    
    116 O2    s    0.153920 *  0.500000 *  0.941800 *  -2.87073    1.000000    
    117 O2    s    0.750000 *  0.231060 *  0.027050 *  -2.87073    1.000000    
    118 O3    s    0.750000 *  0.768940 *  0.027050 *  -3.33043    1.000000    
    119 O2    s    0.250000 *  0.231060 *  0.972950 *  -2.87073    1.000000    
    120 O2    s    0.250000 *  0.768940 *  0.972950 *  -2.87073    1.000000    
--------------------------------------------------------------------------------



********************************************************************************
*  General input information                                                   *
********************************************************************************

  Species output for all configurations : 

--------------------------------------------------------------------------------
  Species    Type    Atomic    Atomic    Charge       Radii (Angs)     Library
                     Number     Mass       (e)     Cova   Ionic  VDW   Symbol
--------------------------------------------------------------------------------
    Ge       Core       32      72.61   4.000000   1.170  0.000  1.750 Ge       
    Si       Core       14      28.09   4.000000   1.200  0.000  2.100 Si       
    O1       Core        8      16.00   1.733957   0.730  0.000  0.000 O1       
    O2       Core        8      16.00   0.870733   0.730  0.000  1.360 O2       
    O3       Core        8      16.00   1.330431   0.730  0.000  1.360 O3       
    O1       Shell       8       0.00  -3.733957   0.730  0.000  0.000 O1       
    O2       Shell       8       0.00  -2.870733   0.730  0.000  0.000 O2       
    O3       Shell       8       0.00  -3.330431   0.730  0.000  0.000 O3       
--------------------------------------------------------------------------------


  Lattice summation method               =    Ewald          (3-D)
                                         =    Parry          (2-D)
                                         =    Saunders et al (1-D)
  Accuracy factor for lattice sums       =   12.000


  Analytic derivatives to be used

  Time limit = Infinity

  Maximum range for interatomic potentials =    100000.000000 Angstroms

  General interatomic potentials :

--------------------------------------------------------------------------------
Atom  Types   Potential      Parameter       Value         Units   Cutoffs(Ang)
  1     2                                                            Min /  Max 
--------------------------------------------------------------------------------
Si   c O1   s Buckingham    Buckingham A     1315.2478    eV        0.000 16.000
                            Buckingham rho  0.31775900    Ang       
                            Buckingham C     10.141118    eV*Ang^6  
--------------------------------------------------------------------------------
Si   c O2   s Buckingham    Buckingham A     1315.2478    eV        0.000 16.000
                            Buckingham rho  0.31775900    Ang       
                            Buckingham C     10.141118    eV*Ang^6  
--------------------------------------------------------------------------------
Si   c O3   s Buckingham    Buckingham A     1315.2478    eV        0.000 16.000
                            Buckingham rho  0.31775900    Ang       
                            Buckingham C     10.141118    eV*Ang^6  
--------------------------------------------------------------------------------
Ge   c O1   s Buckingham    Buckingham A     1497.3996    eV        0.000 16.000
                            Buckingham rho  0.32564600    Ang       
                            Buckingham C     16.808599    eV*Ang^6  
--------------------------------------------------------------------------------
Ge   c O2   s Buckingham    Buckingham A     1497.3996    eV        0.000 16.000
                            Buckingham rho  0.32564600    Ang       
                            Buckingham C     16.808599    eV*Ang^6  
--------------------------------------------------------------------------------
Ge   c O3   s Buckingham    Buckingham A     1497.3996    eV        0.000 16.000
                            Buckingham rho  0.32564600    Ang       
                            Buckingham C     16.808599    eV*Ang^6  
--------------------------------------------------------------------------------
O1   s O1   s Buckingham    Buckingham A     22764.000    eV        0.000 16.000
                            Buckingham rho  0.14900000    Ang       
                            Buckingham C     10.937044    eV*Ang^6  
--------------------------------------------------------------------------------
O1   s O2   s Buckingham    Buckingham A     22764.000    eV        0.000 16.000
                            Buckingham rho  0.14900000    Ang       
                            Buckingham C     10.937044    eV*Ang^6  
--------------------------------------------------------------------------------
O1   s O3   s Buckingham    Buckingham A     22764.000    eV        0.000 16.000
                            Buckingham rho  0.14900000    Ang       
                            Buckingham C     10.937044    eV*Ang^6  
--------------------------------------------------------------------------------
O2   s O2   s Buckingham    Buckingham A     22764.000    eV        0.000 16.000
                            Buckingham rho  0.14900000    Ang       
                            Buckingham C     10.937044    eV*Ang^6  
--------------------------------------------------------------------------------
O2   s O3   s Buckingham    Buckingham A     22764.000    eV        0.000 16.000
                            Buckingham rho  0.14900000    Ang       
                            Buckingham C     10.937044    eV*Ang^6  
--------------------------------------------------------------------------------
O3   s O3   s Buckingham    Buckingham A     22764.000    eV        0.000 16.000
                            Buckingham rho  0.14900000    Ang       
                            Buckingham C     10.937044    eV*Ang^6  
--------------------------------------------------------------------------------
O1   c O1   s Spring (c-s)  Spring k 2       180.31577    eV*Ang^-2 0.000  0.800
                            Spring k 4       0.0000000    eV*Ang^-4 
--------------------------------------------------------------------------------
O2   c O2   s Spring (c-s)  Spring k 2       75.969800    eV*Ang^-2 0.000  0.800
                            Spring k 4       0.0000000    eV*Ang^-4 
--------------------------------------------------------------------------------
O3   c O3   s Spring (c-s)  Spring k 2       128.14270    eV*Ang^-2 0.000  0.800
                            Spring k 4       0.0000000    eV*Ang^-4 
--------------------------------------------------------------------------------

  General Three-body potentials :

--------------------------------------------------------------------------------
  Atoms       Potential      Parameter       Value         Units   Cutoffs(Ang)
  1 / 2 / 3                                                          Min /  Max 
--------------------------------------------------------------------------------
Si    core    Harmonic      Three-body cnst  1.2614000    eV*rad^-2 0.000  1.900
O1    shel                  Three-body angl  109.47000    degrees   0.000  1.900
O1    shel                  Three-body k4    0.0000000    eV*rad^-4 0.000  3.500
                            Three-body k3    0.0000000    eV*rad^-3 
--------------------------------------------------------------------------------
Si    core    Harmonic      Three-body cnst  1.2614000    eV*rad^-2 0.000  1.900
O1    shel                  Three-body angl  109.47000    degrees   0.000  1.900
õ(1   shel                  Three-body k4    0.0000000    eV*rad^-4 0.000  3.500
                            Three-body k3    0.0000000    eV*rad^-3 
--------------------------------------------------------------------------------
Si    core    Harmonic      Three-body cnst  1.2614000    eV*rad^-2 0.000  1.900
õ(1   shel                  Three-body angl  109.47000    degrees   0.000  1.900
õ(1   shel                  Three-body k4    0.0000000    eV*rad^-4 0.000  3.500
                            Three-body k3    0.0000000    eV*rad^-3 
--------------------------------------------------------------------------------
Si    core    Harmonic      Three-body cnst  1.2614000    eV*rad^-2 0.000  1.900
O1    shel                  Three-body angl  109.47000    degrees   0.000  1.900
O2    shel                  Three-body k4    0.0000000    eV*rad^-4 0.000  3.500
                            Three-body k3    0.0000000    eV*rad^-3 
--------------------------------------------------------------------------------
Si    core    Harmonic      Three-body cnst  1.2614000    eV*rad^-2 0.000  1.900
O1    shel                  Three-body angl  109.47000    degrees   0.000  1.900
õ(2   shel                  Three-body k4    0.0000000    eV*rad^-4 0.000  3.500
                            Three-body k3    0.0000000    eV*rad^-3 
--------------------------------------------------------------------------------
Si    core    Harmonic      Three-body cnst  1.2614000    eV*rad^-2 0.000  1.900
O2    shel                  Three-body angl  109.47000    degrees   0.000  1.900
õ(1   shel                  Three-body k4    0.0000000    eV*rad^-4 0.000  3.500
                            Three-body k3    0.0000000    eV*rad^-3 
--------------------------------------------------------------------------------
Si    core    Harmonic      Three-body cnst  1.2614000    eV*rad^-2 0.000  1.900
õ(1   shel                  Three-body angl  109.47000    degrees   0.000  1.900
õ(2   shel                  Three-body k4    0.0000000    eV*rad^-4 0.000  3.500
                            Three-body k3    0.0000000    eV*rad^-3 
--------------------------------------------------------------------------------
Si    core    Harmonic      Three-body cnst  1.2614000    eV*rad^-2 0.000  1.900
O2    shel                  Three-body angl  109.47000    degrees   0.000  1.900
O2    shel                  Three-body k4    0.0000000    eV*rad^-4 0.000  3.500
                            Three-body k3    0.0000000    eV*rad^-3 
--------------------------------------------------------------------------------
Si    core    Harmonic      Three-body cnst  1.2614000    eV*rad^-2 0.000  1.900
O2    shel                  Three-body angl  109.47000    degrees   0.000  1.900
õ(2   shel                  Three-body k4    0.0000000    eV*rad^-4 0.000  3.500
                            Three-body k3    0.0000000    eV*rad^-3 
--------------------------------------------------------------------------------
Si    core    Harmonic      Three-body cnst  1.2614000    eV*rad^-2 0.000  1.900
õ(2   shel                  Three-body angl  109.47000    degrees   0.000  1.900
õ(2   shel                  Three-body k4    0.0000000    eV*rad^-4 0.000  3.500
                            Three-body k3    0.0000000    eV*rad^-3 
--------------------------------------------------------------------------------

********************************************************************************
*  Output for configuration   1 : c00024.vasp                                  *
********************************************************************************


  Components of energy : 

--------------------------------------------------------------------------------
  Interatomic potentials     =         752.35498265 eV    
  Three-body potentials      =           0.01458540 eV    
  Monopole - monopole (real) =       -2676.00317478 eV    
  Monopole - monopole (recip)=       -1115.35404472 eV    
  Monopole - monopole (total)=       -3791.35721950 eV    
--------------------------------------------------------------------------------
  Total lattice energy       =       -3038.98765145 eV    
--------------------------------------------------------------------------------
  Total lattice energy       =         -293215.8532 kJ/(mole unit cells)
--------------------------------------------------------------------------------


  Number of variables =      363

  Maximum number of calculations  =          1000
  Maximum Hessian update interval =            10
  Maximum step size               =   0.100000000
  Maximum parameter tolerance     =   0.000010000
  Maximum function  tolerance     =   0.000010000
  Maximum gradient  tolerance     =   0.001000000
  Maximum gradient  component     =   0.010000000

  Symmetry not applied to optimisation

  Cell parameters to be optimised using strains

  Newton-Raphson optimiser to be used

  BFGS hessian update to be used

  Lower half triangular hessian to be used

  Minimiser to switch to RFO
  When gradient norm is less than     0.050000

  Dumpfile to be written after every cycle

  Start of bulk optimisation :

  Cycle:      0 Energy:     -3038.987651  Gnorm:      4.289685  CPU:    0.093
  ** Hessian calculated **
  Cycle:      1 Energy:     -3069.498292  Gnorm:      0.926546  CPU:    0.208
  ** Hessian calculated **
  Cycle:      2 Energy:     -3071.933868  Gnorm:      0.503880  CPU:    0.382
  Cycle:      3 Energy:     -3072.639014  Gnorm:      0.306092  CPU:    0.475
  Cycle:      4 Energy:     -3073.110199  Gnorm:      0.228505  CPU:    0.584
  Cycle:      5 Energy:     -3073.526679  Gnorm:      0.171379  CPU:    0.715
  Cycle:      6 Energy:     -3073.848208  Gnorm:      0.138578  CPU:    0.849
  Cycle:      7 Energy:     -3073.993230  Gnorm:      0.099598  CPU:    0.961
  Cycle:      8 Energy:     -3074.075282  Gnorm:      0.077425  CPU:    1.074
  Cycle:      9 Energy:     -3074.119943  Gnorm:      0.060357  CPU:    1.208
  Cycle:     10 Energy:     -3074.148845  Gnorm:      0.056747  CPU:    1.343
  Cycle:     11 Energy:     -3074.179181  Gnorm:      0.059896  CPU:    1.479
  ** Hessian calculated **
  Cycle:     12 Energy:     -3074.190760  Gnorm:      0.059025  CPU:    1.712
  Cycle:     13 Energy:     -3074.206520  Gnorm:      0.057794  CPU:    1.854
  Cycle:     14 Energy:     -3074.212291  Gnorm:      0.057297  CPU:    1.960
  ** Hessian calculated **
  Cycle:     15 Energy:     -3074.306678  Gnorm:      0.049877  CPU:    2.149
  ** Hessian has wrong structure
  ** Imaginary eigenvectors =   3
  Cycle:     16 Energy:     -3074.331552  Gnorm:      0.073207  CPU:    2.417
  ** Hessian has wrong structure
  ** Imaginary eigenvectors =   1
  ** Hessian has wrong structure
  ** Imaginary eigenvectors =   1
  Cycle:     17 Energy:     -3074.382462  Gnorm:      0.078363  CPU:    2.922
  ** Hessian has wrong structure
  ** Imaginary eigenvectors =   1
  Cycle:     18 Energy:     -3074.390128  Gnorm:      0.076901  CPU:    3.140
  ** Hessian has wrong structure
  ** Imaginary eigenvectors =   1
  ** Hessian has wrong structure
  ** Imaginary eigenvectors =   1
  Cycle:     19 Energy:     -3074.556514  Gnorm:      0.088446  CPU:    3.601
  ** Hessian has wrong structure
  ** Imaginary eigenvectors =   1
  Cycle:     20 Energy:     -3074.805028  Gnorm:      0.054239  CPU:    3.847
  ** Hessian has required structure
  Cycle:     21 Energy:     -3074.881067  Gnorm:      0.035917  CPU:    4.122
  ** Hessian has required structure
  Cycle:     22 Energy:     -3074.925803  Gnorm:      0.025759  CPU:    4.290
  ** Hessian has required structure
  Cycle:     23 Energy:     -3074.952325  Gnorm:      0.025547  CPU:    4.478
  ** Hessian has required structure
  Cycle:     24 Energy:     -3074.986468  Gnorm:      0.014635  CPU:    4.663
  ** Hessian has required structure
  Cycle:     25 Energy:     -3074.995930  Gnorm:      0.020892  CPU:    4.813
  ** Hessian has required structure
  Cycle:     26 Energy:     -3075.007894  Gnorm:      0.011952  CPU:    4.981
  ** Hessian has required structure
  Cycle:     27 Energy:     -3075.011147  Gnorm:      0.007477  CPU:    5.149
  ** Hessian has required structure
  Cycle:     28 Energy:     -3075.013979  Gnorm:      0.006221  CPU:    5.336
  ** Hessian has required structure
  Cycle:     29 Energy:     -3075.015266  Gnorm:      0.004322  CPU:    5.501
  ** Hessian has required structure
  Cycle:     30 Energy:     -3075.016271  Gnorm:      0.003217  CPU:    5.688
  ** Hessian has required structure
  Cycle:     31 Energy:     -3075.017020  Gnorm:      0.001555  CPU:    5.959
  ** Hessian has required structure
  Cycle:     32 Energy:     -3075.017200  Gnorm:      0.000742  CPU:    6.144
  ** Hessian has required structure
  Cycle:     33 Energy:     -3075.017246  Gnorm:      0.000360  CPU:    6.314
  ** Hessian has required structure
  Cycle:     34 Energy:     -3075.017258  Gnorm:      0.000177  CPU:    6.477
  ** Hessian has required structure
  Cycle:     35 Energy:     -3075.017260  Gnorm:      0.000123  CPU:    6.608
  ** Hessian has required structure
  Cycle:     36 Energy:     -3075.017261  Gnorm:      0.000086  CPU:    6.741
  ** Hessian has required structure
  Cycle:     37 Energy:     -3075.017261  Gnorm:      0.000060  CPU:    6.868
  ** Hessian has required structure


  **** Optimisation achieved ****


  Final energy =   -3075.01726197 eV      
  Final Gnorm  =       0.00004209

  Components of energy : 

--------------------------------------------------------------------------------
  Interatomic potentials     =         818.41818529 eV    
  Three-body potentials      =           0.27451863 eV    
  Monopole - monopole (real) =       -2241.49529009 eV    
  Monopole - monopole (recip)=       -1652.21467581 eV    
  Monopole - monopole (total)=       -3893.70996590 eV    
--------------------------------------------------------------------------------
  Total lattice energy       =       -3075.01726197 eV    
--------------------------------------------------------------------------------
  Total lattice energy       =         -296692.1598 kJ/(mole unit cells)
--------------------------------------------------------------------------------

  Final fractional coordinates of atoms :

--------------------------------------------------------------------------------
   No.  Atomic        x           y          z          Radius
        Label       (Frac)      (Frac)     (Frac)       (Angs) 
--------------------------------------------------------------------------------
     1  Ge    c     0.556730    0.000000    0.122130    0.000000
     2  Ge    c     0.827644    0.742998    0.019481    0.000000
     3  Si    c     0.049927    0.021569    0.368213    0.000000
     4  Si    c     0.452163    0.013027    0.373648    0.000000
     5  Si    c     0.948689    0.026901    0.624081    0.000000
     6  Si    c     0.547076    0.004436    0.635206    0.000000
     7  Si    c     0.940993    0.026320    0.118697    0.000000
     8  Si    c     0.441000    0.023759    0.884268    0.000000
     9  Si    c     0.049852    0.014205    0.880093    0.000000
    10  Si    c     0.154771    0.326530    0.281099    0.000000
    11  Si    c     0.346013    0.708702    0.275274    0.000000
    12  Si    c     0.848621    0.334363    0.712865    0.000000
    13  Si    c     0.649985    0.693117    0.714909    0.000000
    14  Si    c     0.830264    0.740215    0.712101    0.000000
    15  Si    c     0.666537    0.290071    0.713321    0.000000
    16  Si    c     0.163591    0.731848    0.278532    0.000000
    17  Si    c     0.336504    0.302966    0.273615    0.000000
    18  Si    c     0.671797    0.283310    0.013128    0.000000
    19  Si    c     0.329893    0.305964    0.972036    0.000000
    20  Si    c     0.161827    0.730257    0.977570    0.000000
    21  Si    c     0.344886    0.705991    0.975057    0.000000
    22  Si    c     0.147399    0.329779    0.980160    0.000000
    23  Si    c     0.644458    0.676196    0.018195    0.000000
    24  Si    c     0.855270    0.344306    0.011482    0.000000
    25  O2    c     0.098073    0.206001    0.368672    0.000000
    26  O2    c     0.406003    0.827358    0.357651    0.000000
    27  O2    c     0.907279    0.218260    0.626868    0.000000
    28  O2    c     0.587231    0.812024    0.637210    0.000000
    29  O2    c     0.881669    0.874419    0.625483    0.000000
    30  O2    c     0.615885    0.153554    0.627409    0.000000
    31  O2    c     0.111879    0.861157    0.364857    0.000000
    32  O2    c     0.391148    0.173033    0.355464    0.000000
    33  O2    c     0.998034    0.008352    0.494867    0.000000
    34  O2    c     0.488154    0.020953    0.515905    0.000000
    35  O2    c     0.992247    0.010020    0.246419    0.000000
    36  O3    c     0.524272    0.027683    0.276287    0.000000
    37  O2    c     0.009258    0.002826    0.741839    0.000000
    38  O2    c     0.495560    0.037304    0.761059    0.000000
    39  O3    c     0.640439    0.130351    0.103311    0.000000
    40  O3    c     0.867107    0.895396    0.123843    0.000000
    41  O2    c     0.372270    0.170464    0.877747    0.000000
    42  O2    c     0.118073    0.867974    0.885635    0.000000
    43  O2    c     0.402195    0.828028    0.889761    0.000000
    44  O2    c     0.087196    0.209092    0.899026    0.000000
    45  O3    c     0.579275    0.782103    0.094492    0.000000
    46  O2    c     0.911474    0.226436    0.101622    0.000000
    47  O3    c     0.488800    0.072726    0.011961    0.000000
    48  O2    c     0.988646    0.964371    0.992311    0.000000
    49  O2    c     0.138106    0.530944    0.309713    0.000000
    50  O2    c     0.363126    0.503703    0.302665    0.000000
    51  O2    c     0.863249    0.542623    0.691692    0.000000
    52  O2    c     0.633463    0.486612    0.688245    0.000000
    53  O2    c     0.245294    0.278807    0.314297    0.000000
    54  O2    c     0.256285    0.756628    0.311690    0.000000
    55  O2    c     0.758579    0.283988    0.674298    0.000000
    56  O2    c     0.738266    0.744219    0.668456    0.000000
    57  O2    c     0.136395    0.284790    0.131257    0.000000
    58  O2    c     0.362135    0.751530    0.124862    0.000000
    59  O2    c     0.866863    0.287465    0.862189    0.000000
    60  O2    c     0.641590    0.731656    0.866794    0.000000
    61  O3    c     0.835036    0.802233    0.859065    0.000000
    62  O2    c     0.659377    0.232023    0.862782    0.000000
    63  O2    c     0.149643    0.777510    0.127890    0.000000
    64  O2    c     0.344826    0.258305    0.122388    0.000000
    65  O2    c     0.627036    0.467970    0.036807    0.000000
    66  O3    c     0.876747    0.544837    0.035356    0.000000
    67  O2    c     0.363204    0.502785    0.945034    0.000000
    68  O2    c     0.127964    0.533796    0.951577    0.000000
    69  O2    c     0.763663    0.313552    0.045889    0.000000
    70  O3    c     0.731233    0.724965    0.068981    0.000000
    71  O2    c     0.237103    0.292823    0.939780    0.000000
    72  O2    c     0.253850    0.743483    0.942389    0.000000
    73  O2    s     0.099223    0.199640    0.358899    0.000000
    74  O2    s     0.404132    0.833811    0.349994    0.000000
    75  O2    s     0.905263    0.210813    0.635870    0.000000
    76  O2    s     0.589792    0.819456    0.645385    0.000000
    77  O2    s     0.883228    0.876119    0.634806    0.000000
    78  O2    s     0.614188    0.152756    0.637622    0.000000
    79  O2    s     0.111050    0.863848    0.355552    0.000000
    80  O2    s     0.391522    0.170472    0.348074    0.000000
    81  O2    s     0.998412    0.012111    0.494971    0.000000
    82  O2    s     0.490887    0.018081    0.513376    0.000000
    83  O2    s     0.992809    0.013279    0.245238    0.000000
    84  O3    s     0.519628    0.023734    0.272932    0.000000
    85  O2    s     0.007168    0.006897    0.744828    0.000000
    86  O2    s     0.494983    0.031906    0.761364    0.000000
    87  O3    s     0.637070    0.136185    0.095163    0.000000
    88  O3    s     0.871391    0.896047    0.114585    0.000000
    89  O2    s     0.374746    0.170141    0.888915    0.000000
    90  O2    s     0.115652    0.868196    0.895518    0.000000
    91  O2    s     0.399914    0.834949    0.898671    0.000000
    92  O2    s     0.089930    0.201859    0.906122    0.000000
    93  O3    s     0.584146    0.788786    0.088878    0.000000
    94  O2    s     0.908512    0.218003    0.093559    0.000000
    95  O3    s     0.489711    0.061480    0.008253    0.000000
    96  O2    s     0.990287    0.976125    0.993266    0.000000
    97  O2    s     0.142671    0.530315    0.303255    0.000000
    98  O2    s     0.358408    0.504488    0.296587    0.000000
    99  O2    s     0.858216    0.540861    0.696095    0.000000
   100  O2    s     0.638714    0.487941    0.693712    0.000000
   101  O2    s     0.245414    0.286569    0.306346    0.000000
   102  O2    s     0.255977    0.748793    0.304231    0.000000
   103  O2    s     0.758271    0.290049    0.682552    0.000000
   104  O2    s     0.738575    0.738332    0.677874    0.000000
   105  O2    s     0.139505    0.293917    0.131057    0.000000
   106  O2    s     0.358670    0.742366    0.124972    0.000000
   107  O2    s     0.863764    0.298116    0.861854    0.000000
   108  O2    s     0.642767    0.721887    0.866052    0.000000
   109  O3    s     0.833958    0.791252    0.857405    0.000000
   110  O2    s     0.661416    0.243411    0.862567    0.000000
   111  O2    s     0.152419    0.767718    0.127982    0.000000
   112  O2    s     0.342351    0.268051    0.122704    0.000000
   113  O2    s     0.633427    0.470675    0.032444    0.000000
   114  O3    s     0.870626    0.539569    0.031638    0.000000
   115  O2    s     0.357687    0.503974    0.951164    0.000000
   116  O2    s     0.133628    0.532737    0.957403    0.000000
   117  O2    s     0.763516    0.313668    0.038487    0.000000
   118  O3    s     0.730517    0.721576    0.059790    0.000000
   119  O2    s     0.237407    0.298409    0.947799    0.000000
   120  O2    s     0.253774    0.737782    0.949934    0.000000
--------------------------------------------------------------------------------

  Final Cartesian lattice vectors (Angstroms) :

       16.918510   -0.084052   -0.055016
       -0.036723    7.590694    0.017669
       -0.033154    0.024174   10.351687


  Final cell parameters and derivatives :

--------------------------------------------------------------------------------
       a           16.918809 Angstrom     dE/de1(xx)    -0.001993 eV/strain
       b            7.590804 Angstrom     dE/de2(yy)     0.000096 eV/strain
       c           10.351768 Angstrom     dE/de3(zz)    -0.001707 eV/strain
       alpha       89.731945 Degrees      dE/de4(yz)     0.000029 eV/strain
       beta        90.370478 Degrees      dE/de5(xz)     0.000031 eV/strain
       gamma       90.562260 Degrees      dE/de6(xy)     0.000017 eV/strain
--------------------------------------------------------------------------------

  Primitive cell volume =          1329.344242 Angs**3

  Density of cell =      1.912716 g/cm**3

  Non-primitive cell volume =          1329.344242 Angs**3


  Final internal derivatives :

--------------------------------------------------------------------------------
   No.  Atomic          a             b             c           Radius
        Label          (eV)          (eV)          (eV)        (eV/Angs)
--------------------------------------------------------------------------------
      1 Ge    c       0.000000      0.000000      0.000000      0.000000
      2 Ge    c      -0.004856      0.000692      0.001049      0.000000
      3 Si    c      -0.000261      0.000051     -0.000043      0.000000
      4 Si    c       0.000787     -0.000036      0.000679      0.000000
      5 Si    c      -0.000136      0.000193     -0.000087      0.000000
      6 Si    c      -0.001612      0.000134      0.000863      0.000000
      7 Si    c      -0.000401      0.000124      0.000182      0.000000
      8 Si    c       0.001381      0.000052     -0.000484      0.000000
      9 Si    c      -0.000243      0.000039     -0.000071      0.000000
     10 Si    c      -0.000284     -0.000207     -0.000193      0.000000
     11 Si    c      -0.000269      0.000265     -0.000374      0.000000
     12 Si    c      -0.000352     -0.000283     -0.000253      0.000000
     13 Si    c      -0.000480      0.000175      0.000526      0.000000
     14 Si    c      -0.000435      0.000059     -0.000073      0.000000
     15 Si    c       0.000163      0.000096      0.000198      0.000000
     16 Si    c       0.000141      0.000031     -0.000461      0.000000
     17 Si    c       0.000308     -0.000174     -0.000610      0.000000
     18 Si    c      -0.000616      0.000206      0.000644      0.000000
     19 Si    c      -0.000246     -0.000047      0.000531      0.000000
     20 Si    c       0.001666      0.000233      0.000568      0.000000
     21 Si    c      -0.000955      0.000143      0.000324      0.000000
     22 Si    c       0.000088      0.000001      0.000510      0.000000
     23 Si    c       0.000362      0.000560     -0.000677      0.000000
     24 Si    c       0.001884     -0.000904     -0.000372      0.000000
     25 O2    c       0.000028      0.000062     -0.000104      0.000000
     26 O2    c       0.000296      0.000280      0.000023      0.000000
     27 O2    c       0.000177     -0.000148      0.000018      0.000000
     28 O2    c       0.000187      0.000000      0.000076      0.000000
     29 O2    c       0.000109      0.000012      0.000032      0.000000
     30 O2    c      -0.000763     -0.000347     -0.000040      0.000000
     31 O2    c      -0.000246      0.000062      0.000134      0.000000
     32 O2    c       0.000217     -0.000121     -0.000052      0.000000
     33 O2    c      -0.000128     -0.000012      0.000139      0.000000
     34 O2    c      -0.000474     -0.000069     -0.000963      0.000000
     35 O2    c       0.000156      0.000034      0.000101      0.000000
     36 O3    c      -0.000799     -0.000142     -0.000119      0.000000
     37 O2    c      -0.000001     -0.000007     -0.000107      0.000000
     38 O2    c       0.001145     -0.000166     -0.000449      0.000000
     39 O3    c      -0.001344     -0.000094     -0.000792      0.000000
     40 O3    c       0.000784     -0.000015     -0.000335      0.000000
     41 O2    c       0.000149     -0.000054     -0.000108      0.000000
     42 O2    c      -0.000293      0.000081     -0.000212      0.000000
     43 O2    c       0.000394      0.000406     -0.000199      0.000000
     44 O2    c       0.000062      0.000054     -0.000170      0.000000
     45 O3    c      -0.000450      0.000322      0.000449      0.000000
     46 O2    c       0.000191      0.000003      0.000275      0.000000
     47 O3    c       0.000113     -0.000365     -0.000052      0.000000
     48 O2    c      -0.000159     -0.000115      0.000002      0.000000
     49 O2    c      -0.000221      0.000320     -0.000206      0.000000
     50 O2    c       0.000153     -0.000107     -0.000167      0.000000
     51 O2    c       0.000357      0.000524     -0.000375      0.000000
     52 O2    c       0.000206     -0.000556     -0.000286      0.000000
     53 O2    c       0.000653      0.000384      0.000272      0.000000
     54 O2    c       0.000100     -0.000318     -0.000053      0.000000
     55 O2    c      -0.000284     -0.000152      0.000084      0.000000
     56 O2    c       0.000992      0.000119     -0.000021      0.000000
     57 O2    c       0.001861     -0.000166     -0.000230      0.000000
     58 O2    c      -0.001266     -0.000074      0.000170      0.000000
     59 O2    c       0.000630     -0.000256      0.000035      0.000000
     60 O2    c       0.000409     -0.000233      0.000600      0.000000
     61 O3    c       0.000414      0.000131     -0.001398      0.000000
     62 O2    c      -0.000255     -0.000097     -0.000532      0.000000
     63 O2    c       0.001457     -0.000118     -0.000133      0.000000
     64 O2    c      -0.002653      0.000066      0.000469      0.000000
     65 O2    c       0.001122     -0.001169      0.000379      0.000000
     66 O3    c       0.002099      0.001681      0.001694      0.000000
     67 O2    c       0.000092     -0.000241      0.000380      0.000000
     68 O2    c      -0.000348     -0.000127      0.000457      0.000000
     69 O2    c      -0.005341     -0.000873      0.000337      0.000000
     70 O3    c       0.007437     -0.000261     -0.001070      0.000000
     71 O2    c       0.000708      0.000680     -0.000831      0.000000
     72 O2    c      -0.001948     -0.000757     -0.000007      0.000000
     73 O2    s       0.000150     -0.000077     -0.000221      0.000000
     74 O2    s       0.000195     -0.000006     -0.000330      0.000000
     75 O2    s       0.000220     -0.000296     -0.000193      0.000000
     76 O2    s      -0.000672      0.000302      0.000209      0.000000
     77 O2    s      -0.000220      0.000118     -0.000051      0.000000
     78 O2    s      -0.000471     -0.000042     -0.000022      0.000000
     79 O2    s       0.000418     -0.000060     -0.000277      0.000000
     80 O2    s      -0.000033      0.000003     -0.000320      0.000000
     81 O2    s      -0.000007      0.000009     -0.000061      0.000000
     82 O2    s       0.000310      0.000075      0.000458      0.000000
     83 O2    s       0.000089     -0.000050      0.000054      0.000000
     84 O3    s      -0.000055     -0.000022      0.000179      0.000000
     85 O2    s      -0.000060     -0.000029     -0.000020      0.000000
     86 O2    s      -0.000249      0.000028      0.000462      0.000000
     87 O3    s       0.000574     -0.000004      0.000302      0.000000
     88 O3    s      -0.001246     -0.000005      0.000074      0.000000
     89 O2    s       0.000077     -0.000036      0.000205      0.000000
     90 O2    s       0.000760     -0.000183      0.000305      0.000000
     91 O2    s       0.000336      0.000003      0.000199      0.000000
     92 O2    s       0.000261      0.000085      0.000281      0.000000
     93 O3    s      -0.000272      0.000200     -0.000382      0.000000
     94 O2    s       0.001179     -0.000714      0.000318      0.000000
     95 O3    s      -0.000146     -0.000193     -0.000171      0.000000
     96 O2    s      -0.000008      0.000057     -0.000048      0.000000
     97 O2    s       0.000609      0.000046     -0.000667      0.000000
     98 O2    s      -0.000584     -0.000010     -0.000830      0.000000
     99 O2    s       0.000557      0.000364     -0.000329      0.000000
    100 O2    s      -0.000647      0.000048     -0.000107      0.000000
    101 O2    s       0.000367      0.000283     -0.000278      0.000000
    102 O2    s      -0.000064     -0.000375     -0.000303      0.000000
    103 O2    s      -0.000930     -0.000353     -0.000479      0.000000
    104 O2    s      -0.000290      0.000258     -0.000284      0.000000
    105 O2    s       0.000701      0.000046      0.000015      0.000000
    106 O2    s      -0.000790     -0.000187     -0.000058      0.000000
    107 O2    s       0.002492     -0.000563     -0.001116      0.000000
    108 O2    s      -0.000348      0.000315     -0.000133      0.000000
    109 O3    s       0.000470      0.000135      0.000893      0.000000
    110 O2    s      -0.000144      0.000132      0.000264      0.000000
    111 O2    s       0.001164     -0.000279     -0.000137      0.000000
    112 O2    s      -0.000951      0.000177     -0.000174      0.000000
    113 O2    s      -0.000006      0.000179      0.000103      0.000000
    114 O3    s      -0.000100      0.000799      0.000074      0.000000
    115 O2    s      -0.000233      0.000055      0.000833      0.000000
    116 O2    s       0.000248      0.000272      0.000983      0.000000
    117 O2    s      -0.001639     -0.000884      0.000676      0.000000
    118 O3    s      -0.003576      0.000461      0.000343      0.000000
    119 O2    s       0.000041      0.000322      0.000262      0.000000
    120 O2    s       0.000421     -0.000253      0.000382      0.000000
--------------------------------------------------------------------------------
  Maximum abs         0.007437      0.001681      0.001694      0.000000
--------------------------------------------------------------------------------


  Born effective charge tensors : 

-------------------------------------------------------------------------------
  Atom             x           y             z
-------------------------------------------------------------------------------
    1 Ge    x       4.1925     -0.3074     -0.4186
            y       0.3086      3.8987      0.0230
            z      -0.4971      0.0662      3.9027
-------------------------------------------------------------------------------
    2 Ge    x       3.9560      0.4676      0.1841
            y       0.0514      4.1807      0.3041
            z       0.1650      0.1038      3.3516
-------------------------------------------------------------------------------
    3 Si    x       3.4439      0.0649     -0.1967
            y      -0.1055      3.2401      0.0017
            z      -0.5510     -0.0372      3.8032
-------------------------------------------------------------------------------
    4 Si    x       3.7021      0.0709      0.2038
            y      -0.0873      3.3058     -0.0117
            z       0.1474      0.0124      4.0452
-------------------------------------------------------------------------------
    5 Si    x       3.4589     -0.1643     -0.2093
            y       0.1111      3.2263      0.0192
            z      -0.4725      0.0775      3.8367
-------------------------------------------------------------------------------
    6 Si    x       3.4856     -0.1777      0.0926
            y       0.1191      3.2402     -0.0160
            z       0.5855     -0.0097      3.7133
-------------------------------------------------------------------------------
    7 Si    x       3.6852     -0.0152      0.1890
            y       0.3840      3.3606     -0.0631
            z       0.5697     -0.0337      3.1558
-------------------------------------------------------------------------------
    8 Si    x       3.6335      0.2047     -0.0316
            y      -0.1221      3.3243      0.0423
            z      -0.5112      0.0551      3.2877
-------------------------------------------------------------------------------
    9 Si    x       3.4617      0.1286      0.2808
            y      -0.1894      3.2702      0.0289
            z       0.4913      0.0148      3.1325
-------------------------------------------------------------------------------
   10 Si    x       3.1835      0.2188     -0.0880
            y       0.2605      3.4278     -0.1735
            z      -0.0926     -0.0794      2.8215
-------------------------------------------------------------------------------
   11 Si    x       3.2002      0.1995      0.0655
            y       0.2593      3.4167      0.1682
            z       0.1123      0.0903      2.8304
-------------------------------------------------------------------------------
   12 Si    x       3.2290     -0.2414     -0.0422
            y      -0.2975      3.4476      0.2114
            z      -0.0878      0.0649      2.8029
-------------------------------------------------------------------------------
   13 Si    x       3.2066     -0.2515      0.0271
            y      -0.3053      3.4682     -0.1984
            z       0.1196     -0.0787      2.7663
-------------------------------------------------------------------------------
   14 Si    x       3.2904      0.3572     -0.0845
            y       0.1756      3.5797     -0.0804
            z      -0.1379      0.0452      3.0793
-------------------------------------------------------------------------------
   15 Si    x       3.2468      0.3350      0.1341
            y       0.1509      3.4560      0.1640
            z       0.1092      0.0393      2.7557
-------------------------------------------------------------------------------
   16 Si    x       3.2034     -0.2881     -0.1399
            y      -0.2121      3.4669      0.1694
            z      -0.1084      0.0777      2.8204
-------------------------------------------------------------------------------
   17 Si    x       3.1975     -0.2711      0.1113
            y      -0.2097      3.4645     -0.1507
            z       0.1461     -0.0867      2.8378
-------------------------------------------------------------------------------
   18 Si    x       3.2988      0.5436     -0.2696
            y       0.1164      3.6356     -0.3706
            z      -0.1597     -0.2477      2.9183
-------------------------------------------------------------------------------
   19 Si    x       3.2404     -0.3016     -0.1903
            y      -0.1018      3.4277      0.1832
            z      -0.1206      0.0745      2.7385
-------------------------------------------------------------------------------
   20 Si    x       3.2328     -0.3057      0.1836
            y      -0.1087      3.4505     -0.1843
            z       0.1120     -0.0764      2.7391
-------------------------------------------------------------------------------
   21 Si    x       3.2756      0.2498     -0.1422
            y       0.2504      3.3877     -0.1573
            z      -0.1556     -0.0618      2.7168
-------------------------------------------------------------------------------
   22 Si    x       3.2933      0.2579      0.1320
            y       0.2757      3.4094      0.1633
            z       0.1755      0.0688      2.7243
-------------------------------------------------------------------------------
   23 Si    x       3.8647     -0.3289     -0.1637
            y      -0.3641      3.5874      0.3194
            z      -0.3005      0.1518      2.9303
-------------------------------------------------------------------------------
   24 Si    x       3.3400     -0.1982      0.1937
            y      -0.1451      3.7227     -0.1249
            z       0.2135      0.0189      2.7858
-------------------------------------------------------------------------------
   25 O2    x      -1.6392     -0.6926      0.3149
            y      -0.6631     -1.9758      0.3269
            z       0.3623      0.3248     -1.3691
-------------------------------------------------------------------------------
   26 O2    x      -1.6513     -0.6777     -0.3698
            y      -0.6510     -1.9911     -0.3837
            z      -0.3797     -0.3807     -1.3922
-------------------------------------------------------------------------------
   27 O2    x      -1.6399      0.7106      0.3247
            y       0.6498     -2.0130     -0.3404
            z       0.3608     -0.3322     -1.3744
-------------------------------------------------------------------------------
   28 O2    x      -1.6700      0.7298     -0.2837
            y       0.6749     -2.0467      0.3116
            z      -0.3607      0.3033     -1.3150
-------------------------------------------------------------------------------
   29 O2    x      -1.7720     -0.7171      0.2994
            y      -0.7488     -1.9413      0.3118
            z       0.3578      0.3062     -1.3444
-------------------------------------------------------------------------------
   30 O2    x      -1.7880     -0.7176     -0.2769
            y      -0.7488     -1.9204     -0.3056
            z      -0.3414     -0.2935     -1.3371
-------------------------------------------------------------------------------
   31 O2    x      -1.7342      0.7239      0.3338
            y       0.7551     -1.9643     -0.3574
            z       0.3759     -0.3329     -1.3652
-------------------------------------------------------------------------------
   32 O2    x      -1.7349      0.7197     -0.4009
            y       0.7435     -1.9760      0.3979
            z      -0.4064      0.3788     -1.3798
-------------------------------------------------------------------------------
   33 O2    x      -1.6656      0.0280      0.8560
            y       0.0005     -1.0864     -0.0114
            z       1.1071     -0.0391     -2.7599
-------------------------------------------------------------------------------
   34 O2    x      -1.6414      0.0357     -0.8225
            y       0.0084     -1.0952      0.0203
            z      -1.0235      0.0371     -2.7296
-------------------------------------------------------------------------------
   35 O2    x      -1.7050      0.0434     -0.7229
            y       0.0023     -1.1196      0.0377
            z      -0.7001      0.0583     -2.2184
-------------------------------------------------------------------------------
   36 O3    x      -2.1086      0.0378      0.9461
            y      -0.0325     -1.2396     -0.0285
            z       0.9252     -0.0730     -2.7171
-------------------------------------------------------------------------------
   37 O2    x      -1.6744      0.0241     -0.7396
            y       0.0296     -1.1210      0.0115
            z      -0.7047      0.0180     -2.2917
-------------------------------------------------------------------------------
   38 O2    x      -1.7646      0.0231      0.7479
            y       0.0135     -1.1373     -0.0339
            z       0.7419     -0.0466     -2.1799
-------------------------------------------------------------------------------
   39 O3    x      -2.0591     -0.8907      0.5344
            y      -0.8275     -2.3103      0.6315
            z       0.4753      0.5844     -1.5576
-------------------------------------------------------------------------------
   40 O3    x      -2.2082     -0.9392     -0.3586
            y      -0.9040     -2.2305     -0.4183
            z      -0.3710     -0.3706     -1.4433
-------------------------------------------------------------------------------
   41 O2    x      -1.7416      0.6890      0.3252
            y       0.6621     -1.9016     -0.3572
            z       0.3350     -0.3204     -1.2697
-------------------------------------------------------------------------------
   42 O2    x      -1.7572      0.7047     -0.3578
            y       0.6896     -1.9108      0.3656
            z      -0.3435      0.3369     -1.2607
-------------------------------------------------------------------------------
   43 O2    x      -1.6466     -0.6699      0.3356
            y      -0.5796     -2.0211      0.3670
            z       0.3793      0.3551     -1.2497
-------------------------------------------------------------------------------
   44 O2    x      -1.6806     -0.6888     -0.3612
            y      -0.6082     -2.0320     -0.3859
            z      -0.3833     -0.3725     -1.2420
-------------------------------------------------------------------------------
   45 O3    x      -2.0223      0.9120      0.5622
            y       0.7181     -2.4029     -0.5535
            z       0.5395     -0.5267     -1.4832
-------------------------------------------------------------------------------
   46 O2    x      -1.6262      0.6160     -0.3584
            y       0.5272     -1.9475      0.3970
            z      -0.3710      0.3457     -1.2840
-------------------------------------------------------------------------------
   47 O3    x      -2.1305      0.0423     -0.8207
            y       0.0173     -1.3724     -0.0071
            z      -0.4791     -0.0160     -2.0758
-------------------------------------------------------------------------------
   48 O2    x      -1.7481      0.0103      0.5584
            y      -0.0031     -1.2470     -0.0434
            z       0.2843     -0.0453     -1.7105
-------------------------------------------------------------------------------
   49 O2    x      -1.1521     -0.0384      0.0652
            y      -0.0644     -2.5575      0.0098
            z       0.0712     -0.0035     -1.0711
-------------------------------------------------------------------------------
   50 O2    x      -1.1643     -0.0449     -0.0586
            y      -0.0682     -2.5631     -0.0149
            z      -0.0756      0.0031     -1.0713
-------------------------------------------------------------------------------
   51 O2    x      -1.1940      0.0762      0.0404
            y       0.1537     -2.5805      0.0204
            z       0.0628      0.0439     -1.0538
-------------------------------------------------------------------------------
   52 O2    x      -1.1858      0.0763     -0.0543
            y       0.1435     -2.5542     -0.0051
            z      -0.0735     -0.0151     -1.0523
-------------------------------------------------------------------------------
   53 O2    x      -2.3860      0.0840      0.0349
            y       0.0350     -1.2492      0.0657
            z       0.0258      0.0467     -1.0705
-------------------------------------------------------------------------------
   54 O2    x      -2.4027      0.0829      0.0214
            y       0.0374     -1.2510     -0.0686
            z      -0.0020     -0.0487     -1.0646
-------------------------------------------------------------------------------
   55 O2    x      -2.4264     -0.1337     -0.0006
            y      -0.0608     -1.2475     -0.0702
            z       0.0252     -0.0344     -1.0643
-------------------------------------------------------------------------------
   56 O2    x      -2.3900     -0.1323      0.0464
            y      -0.0763     -1.2660      0.0748
            z       0.0194      0.0423     -1.0782
-------------------------------------------------------------------------------
   57 O2    x      -1.2049     -0.1264     -0.0561
            y      -0.1255     -1.2715     -0.0011
            z      -0.0684      0.0115     -2.0705
-------------------------------------------------------------------------------
   58 O2    x      -1.2199     -0.1298      0.0210
            y      -0.1266     -1.2718      0.0029
            z       0.0315     -0.0072     -2.0699
-------------------------------------------------------------------------------
   59 O2    x      -1.2285      0.1378     -0.0649
            y       0.1264     -1.2734      0.0089
            z      -0.0745     -0.0068     -2.0597
-------------------------------------------------------------------------------
   60 O2    x      -1.2075      0.1119      0.0625
            y       0.1072     -1.3055      0.0379
            z       0.0750      0.0644     -2.0640
-------------------------------------------------------------------------------
   61 O3    x      -1.3175     -0.1545     -0.0580
            y      -0.0812     -1.4847     -0.0798
            z      -0.0021     -0.0907     -2.5942
-------------------------------------------------------------------------------
   62 O2    x      -1.1980     -0.1430     -0.0071
            y      -0.0740     -1.3042     -0.0144
            z      -0.0284      0.0011     -2.0281
-------------------------------------------------------------------------------
   63 O2    x      -1.1788      0.1292     -0.0341
            y       0.0958     -1.2896     -0.0228
            z      -0.0260     -0.0049     -2.0707
-------------------------------------------------------------------------------
   64 O2    x      -1.1764      0.1216      0.0009
            y       0.0895     -1.2883      0.0164
            z      -0.0131     -0.0057     -2.0876
-------------------------------------------------------------------------------
   65 O2    x      -1.3112      0.1347      0.0976
            y       0.2117     -2.3736     -0.0054
            z       0.1219     -0.0240     -1.0481
-------------------------------------------------------------------------------
   66 O3    x      -1.4351      0.0217     -0.1036
            y       0.1638     -3.1029     -0.1056
            z      -0.1300     -0.0753     -1.1238
-------------------------------------------------------------------------------
   67 O2    x      -1.2279     -0.0523      0.0916
            y      -0.1215     -2.4946     -0.0187
            z       0.1003     -0.0005     -1.0227
-------------------------------------------------------------------------------
   68 O2    x      -1.2323     -0.0503     -0.0867
            y      -0.1188     -2.5138      0.0118
            z      -0.1004     -0.0024     -1.0173
-------------------------------------------------------------------------------
   69 O2    x      -2.4290     -0.1326     -0.0155
            y      -0.0644     -1.2469      0.0499
            z      -0.0029      0.0205     -1.0605
-------------------------------------------------------------------------------
   70 O3    x      -2.9777     -0.2887     -0.0830
            y      -0.2214     -1.4247     -0.1067
            z      -0.1039     -0.0599     -1.2330
-------------------------------------------------------------------------------
   71 O2    x      -2.4302      0.0706      0.0376
            y       0.0432     -1.2371     -0.0662
            z       0.0169     -0.0383     -1.0377
-------------------------------------------------------------------------------
   72 O2    x      -2.4368      0.0761      0.0164
            y       0.0558     -1.2400      0.0612
            z       0.0187      0.0349     -1.0315
-------------------------------------------------------------------------------




  Elastic Constant Matrix: (Units=GPa)

-------------------------------------------------------------------------------
  Indices      1         2         3         4         5         6    
-------------------------------------------------------------------------------
       1     55.2971   30.0722   32.2373    0.2828   -0.4903   -3.5934
       2     30.0722   81.5389   27.2258    0.0151    0.1710   -2.4993
       3     32.2373   27.2258   45.3639   -0.4523   -1.4013   -2.6787
       4      0.2828    0.0151   -0.4523   13.0640   -1.1804   -0.0777
       5     -0.4903    0.1710   -1.4013   -1.1804   25.6149    0.7251
       6     -3.5934   -2.4993   -2.6787   -0.0777    0.7251   29.5694
-------------------------------------------------------------------------------


  Elastic Compliance Matrix: (Units=1/GPa)

-------------------------------------------------------------------------------
  Indices      1         2         3         4         5         6    
-------------------------------------------------------------------------------
       1    0.032773 -0.005352 -0.020007 -0.001435 -0.000546  0.001728
       2   -0.005352  0.016230 -0.005944 -0.000157 -0.000549  0.000196
       3   -0.020007 -0.005944  0.039946  0.002000  0.001916  0.000643
       4   -0.001435 -0.000157  0.002000  0.076975  0.003627  0.000107
       5   -0.000546 -0.000549  0.001916  0.003627  0.039330 -0.000894
       6    0.001728  0.000196  0.000643  0.000107 -0.000894  0.034126
-------------------------------------------------------------------------------

  Mechanical properties :

-------------------------------------------------------------------------------
  Convention :                    Reuss         Voigt         Hill
-------------------------------------------------------------------------------
  Bulk  Modulus (GPa)     =      37.96084      40.14114      39.05099
  Shear Modulus (GPa)     =      16.08919      19.82732      17.95826
-------------------------------------------------------------------------------
  Velocity S-wave (km/s)  =       2.90029       3.21964       3.06413
  Velocity P-wave (km/s)  =       5.57334       5.89982       5.73890
-------------------------------------------------------------------------------
  Compressibility (1/GPa) =    0.02634294
-------------------------------------------------------------------------------
  Stress axis :                     x             y             z
-------------------------------------------------------------------------------
  Youngs Moduli (GPa)     =      30.51260      61.61438      25.03376
-------------------------------------------------------------------------------
  Poissons Ratio (x)      =                     0.32979       0.50085
  Poissons Ratio (y)      =       0.16332                     0.14880
  Poissons Ratio (z)      =       0.61046       0.36623
-------------------------------------------------------------------------------


  Piezoelectric Strain Matrix: (Units=C/m**2)

-------------------------------------------------------------------------------
  Indices      1         2         3         4         5         6    
-------------------------------------------------------------------------------
       x    -0.06123   0.72197  -0.07009  -0.37195  -0.30763  -0.17709
       y     0.13336  -0.49807  -0.45148  -0.34911  -0.59989   0.32788
       z    -0.29973  -0.20385   0.12365   0.05403  -0.04215  -0.13275
-------------------------------------------------------------------------------


  Piezoelectric Stress Matrix: (Units=10**-11 C/N)

-------------------------------------------------------------------------------
  Indices      1         2         3         4         5         6    
-------------------------------------------------------------------------------
       x    -0.40728   1.26545  -0.73134  -2.99317  -1.37869  -0.58173
       y     1.74646  -0.56656  -1.93792  -3.00300  -2.58180   1.15305
       z    -1.14896  -0.24505   1.20894   0.47012  -0.08307  -0.49648
-------------------------------------------------------------------------------


  Static dielectric constant tensor : 

-------------------------------------------------------------------------------
              x         y         z
-------------------------------------------------------------------------------
       x     3.90428   0.02429  -0.06825
       y     0.02429   3.99983  -0.02639
       z    -0.06825  -0.02639   3.15759
--------------------------------------------------------------------------------

  High frequency dielectric constant tensor : 

-------------------------------------------------------------------------------
              x         y         z
-------------------------------------------------------------------------------
       x     1.68914  -0.00121   0.00013
       y    -0.00121   1.69746   0.00027
       z     0.00013   0.00027   1.62910
-------------------------------------------------------------------------------

  Static refractive indices : 

-------------------------------------------------------------------------------
    1 =    1.77503      2 =    1.97566      3 =    2.00194
-------------------------------------------------------------------------------

  High frequency refractive indices : 

-------------------------------------------------------------------------------
    1 =    1.27636      2 =    1.29960      3 =    1.30293
-------------------------------------------------------------------------------


  Time to end of optimisation =       7.1572 seconds


  Peak dynamic memory used =       5.01 MB 


  Timing analysis for GULP :

--------------------------------------------------------------------------------
  Task / Subroutine                                          Time (Seconds)
--------------------------------------------------------------------------------
  Calculation of reciprocal space energy and derivatives          0.4412
  Calculation of real space energy and derivatives                4.6578
  Calculation of three-body energy and derivatives                0.5041
  Calculation and manipulation of Hessian matrix                  2.0004
  Calculation of matrix inversion                                 0.0269
  Global summation overhead                                       0.0001
--------------------------------------------------------------------------------
  Total CPU time                                                  7.1572
--------------------------------------------------------------------------------


  Dump file written as c00024.vasp.grs
  CIF file written as c00024.vasp.cif


  Job Finished at 10:50.36  7th October    2025                               

