********************************************************************************
*                       GENERAL UTILITY LATTICE PROGRAM                        *
*                                 Julian Gale                                  *
*                       Curtin Institute for Computation                       *
*                    School of Molecular and Life Sciences                     *
*                    Curtin University, Western Australia                      *
********************************************************************************
* Version = 6.1.2 * Last modified =   3rd November 2022                        *
********************************************************************************
*  optimise     - perform optimisation run                                     *
*  conp         - constant pressure calculation                                *
*  property     - calculate properties for final geometry                      *
********************************************************************************

  Job Started  at 10:53.56  7th October    2025                               

  Number of CPUs =     1


  Total number of configurations input =      1

********************************************************************************
*  Input for Configuration =   1 : c00046.vasp                                 *
********************************************************************************

  Formula = Ge2Si22O48                                                  

  Number of irreducible atoms/shells =     120


  Total number atoms/shells =     120

  Dimensionality = 3               :  Bulk   



  Cartesian lattice vectors (Angstroms) :

       17.182800    0.000000    0.000000
        0.000000    7.513760    0.000000
        0.000000    0.000000   10.447700

  Cell parameters (Angstroms/Degrees):

  a =      17.1828    alpha =  90.0000
  b =       7.5138    beta  =  90.0000
  c =      10.4477    gamma =  90.0000

  Initial cell volume =        1348.875752 Angs**3

  Temperature of configuration =   0.00     K 

  Pressure of configuration =         0.000 GPa 

  Fractional coordinates of asymmetric unit :

--------------------------------------------------------------------------------
   No.  Atomic       x           y          z         Charge      Occupancy
        Label      (Frac)      (Frac)     (Frac)        (e)         (Frac)  
--------------------------------------------------------------------------------
      1 Ge    c    0.660660    0.294090    0.017440     4.00000    1.000000    
      2 Ge    c    0.160660 *  0.294090 *  0.982560 *   4.00000    1.000000    
      3 Si    c    0.052090 *  0.000000 *  0.372270 *   4.00000    1.000000    
      4 Si    c    0.447910 *  0.000000 *  0.372270 *   4.00000    1.000000    
      5 Si    c    0.947910 *  0.000000 *  0.627730 *   4.00000    1.000000    
      6 Si    c    0.552090 *  0.000000 *  0.627730 *   4.00000    1.000000    
      7 Si    c    0.556730 *  0.000000 *  0.122130 *   4.00000    1.000000    
      8 Si    c    0.943270 *  0.000000 *  0.122130 *   4.00000    1.000000    
      9 Si    c    0.443270 *  0.000000 *  0.877870 *   4.00000    1.000000    
     10 Si    c    0.056730 *  0.000000 *  0.877870 *   4.00000    1.000000    
     11 Si    c    0.160190 *  0.293910 *  0.273440 *   4.00000    1.000000    
     12 Si    c    0.339810 *  0.706090 *  0.273440 *   4.00000    1.000000    
     13 Si    c    0.839810 *  0.293910 *  0.726560 *   4.00000    1.000000    
     14 Si    c    0.660190 *  0.706090 *  0.726560 *   4.00000    1.000000    
     15 Si    c    0.839810 *  0.706090 *  0.726560 *   4.00000    1.000000    
     16 Si    c    0.660190 *  0.293910 *  0.726560 *   4.00000    1.000000    
     17 Si    c    0.160190 *  0.706090 *  0.273440 *   4.00000    1.000000    
     18 Si    c    0.339810 *  0.293910 *  0.273440 *   4.00000    1.000000    
     19 Si    c    0.839340 *  0.705910 *  0.017440 *   4.00000    1.000000    
     20 Si    c    0.339340 *  0.294090 *  0.982560 *   4.00000    1.000000    
     21 Si    c    0.160660 *  0.705910 *  0.982560 *   4.00000    1.000000    
     22 Si    c    0.339340 *  0.705910 *  0.982560 *   4.00000    1.000000    
     23 Si    c    0.660660 *  0.705910 *  0.017440 *   4.00000    1.000000    
     24 Si    c    0.839340 *  0.294090 *  0.017440 *   4.00000    1.000000    
     25 O2    c    0.106570 *  0.174340 *  0.366200 *   0.87073    1.000000    
     26 O2    c    0.393430 *  0.825660 *  0.366200 *   0.87073    1.000000    
     27 O2    c    0.893430 *  0.174340 *  0.633800 *   0.87073    1.000000    
     28 O2    c    0.606570 *  0.825660 *  0.633800 *   0.87073    1.000000    
     29 O2    c    0.893430 *  0.825660 *  0.633800 *   0.87073    1.000000    
     30 O2    c    0.606570 *  0.174340 *  0.633800 *   0.87073    1.000000    
     31 O2    c    0.106570 *  0.825660 *  0.366200 *   0.87073    1.000000    
     32 O2    c    0.393430 *  0.174340 *  0.366200 *   0.87073    1.000000    
     33 O2    c    0.000000 *  0.000000 *  0.500000 *   0.87073    1.000000    
     34 O2    c    0.500000 *  0.000000 *  0.500000 *   0.87073    1.000000    
     35 O2    c    0.994520 *  0.000000 *  0.250840 *   0.87073    1.000000    
     36 O2    c    0.505480 *  0.000000 *  0.250840 *   0.87073    1.000000    
     37 O2    c    0.005480 *  0.000000 *  0.749160 *   0.87073    1.000000    
     38 O2    c    0.494520 *  0.000000 *  0.749160 *   0.87073    1.000000    
     39 O3    c    0.610230 *  0.175520 *  0.115390 *   1.33043    1.000000    
     40 O2    c    0.889770 *  0.824480 *  0.115390 *   0.87073    1.000000    
     41 O2    c    0.389770 *  0.175520 *  0.884610 *   0.87073    1.000000    
     42 O2    c    0.110230 *  0.824480 *  0.884610 *   0.87073    1.000000    
     43 O2    c    0.389770 *  0.824480 *  0.884610 *   0.87073    1.000000    
     44 O3    c    0.110230 *  0.175520 *  0.884610 *   1.33043    1.000000    
     45 O2    c    0.610230 *  0.824480 *  0.115390 *   0.87073    1.000000    
     46 O2    c    0.889770 *  0.175520 *  0.115390 *   0.87073    1.000000    
     47 O2    c    0.500000 *  0.000000 *  0.000000 *   0.87073    1.000000    
     48 O2    c    0.000000 *  0.000000 *  0.000000 *   0.87073    1.000000    
     49 O2    c    0.151750 *  0.500000 *  0.313330 *   0.87073    1.000000    
     50 O2    c    0.348250 *  0.500000 *  0.313330 *   0.87073    1.000000    
     51 O2    c    0.848250 *  0.500000 *  0.686670 *   0.87073    1.000000    
     52 O2    c    0.651750 *  0.500000 *  0.686670 *   0.87073    1.000000    
     53 O2    c    0.250000 *  0.234950 *  0.285720 *   0.87073    1.000000    
     54 O2    c    0.250000 *  0.765050 *  0.285720 *   0.87073    1.000000    
     55 O2    c    0.750000 *  0.234950 *  0.714280 *   0.87073    1.000000    
     56 O2    c    0.750000 *  0.765050 *  0.714280 *   0.87073    1.000000    
     57 O3    c    0.131410 *  0.268650 *  0.127790 *   1.33043    1.000000    
     58 O2    c    0.368590 *  0.731350 *  0.127790 *   0.87073    1.000000    
     59 O2    c    0.868590 *  0.268650 *  0.872210 *   0.87073    1.000000    
     60 O2    c    0.631410 *  0.731350 *  0.872210 *   0.87073    1.000000    
     61 O2    c    0.868590 *  0.731350 *  0.872210 *   0.87073    1.000000    
     62 O3    c    0.631410 *  0.268650 *  0.872210 *   1.33043    1.000000    
     63 O2    c    0.131410 *  0.731350 *  0.127790 *   0.87073    1.000000    
     64 O2    c    0.368590 *  0.268650 *  0.127790 *   0.87073    1.000000    
     65 O3    c    0.653920 *  0.500000 *  0.058200 *   1.33043    1.000000    
     66 O2    c    0.846080 *  0.500000 *  0.058200 *   0.87073    1.000000    
     67 O2    c    0.346080 *  0.500000 *  0.941800 *   0.87073    1.000000    
     68 O3    c    0.153920 *  0.500000 *  0.941800 *   1.33043    1.000000    
     69 O3    c    0.750000 *  0.231060 *  0.027050 *   1.33043    1.000000    
     70 O2    c    0.750000 *  0.768940 *  0.027050 *   0.87073    1.000000    
     71 O3    c    0.250000 *  0.231060 *  0.972950 *   1.33043    1.000000    
     72 O2    c    0.250000 *  0.768940 *  0.972950 *   0.87073    1.000000    
     73 O2    s    0.106570 *  0.174340 *  0.366200 *  -2.87073    1.000000    
     74 O2    s    0.393430 *  0.825660 *  0.366200 *  -2.87073    1.000000    
     75 O2    s    0.893430 *  0.174340 *  0.633800 *  -2.87073    1.000000    
     76 O2    s    0.606570 *  0.825660 *  0.633800 *  -2.87073    1.000000    
     77 O2    s    0.893430 *  0.825660 *  0.633800 *  -2.87073    1.000000    
     78 O2    s    0.606570 *  0.174340 *  0.633800 *  -2.87073    1.000000    
     79 O2    s    0.106570 *  0.825660 *  0.366200 *  -2.87073    1.000000    
     80 O2    s    0.393430 *  0.174340 *  0.366200 *  -2.87073    1.000000    
     81 O2    s    0.000000 *  0.000000 *  0.500000 *  -2.87073    1.000000    
     82 O2    s    0.500000 *  0.000000 *  0.500000 *  -2.87073    1.000000    
     83 O2    s    0.994520 *  0.000000 *  0.250840 *  -2.87073    1.000000    
     84 O2    s    0.505480 *  0.000000 *  0.250840 *  -2.87073    1.000000    
     85 O2    s    0.005480 *  0.000000 *  0.749160 *  -2.87073    1.000000    
     86 O2    s    0.494520 *  0.000000 *  0.749160 *  -2.87073    1.000000    
     87 O3    s    0.610230 *  0.175520 *  0.115390 *  -3.33043    1.000000    
     88 O2    s    0.889770 *  0.824480 *  0.115390 *  -2.87073    1.000000    
     89 O2    s    0.389770 *  0.175520 *  0.884610 *  -2.87073    1.000000    
     90 O2    s    0.110230 *  0.824480 *  0.884610 *  -2.87073    1.000000    
     91 O2    s    0.389770 *  0.824480 *  0.884610 *  -2.87073    1.000000    
     92 O3    s    0.110230 *  0.175520 *  0.884610 *  -3.33043    1.000000    
     93 O2    s    0.610230 *  0.824480 *  0.115390 *  -2.87073    1.000000    
     94 O2    s    0.889770 *  0.175520 *  0.115390 *  -2.87073    1.000000    
     95 O2    s    0.500000 *  0.000000 *  0.000000 *  -2.87073    1.000000    
     96 O2    s    0.000000 *  0.000000 *  0.000000 *  -2.87073    1.000000    
     97 O2    s    0.151750 *  0.500000 *  0.313330 *  -2.87073    1.000000    
     98 O2    s    0.348250 *  0.500000 *  0.313330 *  -2.87073    1.000000    
     99 O2    s    0.848250 *  0.500000 *  0.686670 *  -2.87073    1.000000    
    100 O2    s    0.651750 *  0.500000 *  0.686670 *  -2.87073    1.000000    
    101 O2    s    0.250000 *  0.234950 *  0.285720 *  -2.87073    1.000000    
    102 O2    s    0.250000 *  0.765050 *  0.285720 *  -2.87073    1.000000    
    103 O2    s    0.750000 *  0.234950 *  0.714280 *  -2.87073    1.000000    
    104 O2    s    0.750000 *  0.765050 *  0.714280 *  -2.87073    1.000000    
    105 O3    s    0.131410 *  0.268650 *  0.127790 *  -3.33043    1.000000    
    106 O2    s    0.368590 *  0.731350 *  0.127790 *  -2.87073    1.000000    
    107 O2    s    0.868590 *  0.268650 *  0.872210 *  -2.87073    1.000000    
    108 O2    s    0.631410 *  0.731350 *  0.872210 *  -2.87073    1.000000    
    109 O2    s    0.868590 *  0.731350 *  0.872210 *  -2.87073    1.000000    
    110 O3    s    0.631410 *  0.268650 *  0.872210 *  -3.33043    1.000000    
    111 O2    s    0.131410 *  0.731350 *  0.127790 *  -2.87073    1.000000    
    112 O2    s    0.368590 *  0.268650 *  0.127790 *  -2.87073    1.000000    
    113 O3    s    0.653920 *  0.500000 *  0.058200 *  -3.33043    1.000000    
    114 O2    s    0.846080 *  0.500000 *  0.058200 *  -2.87073    1.000000    
    115 O2    s    0.346080 *  0.500000 *  0.941800 *  -2.87073    1.000000    
    116 O3    s    0.153920 *  0.500000 *  0.941800 *  -3.33043    1.000000    
    117 O3    s    0.750000 *  0.231060 *  0.027050 *  -3.33043    1.000000    
    118 O2    s    0.750000 *  0.768940 *  0.027050 *  -2.87073    1.000000    
    119 O3    s    0.250000 *  0.231060 *  0.972950 *  -3.33043    1.000000    
    120 O2    s    0.250000 *  0.768940 *  0.972950 *  -2.87073    1.000000    
--------------------------------------------------------------------------------



********************************************************************************
*  General input information                                                   *
********************************************************************************

  Species output for all configurations : 

--------------------------------------------------------------------------------
  Species    Type    Atomic    Atomic    Charge       Radii (Angs)     Library
                     Number     Mass       (e)     Cova   Ionic  VDW   Symbol
--------------------------------------------------------------------------------
    Ge       Core       32      72.61   4.000000   1.170  0.000  1.750 Ge       
    Si       Core       14      28.09   4.000000   1.200  0.000  2.100 Si       
    O1       Core        8      16.00   1.733957   0.730  0.000  0.000 O1       
    O2       Core        8      16.00   0.870733   0.730  0.000  1.360 O2       
    O3       Core        8      16.00   1.330431   0.730  0.000  1.360 O3       
    O1       Shell       8       0.00  -3.733957   0.730  0.000  0.000 O1       
    O2       Shell       8       0.00  -2.870733   0.730  0.000  0.000 O2       
    O3       Shell       8       0.00  -3.330431   0.730  0.000  0.000 O3       
--------------------------------------------------------------------------------


  Lattice summation method               =    Ewald          (3-D)
                                         =    Parry          (2-D)
                                         =    Saunders et al (1-D)
  Accuracy factor for lattice sums       =   12.000


  Analytic derivatives to be used

  Time limit = Infinity

  Maximum range for interatomic potentials =    100000.000000 Angstroms

  General interatomic potentials :

--------------------------------------------------------------------------------
Atom  Types   Potential      Parameter       Value         Units   Cutoffs(Ang)
  1     2                                                            Min /  Max 
--------------------------------------------------------------------------------
Si   c O1   s Buckingham    Buckingham A     1315.2478    eV        0.000 16.000
                            Buckingham rho  0.31775900    Ang       
                            Buckingham C     10.141118    eV*Ang^6  
--------------------------------------------------------------------------------
Si   c O2   s Buckingham    Buckingham A     1315.2478    eV        0.000 16.000
                            Buckingham rho  0.31775900    Ang       
                            Buckingham C     10.141118    eV*Ang^6  
--------------------------------------------------------------------------------
Si   c O3   s Buckingham    Buckingham A     1315.2478    eV        0.000 16.000
                            Buckingham rho  0.31775900    Ang       
                            Buckingham C     10.141118    eV*Ang^6  
--------------------------------------------------------------------------------
Ge   c O1   s Buckingham    Buckingham A     1497.3996    eV        0.000 16.000
                            Buckingham rho  0.32564600    Ang       
                            Buckingham C     16.808599    eV*Ang^6  
--------------------------------------------------------------------------------
Ge   c O2   s Buckingham    Buckingham A     1497.3996    eV        0.000 16.000
                            Buckingham rho  0.32564600    Ang       
                            Buckingham C     16.808599    eV*Ang^6  
--------------------------------------------------------------------------------
Ge   c O3   s Buckingham    Buckingham A     1497.3996    eV        0.000 16.000
                            Buckingham rho  0.32564600    Ang       
                            Buckingham C     16.808599    eV*Ang^6  
--------------------------------------------------------------------------------
O1   s O1   s Buckingham    Buckingham A     22764.000    eV        0.000 16.000
                            Buckingham rho  0.14900000    Ang       
                            Buckingham C     10.937044    eV*Ang^6  
--------------------------------------------------------------------------------
O1   s O2   s Buckingham    Buckingham A     22764.000    eV        0.000 16.000
                            Buckingham rho  0.14900000    Ang       
                            Buckingham C     10.937044    eV*Ang^6  
--------------------------------------------------------------------------------
O1   s O3   s Buckingham    Buckingham A     22764.000    eV        0.000 16.000
                            Buckingham rho  0.14900000    Ang       
                            Buckingham C     10.937044    eV*Ang^6  
--------------------------------------------------------------------------------
O2   s O2   s Buckingham    Buckingham A     22764.000    eV        0.000 16.000
                            Buckingham rho  0.14900000    Ang       
                            Buckingham C     10.937044    eV*Ang^6  
--------------------------------------------------------------------------------
O2   s O3   s Buckingham    Buckingham A     22764.000    eV        0.000 16.000
                            Buckingham rho  0.14900000    Ang       
                            Buckingham C     10.937044    eV*Ang^6  
--------------------------------------------------------------------------------
O3   s O3   s Buckingham    Buckingham A     22764.000    eV        0.000 16.000
                            Buckingham rho  0.14900000    Ang       
                            Buckingham C     10.937044    eV*Ang^6  
--------------------------------------------------------------------------------
O1   c O1   s Spring (c-s)  Spring k 2       180.31577    eV*Ang^-2 0.000  0.800
                            Spring k 4       0.0000000    eV*Ang^-4 
--------------------------------------------------------------------------------
O2   c O2   s Spring (c-s)  Spring k 2       75.969800    eV*Ang^-2 0.000  0.800
                            Spring k 4       0.0000000    eV*Ang^-4 
--------------------------------------------------------------------------------
O3   c O3   s Spring (c-s)  Spring k 2       128.14270    eV*Ang^-2 0.000  0.800
                            Spring k 4       0.0000000    eV*Ang^-4 
--------------------------------------------------------------------------------

  General Three-body potentials :

--------------------------------------------------------------------------------
  Atoms       Potential      Parameter       Value         Units   Cutoffs(Ang)
  1 / 2 / 3                                                          Min /  Max 
--------------------------------------------------------------------------------
Si    core    Harmonic      Three-body cnst  1.2614000    eV*rad^-2 0.000  1.900
O1    shel                  Three-body angl  109.47000    degrees   0.000  1.900
O1    shel                  Three-body k4    0.0000000    eV*rad^-4 0.000  3.500
                            Three-body k3    0.0000000    eV*rad^-3 
--------------------------------------------------------------------------------
Si    core    Harmonic      Three-body cnst  1.2614000    eV*rad^-2 0.000  1.900
O1    shel                  Three-body angl  109.47000    degrees   0.000  1.900
õ(1   shel                  Three-body k4    0.0000000    eV*rad^-4 0.000  3.500
                            Three-body k3    0.0000000    eV*rad^-3 
--------------------------------------------------------------------------------
Si    core    Harmonic      Three-body cnst  1.2614000    eV*rad^-2 0.000  1.900
õ(1   shel                  Three-body angl  109.47000    degrees   0.000  1.900
õ(1   shel                  Three-body k4    0.0000000    eV*rad^-4 0.000  3.500
                            Three-body k3    0.0000000    eV*rad^-3 
--------------------------------------------------------------------------------
Si    core    Harmonic      Three-body cnst  1.2614000    eV*rad^-2 0.000  1.900
O1    shel                  Three-body angl  109.47000    degrees   0.000  1.900
O2    shel                  Three-body k4    0.0000000    eV*rad^-4 0.000  3.500
                            Three-body k3    0.0000000    eV*rad^-3 
--------------------------------------------------------------------------------
Si    core    Harmonic      Three-body cnst  1.2614000    eV*rad^-2 0.000  1.900
O1    shel                  Three-body angl  109.47000    degrees   0.000  1.900
õ(2   shel                  Three-body k4    0.0000000    eV*rad^-4 0.000  3.500
                            Three-body k3    0.0000000    eV*rad^-3 
--------------------------------------------------------------------------------
Si    core    Harmonic      Three-body cnst  1.2614000    eV*rad^-2 0.000  1.900
O2    shel                  Three-body angl  109.47000    degrees   0.000  1.900
õ(1   shel                  Three-body k4    0.0000000    eV*rad^-4 0.000  3.500
                            Three-body k3    0.0000000    eV*rad^-3 
--------------------------------------------------------------------------------
Si    core    Harmonic      Three-body cnst  1.2614000    eV*rad^-2 0.000  1.900
õ(1   shel                  Three-body angl  109.47000    degrees   0.000  1.900
õ(2   shel                  Three-body k4    0.0000000    eV*rad^-4 0.000  3.500
                            Three-body k3    0.0000000    eV*rad^-3 
--------------------------------------------------------------------------------
Si    core    Harmonic      Three-body cnst  1.2614000    eV*rad^-2 0.000  1.900
O2    shel                  Three-body angl  109.47000    degrees   0.000  1.900
O2    shel                  Three-body k4    0.0000000    eV*rad^-4 0.000  3.500
                            Three-body k3    0.0000000    eV*rad^-3 
--------------------------------------------------------------------------------
Si    core    Harmonic      Three-body cnst  1.2614000    eV*rad^-2 0.000  1.900
O2    shel                  Three-body angl  109.47000    degrees   0.000  1.900
õ(2   shel                  Three-body k4    0.0000000    eV*rad^-4 0.000  3.500
                            Three-body k3    0.0000000    eV*rad^-3 
--------------------------------------------------------------------------------
Si    core    Harmonic      Three-body cnst  1.2614000    eV*rad^-2 0.000  1.900
õ(2   shel                  Three-body angl  109.47000    degrees   0.000  1.900
õ(2   shel                  Three-body k4    0.0000000    eV*rad^-4 0.000  3.500
                            Three-body k3    0.0000000    eV*rad^-3 
--------------------------------------------------------------------------------

********************************************************************************
*  Output for configuration   1 : c00046.vasp                                  *
********************************************************************************


  Components of energy : 

--------------------------------------------------------------------------------
  Interatomic potentials     =         752.32384297 eV    
  Three-body potentials      =           0.01616146 eV    
  Monopole - monopole (real) =       -2676.00317478 eV    
  Monopole - monopole (recip)=       -1115.35404472 eV    
  Monopole - monopole (total)=       -3791.35721950 eV    
--------------------------------------------------------------------------------
  Total lattice energy       =       -3039.01721507 eV    
--------------------------------------------------------------------------------
  Total lattice energy       =         -293218.7056 kJ/(mole unit cells)
--------------------------------------------------------------------------------


  Number of variables =      363

  Maximum number of calculations  =          1000
  Maximum Hessian update interval =            10
  Maximum step size               =   0.100000000
  Maximum parameter tolerance     =   0.000010000
  Maximum function  tolerance     =   0.000010000
  Maximum gradient  tolerance     =   0.001000000
  Maximum gradient  component     =   0.010000000

  Symmetry not applied to optimisation

  Cell parameters to be optimised using strains

  Newton-Raphson optimiser to be used

  BFGS hessian update to be used

  Lower half triangular hessian to be used

  Minimiser to switch to RFO
  When gradient norm is less than     0.050000

  Dumpfile to be written after every cycle

  Start of bulk optimisation :

  Cycle:      0 Energy:     -3039.017215  Gnorm:      4.337511  CPU:    0.109
  ** Hessian calculated **
  Cycle:      1 Energy:     -3058.053580  Gnorm:      2.955648  CPU:    0.287
  ** Hessian calculated **
  Cycle:      2 Energy:     -3071.988229  Gnorm:      0.631235  CPU:    0.477
  ** Hessian calculated **
  Cycle:      3 Energy:     -3073.135511  Gnorm:      0.351924  CPU:    0.667
  Cycle:      4 Energy:     -3073.508095  Gnorm:      0.223925  CPU:    0.764
  Cycle:      5 Energy:     -3073.764690  Gnorm:      0.167499  CPU:    0.882
  Cycle:      6 Energy:     -3073.982136  Gnorm:      0.135473  CPU:    0.999
  Cycle:      7 Energy:     -3074.132961  Gnorm:      0.114900  CPU:    1.097
  Cycle:      8 Energy:     -3074.232714  Gnorm:      0.087701  CPU:    1.196
  Cycle:      9 Energy:     -3074.283729  Gnorm:      0.057732  CPU:    1.295
  Cycle:     10 Energy:     -3074.312923  Gnorm:      0.044175  CPU:    1.411
  ** Hessian has required structure
  Cycle:     11 Energy:     -3074.322894  Gnorm:      0.074525  CPU:    1.551
  ** Hessian has required structure
  Cycle:     12 Energy:     -3074.338638  Gnorm:      0.079211  CPU:    1.711
  ** Hessian has wrong structure
  ** Imaginary eigenvectors =   2
  ** Hessian has wrong structure
  ** Imaginary eigenvectors =   2
  Cycle:     13 Energy:     -3074.344059  Gnorm:      0.079204  CPU:    2.290
  ** Hessian has wrong structure
  ** Imaginary eigenvectors =   2
  ** Hessian has wrong structure
  ** Imaginary eigenvectors =   2
  Cycle:     14 Energy:     -3074.350289  Gnorm:      0.079244  CPU:    2.835
  ** Hessian has wrong structure
  ** Imaginary eigenvectors =   2
  ** Hessian has wrong structure
  ** Imaginary eigenvectors =   2
  Cycle:     15 Energy:     -3074.358618  Gnorm:      0.079479  CPU:    3.361
  ** Hessian has wrong structure
  ** Imaginary eigenvectors =   1
  ** Hessian has required structure
  Cycle:     16 Energy:     -3074.483692  Gnorm:      0.068181  CPU:    3.848
  ** Hessian has required structure
  Cycle:     17 Energy:     -3074.606307  Gnorm:      0.054797  CPU:    4.003
  ** Hessian has required structure
  Cycle:     18 Energy:     -3074.766203  Gnorm:      0.029024  CPU:    4.161
  ** Hessian has required structure
  Cycle:     19 Energy:     -3074.799461  Gnorm:      0.039567  CPU:    4.325
  ** Hessian has required structure
  Cycle:     20 Energy:     -3074.848591  Gnorm:      0.040922  CPU:    4.469
  ** Hessian has required structure
  Cycle:     21 Energy:     -3074.874160  Gnorm:      0.034751  CPU:    4.594
  ** Hessian has required structure
  Cycle:     22 Energy:     -3074.893963  Gnorm:      0.030220  CPU:    4.753
  ** Hessian has required structure
  Cycle:     23 Energy:     -3074.918129  Gnorm:      0.026125  CPU:    4.914
  ** Hessian has required structure
  Cycle:     24 Energy:     -3074.943201  Gnorm:      0.031441  CPU:    5.059
  ** Hessian has required structure
  Cycle:     25 Energy:     -3074.963872  Gnorm:      0.028059  CPU:    5.203
  ** Hessian has required structure
  Cycle:     26 Energy:     -3074.994343  Gnorm:      0.022580  CPU:    5.440
  ** Hessian has required structure
  Cycle:     27 Energy:     -3075.015626  Gnorm:      0.019800  CPU:    5.584
  ** Hessian has required structure
  Cycle:     28 Energy:     -3075.022982  Gnorm:      0.012440  CPU:    5.726
  ** Hessian has required structure
  Cycle:     29 Energy:     -3075.025823  Gnorm:      0.005534  CPU:    5.870
  ** Hessian has required structure
  Cycle:     30 Energy:     -3075.027603  Gnorm:      0.004716  CPU:    6.014
  ** Hessian has required structure
  Cycle:     31 Energy:     -3075.028068  Gnorm:      0.002626  CPU:    6.158
  ** Hessian has required structure
  Cycle:     32 Energy:     -3075.028294  Gnorm:      0.003014  CPU:    6.304
  ** Hessian has required structure
  Cycle:     33 Energy:     -3075.028473  Gnorm:      0.002545  CPU:    6.466
  ** Hessian has required structure
  Cycle:     34 Energy:     -3075.028665  Gnorm:      0.001815  CPU:    6.628
  ** Hessian has required structure
  Cycle:     35 Energy:     -3075.028813  Gnorm:      0.001244  CPU:    6.800
  ** Hessian has required structure
  Cycle:     36 Energy:     -3075.028881  Gnorm:      0.000761  CPU:    7.036
  ** Hessian has required structure
  Cycle:     37 Energy:     -3075.028912  Gnorm:      0.000403  CPU:    7.208
  ** Hessian has required structure
  Cycle:     38 Energy:     -3075.028922  Gnorm:      0.000211  CPU:    7.380
  ** Hessian has required structure
  Cycle:     39 Energy:     -3075.028923  Gnorm:      0.000149  CPU:    7.516
  ** Hessian has required structure
  Cycle:     40 Energy:     -3075.028924  Gnorm:      0.000134  CPU:    7.653
  ** Hessian has required structure
  Cycle:     41 Energy:     -3075.028924  Gnorm:      0.000130  CPU:    7.789
  ** Hessian has required structure
  Cycle:     42 Energy:     -3075.028924  Gnorm:      0.000130  CPU:    8.014
  ** Hessian has required structure
  Cycle:     43 Energy:     -3075.028924  Gnorm:      0.000127  CPU:    8.150
  ** Hessian has required structure
  Cycle:     44 Energy:     -3075.028924  Gnorm:      0.000127  CPU:    8.285
  ** Hessian has required structure
  Cycle:     45 Energy:     -3075.028924  Gnorm:      0.000126  CPU:    8.421
  ** Hessian has required structure
  Cycle:     46 Energy:     -3075.028924  Gnorm:      0.000126  CPU:    8.753
  ** Hessian calculated **


  **** Optimisation achieved ****


  Final energy =   -3075.02892380 eV      
  Final Gnorm  =       0.00012627

  Components of energy : 

--------------------------------------------------------------------------------
  Interatomic potentials     =         817.53492714 eV    
  Three-body potentials      =           0.25983546 eV    
  Monopole - monopole (real) =       -2241.33027883 eV    
  Monopole - monopole (recip)=       -1651.49340757 eV    
  Monopole - monopole (total)=       -3892.82368639 eV    
--------------------------------------------------------------------------------
  Total lattice energy       =       -3075.02892380 eV    
--------------------------------------------------------------------------------
  Total lattice energy       =         -296693.2850 kJ/(mole unit cells)
--------------------------------------------------------------------------------

  Final fractional coordinates of atoms :

--------------------------------------------------------------------------------
   No.  Atomic        x           y          z          Radius
        Label       (Frac)      (Frac)     (Frac)       (Angs) 
--------------------------------------------------------------------------------
     1  Ge    c     0.660660    0.294090    0.017440    0.000000
     2  Ge    c     0.178050    0.243846    0.957614    0.000000
     3  Si    c     0.058625    0.958493    0.355616    0.000000
     4  Si    c     0.459044    0.967364    0.356705    0.000000
     5  Si    c     0.956853    0.953652    0.612909    0.000000
     6  Si    c     0.557098    0.967838    0.617680    0.000000
     7  Si    c     0.566368    0.976588    0.110206    0.000000
     8  Si    c     0.958637    0.974092    0.099286    0.000000
     9  Si    c     0.454878    0.970464    0.871606    0.000000
    10  Si    c     0.068334    0.958964    0.858910    0.000000
    11  Si    c     0.175239    0.243977    0.266118    0.000000
    12  Si    c     0.343018    0.679866    0.271089    0.000000
    13  Si    c     0.842267    0.247575    0.705320    0.000000
    14  Si    c     0.672676    0.679080    0.704651    0.000000
    15  Si    c     0.853057    0.650830    0.695182    0.000000
    16  Si    c     0.661539    0.272253    0.709379    0.000000
    17  Si    c     0.162341    0.651972    0.267001    0.000000
    18  Si    c     0.355031    0.276501    0.267441    0.000000
    19  Si    c     0.860686    0.660376    0.997280    0.000000
    20  Si    c     0.361081    0.288519    0.962252    0.000000
    21  Si    c     0.160901    0.647646    0.965957    0.000000
    22  Si    c     0.343292    0.684252    0.968347    0.000000
    23  Si    c     0.679363    0.699123    0.007854    0.000000
    24  Si    c     0.845321    0.262356    0.009960    0.000000
    25  O2    c     0.122336    0.115491    0.353544    0.000000
    26  O2    c     0.393760    0.813589    0.357412    0.000000
    27  O2    c     0.894383    0.112523    0.622262    0.000000
    28  O2    c     0.619368    0.807421    0.618804    0.000000
    29  O2    c     0.909958    0.768927    0.606394    0.000000
    30  O2    c     0.603116    0.153093    0.623780    0.000000
    31  O2    c     0.103090    0.770107    0.352432    0.000000
    32  O2    c     0.416111    0.156036    0.345114    0.000000
    33  O2    c     0.009331    0.974929    0.486471    0.000000
    34  O2    c     0.507578    0.961050    0.487588    0.000000
    35  O2    c     0.997879    0.976759    0.238816    0.000000
    36  O2    c     0.520175    0.933245    0.240792    0.000000
    37  O2    c     0.013653    0.958065    0.735387    0.000000
    38  O2    c     0.495840    0.945681    0.734247    0.000000
    39  O3    c     0.595254    0.176556    0.110613    0.000000
    40  O2    c     0.919992    0.782909    0.076496    0.000000
    41  O2    c     0.424399    0.171096    0.884738    0.000000
    42  O2    c     0.106283    0.766628    0.875846    0.000000
    43  O2    c     0.382857    0.833220    0.880569    0.000000
    44  O3    c     0.136321    0.101902    0.848073    0.000000
    45  O2    c     0.643634    0.853810    0.096550    0.000000
    46  O2    c     0.893447    0.126645    0.097099    0.000000
    47  O2    c     0.513742    0.925829    0.986961    0.000000
    48  O2    c     0.021664    0.018920    0.988496    0.000000
    49  O2    c     0.145172    0.444825    0.285002    0.000000
    50  O2    c     0.373107    0.481368    0.296595    0.000000
    51  O2    c     0.871598    0.444936    0.673190    0.000000
    52  O2    c     0.643159    0.478592    0.687259    0.000000
    53  O2    c     0.266151    0.231160    0.310609    0.000000
    54  O2    c     0.251446    0.694813    0.309997    0.000000
    55  O2    c     0.751045    0.229036    0.666717    0.000000
    56  O2    c     0.763013    0.692244    0.658040    0.000000
    57  O3    c     0.169625    0.181765    0.117863    0.000000
    58  O2    c     0.352342    0.732319    0.120232    0.000000
    59  O2    c     0.849674    0.206530    0.858206    0.000000
    60  O2    c     0.667476    0.738032    0.854858    0.000000
    61  O2    c     0.869115    0.703291    0.844788    0.000000
    62  O3    c     0.647953    0.225705    0.858781    0.000000
    63  O2    c     0.149364    0.703321    0.116753    0.000000
    64  O2    c     0.364842    0.237892    0.114438    0.000000
    65  O3    c     0.639789    0.513865    0.039604    0.000000
    66  O2    c     0.882326    0.457743    0.025604    0.000000
    67  O2    c     0.383146    0.493912    0.941757    0.000000
    68  O3    c     0.136287    0.449418    0.942211    0.000000
    69  O3    c     0.757017    0.259755    0.059954    0.000000
    70  O2    c     0.771479    0.694189    0.041551    0.000000
    71  O3    c     0.275092    0.251448    0.910932    0.000000
    72  O2    c     0.252229    0.675231    0.929271    0.000000
    73  O2    s     0.121332    0.112769    0.344157    0.000000
    74  O2    s     0.395098    0.815213    0.347707    0.000000
    75  O2    s     0.895282    0.110482    0.630630    0.000000
    76  O2    s     0.618652    0.810295    0.628228    0.000000
    77  O2    s     0.908703    0.775563    0.616758    0.000000
    78  O2    s     0.604562    0.146232    0.632439    0.000000
    79  O2    s     0.104903    0.776960    0.343436    0.000000
    80  O2    s     0.413935    0.149180    0.337729    0.000000
    81  O2    s     0.008885    0.970461    0.486139    0.000000
    82  O2    s     0.507665    0.962623    0.487404    0.000000
    83  O2    s     0.000226    0.974348    0.235717    0.000000
    84  O2    s     0.518655    0.942072    0.238653    0.000000
    85  O2    s     0.013679    0.957703    0.736147    0.000000
    86  O2    s     0.497980    0.951126    0.737265    0.000000
    87  O3    s     0.597721    0.166273    0.102961    0.000000
    88  O2    s     0.917480    0.789679    0.069951    0.000000
    89  O2    s     0.420759    0.162658    0.891827    0.000000
    90  O2    s     0.108244    0.774226    0.884094    0.000000
    91  O2    s     0.386135    0.831337    0.889484    0.000000
    92  O3    s     0.132874    0.099290    0.858355    0.000000
    93  O2    s     0.639452    0.849762    0.088163    0.000000
    94  O2    s     0.895204    0.125093    0.087493    0.000000
    95  O2    s     0.512896    0.936370    0.987525    0.000000
    96  O2    s     0.019715    0.007846    0.987032    0.000000
    97  O2    s     0.150190    0.446019    0.281087    0.000000
    98  O2    s     0.367970    0.480554    0.290774    0.000000
    99  O2    s     0.866476    0.446279    0.678976    0.000000
   100  O2    s     0.648284    0.478098    0.691451    0.000000
   101  O2    s     0.266080    0.237383    0.301414    0.000000
   102  O2    s     0.251794    0.688600    0.301277    0.000000
   103  O2    s     0.751443    0.235629    0.675326    0.000000
   104  O2    s     0.762988    0.686343    0.666982    0.000000
   105  O3    s     0.170865    0.192949    0.119546    0.000000
   106  O2    s     0.350380    0.721680    0.120078    0.000000
   107  O2    s     0.848435    0.216705    0.857740    0.000000
   108  O2    s     0.669299    0.727721    0.854772    0.000000
   109  O2    s     0.866523    0.693254    0.845215    0.000000
   110  O3    s     0.650318    0.235828    0.856613    0.000000
   111  O2    s     0.151929    0.692236    0.116943    0.000000
   112  O2    s     0.363413    0.247301    0.114927    0.000000
   113  O3    s     0.645450    0.514431    0.034639    0.000000
   114  O2    s     0.876176    0.459159    0.020914    0.000000
   115  O2    s     0.376727    0.492422    0.946682    0.000000
   116  O3    s     0.142268    0.453457    0.945948    0.000000
   117  O3    s     0.758150    0.262876    0.051259    0.000000
   118  O2    s     0.771284    0.690932    0.032991    0.000000
   119  O3    s     0.276111    0.254732    0.920200    0.000000
   120  O2    s     0.252465    0.673197    0.937527    0.000000
--------------------------------------------------------------------------------

  Final Cartesian lattice vectors (Angstroms) :

       17.028196    0.005991    0.029052
        0.003114    7.596292   -0.018828
        0.017508   -0.025782   10.290525


  Final cell parameters and derivatives :

--------------------------------------------------------------------------------
       a           17.028222 Angstrom     dE/de1(xx)    -0.000128 eV/strain
       b            7.596316 Angstrom     dE/de2(yy)    -0.004808 eV/strain
       c           10.290572 Angstrom     dE/de3(zz)     0.003887 eV/strain
       alpha       90.285519 Degrees      dE/de4(yz)     0.001357 eV/strain
       beta        89.804815 Degrees      dE/de5(xz)    -0.000059 eV/strain
       gamma       89.956598 Degrees      dE/de6(xy)    -0.001917 eV/strain
--------------------------------------------------------------------------------

  Primitive cell volume =          1331.078902 Angs**3

  Density of cell =      1.910223 g/cm**3

  Non-primitive cell volume =          1331.078902 Angs**3


  Final internal derivatives :

--------------------------------------------------------------------------------
   No.  Atomic          a             b             c           Radius
        Label          (eV)          (eV)          (eV)        (eV/Angs)
--------------------------------------------------------------------------------
      1 Ge    c       0.000000      0.000000      0.000000      0.000000
      2 Ge    c       0.003570      0.002673      0.002362      0.000000
      3 Si    c       0.001874      0.000603     -0.000525      0.000000
      4 Si    c      -0.014485      0.001905     -0.001129      0.000000
      5 Si    c      -0.005191     -0.001584      0.000379      0.000000
      6 Si    c       0.010229      0.001358      0.001841      0.000000
      7 Si    c       0.009264      0.004184     -0.001892      0.000000
      8 Si    c      -0.001182     -0.000119      0.001113      0.000000
      9 Si    c      -0.008380      0.001002     -0.002233      0.000000
     10 Si    c       0.003026      0.000055      0.002634      0.000000
     11 Si    c      -0.000268     -0.000948     -0.003220      0.000000
     12 Si    c       0.000744      0.000015      0.000063      0.000000
     13 Si    c      -0.000863      0.000814      0.000653      0.000000
     14 Si    c      -0.000354     -0.000941      0.000635      0.000000
     15 Si    c       0.001001      0.000780     -0.000063      0.000000
     16 Si    c      -0.001905      0.000771      0.000612      0.000000
     17 Si    c       0.000012     -0.001137     -0.001334      0.000000
     18 Si    c       0.000979     -0.000560     -0.000568      0.000000
     19 Si    c      -0.000490     -0.000106     -0.000559      0.000000
     20 Si    c      -0.005074      0.000210      0.000393      0.000000
     21 Si    c      -0.000692     -0.002613     -0.001014      0.000000
     22 Si    c      -0.001915      0.000434     -0.001321      0.000000
     23 Si    c      -0.000019     -0.002869     -0.000533      0.000000
     24 Si    c      -0.002372     -0.000034      0.001178      0.000000
     25 O2    c       0.000729      0.000621     -0.000388      0.000000
     26 O2    c      -0.001061     -0.001333      0.000746      0.000000
     27 O2    c      -0.000476      0.000618     -0.000381      0.000000
     28 O2    c       0.002499     -0.001937     -0.000255      0.000000
     29 O2    c       0.000174      0.000065      0.000485      0.000000
     30 O2    c      -0.000826     -0.000021      0.000004      0.000000
     31 O2    c      -0.000451     -0.000201      0.000480      0.000000
     32 O2    c      -0.000018      0.001047     -0.000396      0.000000
     33 O2    c       0.005404      0.000718     -0.002331      0.000000
     34 O2    c       0.008092     -0.000681      0.002103      0.000000
     35 O2    c      -0.004441      0.000254     -0.001542      0.000000
     36 O2    c      -0.000429     -0.004220      0.002080      0.000000
     37 O2    c      -0.004199     -0.000173     -0.002166      0.000000
     38 O2    c      -0.011804     -0.001195      0.000945      0.000000
     39 O3    c       0.001202      0.002656     -0.000833      0.000000
     40 O2    c      -0.000010      0.000149      0.000008      0.000000
     41 O2    c       0.001563      0.000627      0.000099      0.000000
     42 O2    c       0.002705     -0.002156      0.000698      0.000000
     43 O2    c      -0.003078     -0.001785      0.000528      0.000000
     44 O3    c      -0.000558     -0.000036     -0.001527      0.000000
     45 O2    c       0.003813     -0.000891      0.000179      0.000000
     46 O2    c      -0.001157      0.000822     -0.000756      0.000000
     47 O2    c       0.007788     -0.004289      0.000386      0.000000
     48 O2    c       0.002155      0.000929     -0.000281      0.000000
     49 O2    c       0.001311      0.001676     -0.000824      0.000000
     50 O2    c      -0.000519      0.000257     -0.000469      0.000000
     51 O2    c      -0.000223     -0.001700      0.000526      0.000000
     52 O2    c       0.000706      0.000124      0.000708      0.000000
     53 O2    c      -0.001186      0.000697     -0.001124      0.000000
     54 O2    c      -0.000752     -0.000368     -0.000549      0.000000
     55 O2    c       0.002220      0.000337     -0.000006      0.000000
     56 O2    c      -0.001475     -0.000191      0.000372      0.000000
     57 O3    c       0.003156      0.002206      0.001108      0.000000
     58 O2    c      -0.001206     -0.000863      0.000495      0.000000
     59 O2    c      -0.000813      0.000194     -0.001080      0.000000
     60 O2    c       0.001229     -0.000306      0.001290      0.000000
     61 O2    c      -0.000086     -0.000308      0.000857      0.000000
     62 O3    c       0.002235      0.000894     -0.000523      0.000000
     63 O2    c       0.001363     -0.001282      0.000488      0.000000
     64 O2    c      -0.000998      0.001034     -0.001500      0.000000
     65 O3    c       0.004035      0.003442     -0.003025      0.000000
     66 O2    c      -0.001030     -0.000353     -0.000279      0.000000
     67 O2    c      -0.001921     -0.001608      0.000692      0.000000
     68 O3    c       0.008903      0.000026      0.004077      0.000000
     69 O3    c       0.007044      0.001148     -0.000679      0.000000
     70 O2    c      -0.004270     -0.000319     -0.000562      0.000000
     71 O3    c       0.001158      0.002384      0.003857      0.000000
     72 O2    c       0.001371     -0.000738      0.001670      0.000000
     73 O2    s       0.002627      0.000343     -0.000641      0.000000
     74 O2    s      -0.007850     -0.000965     -0.001074      0.000000
     75 O2    s      -0.003460      0.000480      0.000697      0.000000
     76 O2    s       0.005984     -0.000305      0.000650      0.000000
     77 O2    s      -0.002320     -0.000553      0.000210      0.000000
     78 O2    s       0.004914      0.001180      0.000601      0.000000
     79 O2    s       0.002522     -0.000700     -0.001156      0.000000
     80 O2    s      -0.007180      0.001417     -0.000792      0.000000
     81 O2    s      -0.000915     -0.000172     -0.000319      0.000000
     82 O2    s      -0.000296      0.000610      0.000498      0.000000
     83 O2    s       0.000770     -0.000494      0.000125      0.000000
     84 O2    s      -0.000246     -0.000418      0.000708      0.000000
     85 O2    s       0.000232      0.000353      0.001063      0.000000
     86 O2    s       0.001540      0.000913     -0.000829      0.000000
     87 O3    s       0.005987      0.001189      0.000140      0.000000
     88 O2    s      -0.000547     -0.000310     -0.000433      0.000000
     89 O2    s      -0.007709      0.002172      0.000086      0.000000
     90 O2    s       0.003416     -0.001392      0.001614      0.000000
     91 O2    s      -0.006975     -0.000784      0.000760      0.000000
     92 O3    s       0.004028      0.001342      0.000852      0.000000
     93 O2    s       0.006822     -0.001681      0.000510      0.000000
     94 O2    s      -0.002241      0.000139     -0.000186      0.000000
     95 O2    s      -0.002490      0.000267     -0.002018      0.000000
     96 O2    s      -0.001695     -0.000232      0.000865      0.000000
     97 O2    s       0.003707     -0.000289     -0.001593      0.000000
     98 O2    s      -0.003470     -0.000038     -0.002071      0.000000
     99 O2    s      -0.001221     -0.000166      0.000697      0.000000
    100 O2    s       0.002221      0.000213      0.001147      0.000000
    101 O2    s      -0.000323      0.001015     -0.001722      0.000000
    102 O2    s      -0.000500     -0.001051     -0.002022      0.000000
    103 O2    s       0.000460      0.000521      0.000421      0.000000
    104 O2    s      -0.000864     -0.000370      0.000688      0.000000
    105 O3    s       0.001305      0.001030     -0.000433      0.000000
    106 O2    s      -0.000265     -0.000460     -0.000725      0.000000
    107 O2    s      -0.000694      0.000362      0.000377      0.000000
    108 O2    s       0.000808     -0.000484     -0.000051      0.000000
    109 O2    s      -0.000809     -0.000050      0.000116      0.000000
    110 O3    s      -0.000876     -0.000932     -0.000639      0.000000
    111 O2    s       0.003254     -0.001202     -0.000932      0.000000
    112 O2    s      -0.003295      0.000846     -0.000817      0.000000
    113 O3    s       0.000164     -0.000552     -0.000639      0.000000
    114 O2    s      -0.000604     -0.000507     -0.000909      0.000000
    115 O2    s      -0.004214     -0.000113      0.002360      0.000000
    116 O3    s       0.001699      0.001110      0.000826      0.000000
    117 O3    s      -0.001913     -0.000520     -0.000477      0.000000
    118 O2    s      -0.000648     -0.000411     -0.000830      0.000000
    119 O3    s       0.000889     -0.000284      0.001716      0.000000
    120 O2    s      -0.002499     -0.000870      0.002395      0.000000
--------------------------------------------------------------------------------
  Maximum abs         0.014485      0.004289      0.004077      0.000000
--------------------------------------------------------------------------------


  Born effective charge tensors : 

-------------------------------------------------------------------------------
  Atom             x           y             z
-------------------------------------------------------------------------------
    1 Ge    x       4.0550      0.3318     -0.1643
            y       0.3436      4.1907     -0.2486
            z      -0.2336     -0.0320      3.3163
-------------------------------------------------------------------------------
    2 Ge    x       3.9816      0.4529      0.2099
            y       0.1036      4.1698      0.3125
            z       0.1823      0.0778      3.3579
-------------------------------------------------------------------------------
    3 Si    x       3.4776     -0.1307     -0.2138
            y       0.0846      3.2310     -0.0061
            z      -0.4633      0.0556      3.8157
-------------------------------------------------------------------------------
    4 Si    x       3.4601     -0.1234      0.2322
            y       0.1209      3.2388     -0.0446
            z       0.4921      0.0152      3.7929
-------------------------------------------------------------------------------
    5 Si    x       3.4752      0.0917     -0.1749
            y      -0.0952      3.2324      0.0127
            z      -0.5420     -0.1078      3.7810
-------------------------------------------------------------------------------
    6 Si    x       3.4833      0.0757      0.2101
            y      -0.0997      3.2232      0.0092
            z       0.4702     -0.0265      3.8124
-------------------------------------------------------------------------------
    7 Si    x       3.5440      0.3896     -0.2172
            y      -0.0956      3.5041      0.0418
            z      -0.5329     -0.1216      3.1587
-------------------------------------------------------------------------------
    8 Si    x       3.4660      0.1231      0.2829
            y      -0.1584      3.2507      0.0420
            z       0.4664     -0.0078      3.1345
-------------------------------------------------------------------------------
    9 Si    x       3.4292     -0.1738     -0.2653
            y       0.2095      3.2300      0.0011
            z      -0.4827      0.0506      3.1215
-------------------------------------------------------------------------------
   10 Si    x       3.6913      0.0413      0.1639
            y       0.3275      3.3900     -0.0685
            z       0.5845      0.0274      3.1381
-------------------------------------------------------------------------------
   11 Si    x       3.2939      0.3426     -0.0705
            y       0.1993      3.5757     -0.0955
            z      -0.1250      0.0427      3.0893
-------------------------------------------------------------------------------
   12 Si    x       3.2137      0.3127      0.1170
            y       0.1714      3.4620      0.1639
            z       0.1207      0.0576      2.8075
-------------------------------------------------------------------------------
   13 Si    x       3.1985     -0.3159     -0.0959
            y      -0.1794      3.4798      0.1631
            z      -0.1296      0.0795      2.8094
-------------------------------------------------------------------------------
   14 Si    x       3.2374     -0.3130      0.1071
            y      -0.1927      3.4520     -0.1751
            z       0.1371     -0.0405      2.7895
-------------------------------------------------------------------------------
   15 Si    x       3.2032      0.2492     -0.0718
            y       0.2596      3.4356     -0.1946
            z      -0.0976     -0.0607      2.8091
-------------------------------------------------------------------------------
   16 Si    x       3.3032      0.2754     -0.0054
            y       0.2966      3.5419      0.1142
            z       0.0679      0.0001      3.1083
-------------------------------------------------------------------------------
   17 Si    x       3.2255     -0.2489     -0.0555
            y      -0.2848      3.4478      0.2024
            z      -0.1120      0.0469      2.7973
-------------------------------------------------------------------------------
   18 Si    x       3.2032     -0.2506      0.0308
            y      -0.2909      3.4575     -0.1705
            z       0.1308     -0.0898      2.8063
-------------------------------------------------------------------------------
   19 Si    x       3.2912      0.2691      0.1324
            y       0.2417      3.3790      0.1651
            z       0.1935      0.0565      2.7435
-------------------------------------------------------------------------------
   20 Si    x       3.5901     -0.2164      0.0235
            y      -0.2188      3.4934      0.2070
            z      -0.1087      0.0700      2.7989
-------------------------------------------------------------------------------
   21 Si    x       3.3751     -0.1833      0.1896
            y      -0.0937      3.7129     -0.1395
            z       0.2183      0.0044      2.8049
-------------------------------------------------------------------------------
   22 Si    x       3.2119      0.3849     -0.1605
            y       0.0650      3.4245     -0.1835
            z      -0.1193     -0.0805      2.7476
-------------------------------------------------------------------------------
   23 Si    x       3.3537     -0.2792     -0.1999
            y       0.0842      3.7120      0.0943
            z      -0.1561      0.0229      2.8198
-------------------------------------------------------------------------------
   24 Si    x       3.5898     -0.3272      0.0263
            y      -0.1021      3.5111     -0.2191
            z       0.0596     -0.0763      2.8290
-------------------------------------------------------------------------------
   25 O2    x      -1.7720     -0.7257      0.3078
            y      -0.7471     -1.9428      0.3166
            z       0.3603      0.3058     -1.3446
-------------------------------------------------------------------------------
   26 O2    x      -1.7539     -0.7176     -0.3153
            y      -0.7524     -1.9355     -0.3244
            z      -0.3600     -0.3237     -1.3530
-------------------------------------------------------------------------------
   27 O2    x      -1.7479      0.7358      0.3269
            y       0.7581     -1.9804     -0.3648
            z       0.3772     -0.3309     -1.3428
-------------------------------------------------------------------------------
   28 O2    x      -1.7647      0.7337     -0.3285
            y       0.7477     -1.9365      0.3328
            z      -0.3645      0.3178     -1.3547
-------------------------------------------------------------------------------
   29 O2    x      -1.6510     -0.7041      0.3012
            y      -0.6626     -1.9772      0.3024
            z       0.3591      0.3115     -1.3675
-------------------------------------------------------------------------------
   30 O2    x      -1.6811     -0.7147     -0.3041
            y      -0.6770     -2.0032     -0.3187
            z      -0.3574     -0.3184     -1.3475
-------------------------------------------------------------------------------
   31 O2    x      -1.6653      0.7206      0.3232
            y       0.6731     -2.0026     -0.3281
            z       0.3624     -0.3185     -1.3596
-------------------------------------------------------------------------------
   32 O2    x      -1.6663      0.7184     -0.3169
            y       0.6846     -2.0293      0.3519
            z      -0.3751      0.3484     -1.3429
-------------------------------------------------------------------------------
   33 O2    x      -1.6756     -0.0078      0.8477
            y      -0.0121     -1.0869      0.0135
            z       1.0995      0.0262     -2.7360
-------------------------------------------------------------------------------
   34 O2    x      -1.6527      0.0064     -0.8568
            y      -0.0032     -1.0806      0.0061
            z      -1.0787      0.0050     -2.7822
-------------------------------------------------------------------------------
   35 O2    x      -1.6844      0.0288     -0.7397
            y       0.0341     -1.1141      0.0250
            z      -0.7000      0.0412     -2.2871
-------------------------------------------------------------------------------
   36 O2    x      -1.7050     -0.0250      0.6922
            y       0.0007     -1.1287      0.0233
            z       0.7003      0.0321     -2.1850
-------------------------------------------------------------------------------
   37 O2    x      -1.7531      0.0097     -0.7356
            y      -0.0012     -1.1093      0.0240
            z      -0.7310      0.0263     -2.1933
-------------------------------------------------------------------------------
   38 O2    x      -1.6882      0.0245      0.7295
            y      -0.0121     -1.1167     -0.0144
            z       0.7044     -0.0218     -2.2543
-------------------------------------------------------------------------------
   39 O3    x      -1.9038     -0.8648      0.3889
            y      -0.7451     -2.5760      0.3893
            z       0.4370      0.3795     -1.4052
-------------------------------------------------------------------------------
   40 O2    x      -1.6952     -0.7102     -0.3680
            y      -0.6187     -2.0176     -0.3910
            z      -0.3851     -0.3725     -1.2430
-------------------------------------------------------------------------------
   41 O2    x      -1.6328      0.6730      0.3254
            y       0.5455     -2.0413     -0.3453
            z       0.3448     -0.3290     -1.2262
-------------------------------------------------------------------------------
   42 O2    x      -1.6657      0.6413     -0.3666
            y       0.5782     -1.9233      0.4025
            z      -0.3914      0.3449     -1.2920
-------------------------------------------------------------------------------
   43 O2    x      -1.7635     -0.7102      0.3464
            y      -0.6687     -1.9127      0.3745
            z       0.3431      0.3481     -1.2563
-------------------------------------------------------------------------------
   44 O3    x      -2.1593     -0.9532     -0.3451
            y      -0.9131     -2.2600     -0.3995
            z      -0.3532     -0.3435     -1.4571
-------------------------------------------------------------------------------
   45 O2    x      -1.8267      0.6224      0.3527
            y       0.6292     -1.8110     -0.3759
            z       0.3467     -0.3115     -1.2833
-------------------------------------------------------------------------------
   46 O2    x      -1.7476      0.7072     -0.3382
            y       0.6784     -1.9257      0.3462
            z      -0.3320      0.3251     -1.2572
-------------------------------------------------------------------------------
   47 O2    x      -1.7681      0.0176     -0.5809
            y       0.0201     -1.1923      0.0009
            z      -0.3245      0.0019     -1.7193
-------------------------------------------------------------------------------
   48 O2    x      -1.7638     -0.0014      0.5582
            y      -0.0112     -1.2310     -0.0424
            z       0.2889     -0.0576     -1.7155
-------------------------------------------------------------------------------
   49 O2    x      -1.1888      0.0443      0.0387
            y       0.1056     -2.5979      0.0221
            z       0.0636      0.0379     -1.0492
-------------------------------------------------------------------------------
   50 O2    x      -1.1705      0.0556     -0.0520
            y       0.1024     -2.5603     -0.0109
            z      -0.0767     -0.0101     -1.0660
-------------------------------------------------------------------------------
   51 O2    x      -1.1669     -0.0371      0.0570
            y      -0.0859     -2.5554      0.0540
            z       0.0762      0.0152     -1.0647
-------------------------------------------------------------------------------
   52 O2    x      -1.1949     -0.0573     -0.0410
            y      -0.0896     -2.5847     -0.0061
            z      -0.0667     -0.0010     -1.0488
-------------------------------------------------------------------------------
   53 O2    x      -2.3983     -0.0951      0.0233
            y      -0.0568     -1.2600      0.0695
            z       0.0116      0.0434     -1.0791
-------------------------------------------------------------------------------
   54 O2    x      -2.4132     -0.0881     -0.0206
            y      -0.0370     -1.2407     -0.0709
            z       0.0035     -0.0368     -1.0767
-------------------------------------------------------------------------------
   55 O2    x      -2.4160      0.0830     -0.0129
            y       0.0256     -1.2613     -0.0645
            z      -0.0266     -0.0408     -1.0678
-------------------------------------------------------------------------------
   56 O2    x      -2.4068      0.0925      0.0352
            y       0.0509     -1.2367      0.0672
            z       0.0296      0.0333     -1.0809
-------------------------------------------------------------------------------
   57 O3    x      -1.3238     -0.1592     -0.0554
            y      -0.0962     -1.4851     -0.0783
            z      -0.0166     -0.0771     -2.5936
-------------------------------------------------------------------------------
   58 O2    x      -1.1749     -0.1341      0.0324
            y      -0.0762     -1.2871      0.0018
            z       0.0127      0.0167     -2.0716
-------------------------------------------------------------------------------
   59 O2    x      -1.1736      0.1146     -0.0872
            y       0.0669     -1.3086     -0.0381
            z      -0.0601     -0.0304     -2.0878
-------------------------------------------------------------------------------
   60 O2    x      -1.2019      0.1297     -0.0070
            y       0.0761     -1.2808     -0.0522
            z      -0.0372     -0.0759     -2.0753
-------------------------------------------------------------------------------
   61 O2    x      -1.2014     -0.1300     -0.0593
            y      -0.1176     -1.2754     -0.0234
            z      -0.0715     -0.0118     -2.0724
-------------------------------------------------------------------------------
   62 O3    x      -1.3543     -0.1642      0.0953
            y      -0.1500     -1.4568      0.0584
            z       0.0749     -0.0026     -2.6075
-------------------------------------------------------------------------------
   63 O2    x      -1.2178      0.1322     -0.0334
            y       0.1154     -1.2778      0.0225
            z      -0.0380      0.0177     -2.0632
-------------------------------------------------------------------------------
   64 O2    x      -1.1935      0.1143      0.0818
            y       0.1079     -1.2927      0.0183
            z       0.0874      0.0394     -2.0889
-------------------------------------------------------------------------------
   65 O3    x      -1.4481     -0.1911      0.1294
            y      -0.2753     -3.0963      0.1050
            z       0.1559      0.1219     -1.1555
-------------------------------------------------------------------------------
   66 O2    x      -1.2376     -0.0342     -0.0748
            y      -0.0986     -2.5067      0.0579
            z      -0.0991      0.0340     -1.0272
-------------------------------------------------------------------------------
   67 O2    x      -1.2533      0.0939      0.0801
            y       0.1696     -2.4794     -0.0098
            z       0.1071     -0.0212     -1.0273
-------------------------------------------------------------------------------
   68 O3    x      -1.4186     -0.0222     -0.1049
            y       0.0635     -3.1313     -0.0890
            z      -0.1301     -0.0700     -1.1283
-------------------------------------------------------------------------------
   69 O3    x      -3.0771      0.1122      0.1323
            y       0.0616     -1.3740      0.0820
            z       0.1214      0.0318     -1.2131
-------------------------------------------------------------------------------
   70 O2    x      -2.4417      0.1502      0.0352
            y       0.0952     -1.2385     -0.0563
            z       0.0273     -0.0297     -1.0611
-------------------------------------------------------------------------------
   71 O3    x      -3.0265     -0.1984     -0.1124
            y      -0.1425     -1.3911     -0.1016
            z      -0.1195     -0.0531     -1.2172
-------------------------------------------------------------------------------
   72 O2    x      -2.4665     -0.0933     -0.0147
            y      -0.0365     -1.2324      0.0544
            z      -0.0207      0.0188     -1.0606
-------------------------------------------------------------------------------




  Elastic Constant Matrix: (Units=GPa)

-------------------------------------------------------------------------------
  Indices      1         2         3         4         5         6    
-------------------------------------------------------------------------------
       1     59.3137   31.0934   36.3926   -1.7226    1.9436   -1.7023
       2     31.0934   81.1215   27.1393   -2.0613    3.2917   -0.3881
       3     36.3926   27.1393   63.0401   -0.4225    0.8507   -1.4205
       4     -1.7226   -2.0613   -0.4225   13.0977    0.2136   -0.7081
       5      1.9436    3.2917    0.8507    0.2136   25.8361   -1.7636
       6     -1.7023   -0.3881   -1.4205   -0.7081   -1.7636   27.4965
-------------------------------------------------------------------------------


  Elastic Compliance Matrix: (Units=1/GPa)

-------------------------------------------------------------------------------
  Indices      1         2         3         4         5         6    
-------------------------------------------------------------------------------
       1    0.028791 -0.006298 -0.013860  0.002416 -0.000860  0.000985
       2   -0.006298  0.015907 -0.003190  0.001576 -0.001487 -0.000385
       3   -0.013860 -0.003190  0.025228 -0.001500  0.000658  0.000404
       4    0.002416  0.001576 -0.001500  0.076990 -0.000831  0.002024
       5   -0.000860 -0.001487  0.000658 -0.000831  0.039112  0.002447
       6    0.000985 -0.000385  0.000404  0.002024  0.002447  0.036654
-------------------------------------------------------------------------------

  Mechanical properties :

-------------------------------------------------------------------------------
  Convention :                    Reuss         Voigt         Hill
-------------------------------------------------------------------------------
  Bulk  Modulus (GPa)     =      43.04780      43.63624      43.34202
  Shear Modulus (GPa)     =      18.04266      20.54272      19.29269
-------------------------------------------------------------------------------
  Velocity S-wave (km/s)  =       3.07332       3.27934       3.17800
  Velocity P-wave (km/s)  =       5.92699       6.09773       6.01297
-------------------------------------------------------------------------------
  Compressibility (1/GPa) =    0.02322999
-------------------------------------------------------------------------------
  Stress axis :                     x             y             z
-------------------------------------------------------------------------------
  Youngs Moduli (GPa)     =      34.73265      62.86542      39.63883
-------------------------------------------------------------------------------
  Poissons Ratio (x)      =                     0.39591       0.54939
  Poissons Ratio (y)      =       0.21874                     0.12647
  Poissons Ratio (z)      =       0.48139       0.20057
-------------------------------------------------------------------------------


  Piezoelectric Strain Matrix: (Units=C/m**2)

-------------------------------------------------------------------------------
  Indices      1         2         3         4         5         6    
-------------------------------------------------------------------------------
       x     0.18865  -0.12130  -0.28090   0.26633   0.01076   0.01007
       y     0.09405   0.93372  -0.15043   0.05976   0.42680   0.14308
       z     0.07261  -0.20191   0.63644  -0.14185   0.16991   0.05124
-------------------------------------------------------------------------------


  Piezoelectric Stress Matrix: (Units=10**-11 C/N)

-------------------------------------------------------------------------------
  Indices      1         2         3         4         5         6    
-------------------------------------------------------------------------------
       x     1.07325  -0.18216  -0.97024   2.12020   0.00575   0.10535
       y    -0.11694   1.41447  -0.78283   0.64597   1.54250   0.60821
       z    -0.58973  -0.61955   1.60391  -1.20561   0.75457   0.24131
-------------------------------------------------------------------------------


  Static dielectric constant tensor : 

-------------------------------------------------------------------------------
              x         y         z
-------------------------------------------------------------------------------
       x     3.86459   0.06944  -0.02814
       y     0.06944   4.03431  -0.03574
       z    -0.02814  -0.03574   3.17635
--------------------------------------------------------------------------------

  High frequency dielectric constant tensor : 

-------------------------------------------------------------------------------
              x         y         z
-------------------------------------------------------------------------------
       x     1.68948  -0.00015   0.00042
       y    -0.00015   1.69615  -0.00047
       z     0.00042  -0.00047   1.62957
-------------------------------------------------------------------------------

  Static refractive indices : 

-------------------------------------------------------------------------------
    1 =    1.78155      2 =    1.95962      3 =    2.01524
-------------------------------------------------------------------------------

  High frequency refractive indices : 

-------------------------------------------------------------------------------
    1 =    1.27655      2 =    1.29980      3 =    1.30237
-------------------------------------------------------------------------------


  Time to end of optimisation =       9.1938 seconds


  Peak dynamic memory used =       5.01 MB 


  Timing analysis for GULP :

--------------------------------------------------------------------------------
  Task / Subroutine                                          Time (Seconds)
--------------------------------------------------------------------------------
  Calculation of reciprocal space energy and derivatives          0.5876
  Calculation of real space energy and derivatives                5.6903
  Calculation of three-body energy and derivatives                0.6065
  Calculation and manipulation of Hessian matrix                  2.7825
  Calculation of matrix inversion                                 0.0277
  Global summation overhead                                       0.0001
--------------------------------------------------------------------------------
  Total CPU time                                                  9.1938
--------------------------------------------------------------------------------


  Dump file written as c00046.vasp.grs
  CIF file written as c00046.vasp.cif


  Job Finished at 10:54.05  7th October    2025                               

