********************************************************************************
*                       GENERAL UTILITY LATTICE PROGRAM                        *
*                                 Julian Gale                                  *
*                       Curtin Institute for Computation                       *
*                    School of Molecular and Life Sciences                     *
*                    Curtin University, Western Australia                      *
********************************************************************************
* Version = 6.1.2 * Last modified =   3rd November 2022                        *
********************************************************************************
*  optimise     - perform optimisation run                                     *
*  conp         - constant pressure calculation                                *
*  property     - calculate properties for final geometry                      *
********************************************************************************

  Job Started  at 10:53.38  7th October    2025                               

  Number of CPUs =     1


  Total number of configurations input =      1

********************************************************************************
*  Input for Configuration =   1 : c00044.vasp                                 *
********************************************************************************

  Formula = Ge2Si22O48                                                  

  Number of irreducible atoms/shells =     120


  Total number atoms/shells =     120

  Dimensionality = 3               :  Bulk   



  Cartesian lattice vectors (Angstroms) :

       17.182800    0.000000    0.000000
        0.000000    7.513760    0.000000
        0.000000    0.000000   10.447700

  Cell parameters (Angstroms/Degrees):

  a =      17.1828    alpha =  90.0000
  b =       7.5138    beta  =  90.0000
  c =      10.4477    gamma =  90.0000

  Initial cell volume =        1348.875752 Angs**3

  Temperature of configuration =   0.00     K 

  Pressure of configuration =         0.000 GPa 

  Fractional coordinates of asymmetric unit :

--------------------------------------------------------------------------------
   No.  Atomic       x           y          z         Charge      Occupancy
        Label      (Frac)      (Frac)     (Frac)        (e)         (Frac)  
--------------------------------------------------------------------------------
      1 Ge    c    0.660660    0.294090    0.017440     4.00000    1.000000    
      2 Ge    c    0.160660 *  0.705910 *  0.982560 *   4.00000    1.000000    
      3 Si    c    0.052090 *  0.000000 *  0.372270 *   4.00000    1.000000    
      4 Si    c    0.447910 *  0.000000 *  0.372270 *   4.00000    1.000000    
      5 Si    c    0.947910 *  0.000000 *  0.627730 *   4.00000    1.000000    
      6 Si    c    0.552090 *  0.000000 *  0.627730 *   4.00000    1.000000    
      7 Si    c    0.556730 *  0.000000 *  0.122130 *   4.00000    1.000000    
      8 Si    c    0.943270 *  0.000000 *  0.122130 *   4.00000    1.000000    
      9 Si    c    0.443270 *  0.000000 *  0.877870 *   4.00000    1.000000    
     10 Si    c    0.056730 *  0.000000 *  0.877870 *   4.00000    1.000000    
     11 Si    c    0.160190 *  0.293910 *  0.273440 *   4.00000    1.000000    
     12 Si    c    0.339810 *  0.706090 *  0.273440 *   4.00000    1.000000    
     13 Si    c    0.839810 *  0.293910 *  0.726560 *   4.00000    1.000000    
     14 Si    c    0.660190 *  0.706090 *  0.726560 *   4.00000    1.000000    
     15 Si    c    0.839810 *  0.706090 *  0.726560 *   4.00000    1.000000    
     16 Si    c    0.660190 *  0.293910 *  0.726560 *   4.00000    1.000000    
     17 Si    c    0.160190 *  0.706090 *  0.273440 *   4.00000    1.000000    
     18 Si    c    0.339810 *  0.293910 *  0.273440 *   4.00000    1.000000    
     19 Si    c    0.839340 *  0.705910 *  0.017440 *   4.00000    1.000000    
     20 Si    c    0.339340 *  0.294090 *  0.982560 *   4.00000    1.000000    
     21 Si    c    0.339340 *  0.705910 *  0.982560 *   4.00000    1.000000    
     22 Si    c    0.160660 *  0.294090 *  0.982560 *   4.00000    1.000000    
     23 Si    c    0.660660 *  0.705910 *  0.017440 *   4.00000    1.000000    
     24 Si    c    0.839340 *  0.294090 *  0.017440 *   4.00000    1.000000    
     25 O2    c    0.106570 *  0.174340 *  0.366200 *   0.87073    1.000000    
     26 O2    c    0.393430 *  0.825660 *  0.366200 *   0.87073    1.000000    
     27 O2    c    0.893430 *  0.174340 *  0.633800 *   0.87073    1.000000    
     28 O2    c    0.606570 *  0.825660 *  0.633800 *   0.87073    1.000000    
     29 O2    c    0.893430 *  0.825660 *  0.633800 *   0.87073    1.000000    
     30 O2    c    0.606570 *  0.174340 *  0.633800 *   0.87073    1.000000    
     31 O2    c    0.106570 *  0.825660 *  0.366200 *   0.87073    1.000000    
     32 O2    c    0.393430 *  0.174340 *  0.366200 *   0.87073    1.000000    
     33 O2    c    0.000000 *  0.000000 *  0.500000 *   0.87073    1.000000    
     34 O2    c    0.500000 *  0.000000 *  0.500000 *   0.87073    1.000000    
     35 O2    c    0.994520 *  0.000000 *  0.250840 *   0.87073    1.000000    
     36 O2    c    0.505480 *  0.000000 *  0.250840 *   0.87073    1.000000    
     37 O2    c    0.005480 *  0.000000 *  0.749160 *   0.87073    1.000000    
     38 O2    c    0.494520 *  0.000000 *  0.749160 *   0.87073    1.000000    
     39 O3    c    0.610230 *  0.175520 *  0.115390 *   1.33043    1.000000    
     40 O2    c    0.889770 *  0.824480 *  0.115390 *   0.87073    1.000000    
     41 O2    c    0.389770 *  0.175520 *  0.884610 *   0.87073    1.000000    
     42 O3    c    0.110230 *  0.824480 *  0.884610 *   1.33043    1.000000    
     43 O2    c    0.389770 *  0.824480 *  0.884610 *   0.87073    1.000000    
     44 O2    c    0.110230 *  0.175520 *  0.884610 *   0.87073    1.000000    
     45 O2    c    0.610230 *  0.824480 *  0.115390 *   0.87073    1.000000    
     46 O2    c    0.889770 *  0.175520 *  0.115390 *   0.87073    1.000000    
     47 O2    c    0.500000 *  0.000000 *  0.000000 *   0.87073    1.000000    
     48 O2    c    0.000000 *  0.000000 *  0.000000 *   0.87073    1.000000    
     49 O2    c    0.151750 *  0.500000 *  0.313330 *   0.87073    1.000000    
     50 O2    c    0.348250 *  0.500000 *  0.313330 *   0.87073    1.000000    
     51 O2    c    0.848250 *  0.500000 *  0.686670 *   0.87073    1.000000    
     52 O2    c    0.651750 *  0.500000 *  0.686670 *   0.87073    1.000000    
     53 O2    c    0.250000 *  0.234950 *  0.285720 *   0.87073    1.000000    
     54 O2    c    0.250000 *  0.765050 *  0.285720 *   0.87073    1.000000    
     55 O2    c    0.750000 *  0.234950 *  0.714280 *   0.87073    1.000000    
     56 O2    c    0.750000 *  0.765050 *  0.714280 *   0.87073    1.000000    
     57 O2    c    0.131410 *  0.268650 *  0.127790 *   0.87073    1.000000    
     58 O2    c    0.368590 *  0.731350 *  0.127790 *   0.87073    1.000000    
     59 O2    c    0.868590 *  0.268650 *  0.872210 *   0.87073    1.000000    
     60 O2    c    0.631410 *  0.731350 *  0.872210 *   0.87073    1.000000    
     61 O2    c    0.868590 *  0.731350 *  0.872210 *   0.87073    1.000000    
     62 O3    c    0.631410 *  0.268650 *  0.872210 *   1.33043    1.000000    
     63 O3    c    0.131410 *  0.731350 *  0.127790 *   1.33043    1.000000    
     64 O2    c    0.368590 *  0.268650 *  0.127790 *   0.87073    1.000000    
     65 O3    c    0.653920 *  0.500000 *  0.058200 *   1.33043    1.000000    
     66 O2    c    0.846080 *  0.500000 *  0.058200 *   0.87073    1.000000    
     67 O2    c    0.346080 *  0.500000 *  0.941800 *   0.87073    1.000000    
     68 O3    c    0.153920 *  0.500000 *  0.941800 *   1.33043    1.000000    
     69 O3    c    0.750000 *  0.231060 *  0.027050 *   1.33043    1.000000    
     70 O2    c    0.750000 *  0.768940 *  0.027050 *   0.87073    1.000000    
     71 O2    c    0.250000 *  0.231060 *  0.972950 *   0.87073    1.000000    
     72 O3    c    0.250000 *  0.768940 *  0.972950 *   1.33043    1.000000    
     73 O2    s    0.106570 *  0.174340 *  0.366200 *  -2.87073    1.000000    
     74 O2    s    0.393430 *  0.825660 *  0.366200 *  -2.87073    1.000000    
     75 O2    s    0.893430 *  0.174340 *  0.633800 *  -2.87073    1.000000    
     76 O2    s    0.606570 *  0.825660 *  0.633800 *  -2.87073    1.000000    
     77 O2    s    0.893430 *  0.825660 *  0.633800 *  -2.87073    1.000000    
     78 O2    s    0.606570 *  0.174340 *  0.633800 *  -2.87073    1.000000    
     79 O2    s    0.106570 *  0.825660 *  0.366200 *  -2.87073    1.000000    
     80 O2    s    0.393430 *  0.174340 *  0.366200 *  -2.87073    1.000000    
     81 O2    s    0.000000 *  0.000000 *  0.500000 *  -2.87073    1.000000    
     82 O2    s    0.500000 *  0.000000 *  0.500000 *  -2.87073    1.000000    
     83 O2    s    0.994520 *  0.000000 *  0.250840 *  -2.87073    1.000000    
     84 O2    s    0.505480 *  0.000000 *  0.250840 *  -2.87073    1.000000    
     85 O2    s    0.005480 *  0.000000 *  0.749160 *  -2.87073    1.000000    
     86 O2    s    0.494520 *  0.000000 *  0.749160 *  -2.87073    1.000000    
     87 O3    s    0.610230 *  0.175520 *  0.115390 *  -3.33043    1.000000    
     88 O2    s    0.889770 *  0.824480 *  0.115390 *  -2.87073    1.000000    
     89 O2    s    0.389770 *  0.175520 *  0.884610 *  -2.87073    1.000000    
     90 O3    s    0.110230 *  0.824480 *  0.884610 *  -3.33043    1.000000    
     91 O2    s    0.389770 *  0.824480 *  0.884610 *  -2.87073    1.000000    
     92 O2    s    0.110230 *  0.175520 *  0.884610 *  -2.87073    1.000000    
     93 O2    s    0.610230 *  0.824480 *  0.115390 *  -2.87073    1.000000    
     94 O2    s    0.889770 *  0.175520 *  0.115390 *  -2.87073    1.000000    
     95 O2    s    0.500000 *  0.000000 *  0.000000 *  -2.87073    1.000000    
     96 O2    s    0.000000 *  0.000000 *  0.000000 *  -2.87073    1.000000    
     97 O2    s    0.151750 *  0.500000 *  0.313330 *  -2.87073    1.000000    
     98 O2    s    0.348250 *  0.500000 *  0.313330 *  -2.87073    1.000000    
     99 O2    s    0.848250 *  0.500000 *  0.686670 *  -2.87073    1.000000    
    100 O2    s    0.651750 *  0.500000 *  0.686670 *  -2.87073    1.000000    
    101 O2    s    0.250000 *  0.234950 *  0.285720 *  -2.87073    1.000000    
    102 O2    s    0.250000 *  0.765050 *  0.285720 *  -2.87073    1.000000    
    103 O2    s    0.750000 *  0.234950 *  0.714280 *  -2.87073    1.000000    
    104 O2    s    0.750000 *  0.765050 *  0.714280 *  -2.87073    1.000000    
    105 O2    s    0.131410 *  0.268650 *  0.127790 *  -2.87073    1.000000    
    106 O2    s    0.368590 *  0.731350 *  0.127790 *  -2.87073    1.000000    
    107 O2    s    0.868590 *  0.268650 *  0.872210 *  -2.87073    1.000000    
    108 O2    s    0.631410 *  0.731350 *  0.872210 *  -2.87073    1.000000    
    109 O2    s    0.868590 *  0.731350 *  0.872210 *  -2.87073    1.000000    
    110 O3    s    0.631410 *  0.268650 *  0.872210 *  -3.33043    1.000000    
    111 O3    s    0.131410 *  0.731350 *  0.127790 *  -3.33043    1.000000    
    112 O2    s    0.368590 *  0.268650 *  0.127790 *  -2.87073    1.000000    
    113 O3    s    0.653920 *  0.500000 *  0.058200 *  -3.33043    1.000000    
    114 O2    s    0.846080 *  0.500000 *  0.058200 *  -2.87073    1.000000    
    115 O2    s    0.346080 *  0.500000 *  0.941800 *  -2.87073    1.000000    
    116 O3    s    0.153920 *  0.500000 *  0.941800 *  -3.33043    1.000000    
    117 O3    s    0.750000 *  0.231060 *  0.027050 *  -3.33043    1.000000    
    118 O2    s    0.750000 *  0.768940 *  0.027050 *  -2.87073    1.000000    
    119 O2    s    0.250000 *  0.231060 *  0.972950 *  -2.87073    1.000000    
    120 O3    s    0.250000 *  0.768940 *  0.972950 *  -3.33043    1.000000    
--------------------------------------------------------------------------------



********************************************************************************
*  General input information                                                   *
********************************************************************************

  Species output for all configurations : 

--------------------------------------------------------------------------------
  Species    Type    Atomic    Atomic    Charge       Radii (Angs)     Library
                     Number     Mass       (e)     Cova   Ionic  VDW   Symbol
--------------------------------------------------------------------------------
    Ge       Core       32      72.61   4.000000   1.170  0.000  1.750 Ge       
    Si       Core       14      28.09   4.000000   1.200  0.000  2.100 Si       
    O1       Core        8      16.00   1.733957   0.730  0.000  0.000 O1       
    O2       Core        8      16.00   0.870733   0.730  0.000  1.360 O2       
    O3       Core        8      16.00   1.330431   0.730  0.000  1.360 O3       
    O1       Shell       8       0.00  -3.733957   0.730  0.000  0.000 O1       
    O2       Shell       8       0.00  -2.870733   0.730  0.000  0.000 O2       
    O3       Shell       8       0.00  -3.330431   0.730  0.000  0.000 O3       
--------------------------------------------------------------------------------


  Lattice summation method               =    Ewald          (3-D)
                                         =    Parry          (2-D)
                                         =    Saunders et al (1-D)
  Accuracy factor for lattice sums       =   12.000


  Analytic derivatives to be used

  Time limit = Infinity

  Maximum range for interatomic potentials =    100000.000000 Angstroms

  General interatomic potentials :

--------------------------------------------------------------------------------
Atom  Types   Potential      Parameter       Value         Units   Cutoffs(Ang)
  1     2                                                            Min /  Max 
--------------------------------------------------------------------------------
Si   c O1   s Buckingham    Buckingham A     1315.2478    eV        0.000 16.000
                            Buckingham rho  0.31775900    Ang       
                            Buckingham C     10.141118    eV*Ang^6  
--------------------------------------------------------------------------------
Si   c O2   s Buckingham    Buckingham A     1315.2478    eV        0.000 16.000
                            Buckingham rho  0.31775900    Ang       
                            Buckingham C     10.141118    eV*Ang^6  
--------------------------------------------------------------------------------
Si   c O3   s Buckingham    Buckingham A     1315.2478    eV        0.000 16.000
                            Buckingham rho  0.31775900    Ang       
                            Buckingham C     10.141118    eV*Ang^6  
--------------------------------------------------------------------------------
Ge   c O1   s Buckingham    Buckingham A     1497.3996    eV        0.000 16.000
                            Buckingham rho  0.32564600    Ang       
                            Buckingham C     16.808599    eV*Ang^6  
--------------------------------------------------------------------------------
Ge   c O2   s Buckingham    Buckingham A     1497.3996    eV        0.000 16.000
                            Buckingham rho  0.32564600    Ang       
                            Buckingham C     16.808599    eV*Ang^6  
--------------------------------------------------------------------------------
Ge   c O3   s Buckingham    Buckingham A     1497.3996    eV        0.000 16.000
                            Buckingham rho  0.32564600    Ang       
                            Buckingham C     16.808599    eV*Ang^6  
--------------------------------------------------------------------------------
O1   s O1   s Buckingham    Buckingham A     22764.000    eV        0.000 16.000
                            Buckingham rho  0.14900000    Ang       
                            Buckingham C     10.937044    eV*Ang^6  
--------------------------------------------------------------------------------
O1   s O2   s Buckingham    Buckingham A     22764.000    eV        0.000 16.000
                            Buckingham rho  0.14900000    Ang       
                            Buckingham C     10.937044    eV*Ang^6  
--------------------------------------------------------------------------------
O1   s O3   s Buckingham    Buckingham A     22764.000    eV        0.000 16.000
                            Buckingham rho  0.14900000    Ang       
                            Buckingham C     10.937044    eV*Ang^6  
--------------------------------------------------------------------------------
O2   s O2   s Buckingham    Buckingham A     22764.000    eV        0.000 16.000
                            Buckingham rho  0.14900000    Ang       
                            Buckingham C     10.937044    eV*Ang^6  
--------------------------------------------------------------------------------
O2   s O3   s Buckingham    Buckingham A     22764.000    eV        0.000 16.000
                            Buckingham rho  0.14900000    Ang       
                            Buckingham C     10.937044    eV*Ang^6  
--------------------------------------------------------------------------------
O3   s O3   s Buckingham    Buckingham A     22764.000    eV        0.000 16.000
                            Buckingham rho  0.14900000    Ang       
                            Buckingham C     10.937044    eV*Ang^6  
--------------------------------------------------------------------------------
O1   c O1   s Spring (c-s)  Spring k 2       180.31577    eV*Ang^-2 0.000  0.800
                            Spring k 4       0.0000000    eV*Ang^-4 
--------------------------------------------------------------------------------
O2   c O2   s Spring (c-s)  Spring k 2       75.969800    eV*Ang^-2 0.000  0.800
                            Spring k 4       0.0000000    eV*Ang^-4 
--------------------------------------------------------------------------------
O3   c O3   s Spring (c-s)  Spring k 2       128.14270    eV*Ang^-2 0.000  0.800
                            Spring k 4       0.0000000    eV*Ang^-4 
--------------------------------------------------------------------------------

  General Three-body potentials :

--------------------------------------------------------------------------------
  Atoms       Potential      Parameter       Value         Units   Cutoffs(Ang)
  1 / 2 / 3                                                          Min /  Max 
--------------------------------------------------------------------------------
Si    core    Harmonic      Three-body cnst  1.2614000    eV*rad^-2 0.000  1.900
O1    shel                  Three-body angl  109.47000    degrees   0.000  1.900
O1    shel                  Three-body k4    0.0000000    eV*rad^-4 0.000  3.500
                            Three-body k3    0.0000000    eV*rad^-3 
--------------------------------------------------------------------------------
Si    core    Harmonic      Three-body cnst  1.2614000    eV*rad^-2 0.000  1.900
O1    shel                  Three-body angl  109.47000    degrees   0.000  1.900
õ(1   shel                  Three-body k4    0.0000000    eV*rad^-4 0.000  3.500
                            Three-body k3    0.0000000    eV*rad^-3 
--------------------------------------------------------------------------------
Si    core    Harmonic      Three-body cnst  1.2614000    eV*rad^-2 0.000  1.900
õ(1   shel                  Three-body angl  109.47000    degrees   0.000  1.900
õ(1   shel                  Three-body k4    0.0000000    eV*rad^-4 0.000  3.500
                            Three-body k3    0.0000000    eV*rad^-3 
--------------------------------------------------------------------------------
Si    core    Harmonic      Three-body cnst  1.2614000    eV*rad^-2 0.000  1.900
O1    shel                  Three-body angl  109.47000    degrees   0.000  1.900
O2    shel                  Three-body k4    0.0000000    eV*rad^-4 0.000  3.500
                            Three-body k3    0.0000000    eV*rad^-3 
--------------------------------------------------------------------------------
Si    core    Harmonic      Three-body cnst  1.2614000    eV*rad^-2 0.000  1.900
O1    shel                  Three-body angl  109.47000    degrees   0.000  1.900
õ(2   shel                  Three-body k4    0.0000000    eV*rad^-4 0.000  3.500
                            Three-body k3    0.0000000    eV*rad^-3 
--------------------------------------------------------------------------------
Si    core    Harmonic      Three-body cnst  1.2614000    eV*rad^-2 0.000  1.900
O2    shel                  Three-body angl  109.47000    degrees   0.000  1.900
õ(1   shel                  Three-body k4    0.0000000    eV*rad^-4 0.000  3.500
                            Three-body k3    0.0000000    eV*rad^-3 
--------------------------------------------------------------------------------
Si    core    Harmonic      Three-body cnst  1.2614000    eV*rad^-2 0.000  1.900
õ(1   shel                  Three-body angl  109.47000    degrees   0.000  1.900
õ(2   shel                  Three-body k4    0.0000000    eV*rad^-4 0.000  3.500
                            Three-body k3    0.0000000    eV*rad^-3 
--------------------------------------------------------------------------------
Si    core    Harmonic      Three-body cnst  1.2614000    eV*rad^-2 0.000  1.900
O2    shel                  Three-body angl  109.47000    degrees   0.000  1.900
O2    shel                  Three-body k4    0.0000000    eV*rad^-4 0.000  3.500
                            Three-body k3    0.0000000    eV*rad^-3 
--------------------------------------------------------------------------------
Si    core    Harmonic      Three-body cnst  1.2614000    eV*rad^-2 0.000  1.900
O2    shel                  Three-body angl  109.47000    degrees   0.000  1.900
õ(2   shel                  Three-body k4    0.0000000    eV*rad^-4 0.000  3.500
                            Three-body k3    0.0000000    eV*rad^-3 
--------------------------------------------------------------------------------
Si    core    Harmonic      Three-body cnst  1.2614000    eV*rad^-2 0.000  1.900
õ(2   shel                  Three-body angl  109.47000    degrees   0.000  1.900
õ(2   shel                  Three-body k4    0.0000000    eV*rad^-4 0.000  3.500
                            Three-body k3    0.0000000    eV*rad^-3 
--------------------------------------------------------------------------------

********************************************************************************
*  Output for configuration   1 : c00044.vasp                                  *
********************************************************************************


  Components of energy : 

--------------------------------------------------------------------------------
  Interatomic potentials     =         752.32384297 eV    
  Three-body potentials      =           0.01616146 eV    
  Monopole - monopole (real) =       -2676.00317478 eV    
  Monopole - monopole (recip)=       -1115.35404472 eV    
  Monopole - monopole (total)=       -3791.35721950 eV    
--------------------------------------------------------------------------------
  Total lattice energy       =       -3039.01721507 eV    
--------------------------------------------------------------------------------
  Total lattice energy       =         -293218.7056 kJ/(mole unit cells)
--------------------------------------------------------------------------------


  Number of variables =      363

  Maximum number of calculations  =          1000
  Maximum Hessian update interval =            10
  Maximum step size               =   0.100000000
  Maximum parameter tolerance     =   0.000010000
  Maximum function  tolerance     =   0.000010000
  Maximum gradient  tolerance     =   0.001000000
  Maximum gradient  component     =   0.010000000

  Symmetry not applied to optimisation

  Cell parameters to be optimised using strains

  Newton-Raphson optimiser to be used

  BFGS hessian update to be used

  Lower half triangular hessian to be used

  Minimiser to switch to RFO
  When gradient norm is less than     0.050000

  Dumpfile to be written after every cycle

  Start of bulk optimisation :

  Cycle:      0 Energy:     -3039.017215  Gnorm:      4.337510  CPU:    0.113
  ** Hessian calculated **
  Cycle:      1 Energy:     -3052.915812  Gnorm:      3.391076  CPU:    0.309
  ** Hessian calculated **
  Cycle:      2 Energy:     -3071.362404  Gnorm:      0.717821  CPU:    0.500
  ** Hessian calculated **
  Cycle:      3 Energy:     -3072.953074  Gnorm:      0.498511  CPU:    0.702
  ** Hessian calculated **
  Cycle:      4 Energy:     -3073.687434  Gnorm:      0.276071  CPU:    0.886
  Cycle:      5 Energy:     -3073.909654  Gnorm:      0.172397  CPU:    0.985
  Cycle:      6 Energy:     -3074.056221  Gnorm:      0.129676  CPU:    1.102
  Cycle:      7 Energy:     -3074.183218  Gnorm:      0.105225  CPU:    1.219
  Cycle:      8 Energy:     -3074.274309  Gnorm:      0.088539  CPU:    1.317
  Cycle:      9 Energy:     -3074.334925  Gnorm:      0.069258  CPU:    1.415
  Cycle:     10 Energy:     -3074.366685  Gnorm:      0.045216  CPU:    1.516
  ** Hessian has required structure
  Cycle:     11 Energy:     -3074.375090  Gnorm:      0.064582  CPU:    1.671
  ** Hessian has required structure
  Cycle:     12 Energy:     -3074.382803  Gnorm:      0.062184  CPU:    1.825
  ** Hessian has required structure
  Cycle:     13 Energy:     -3074.393153  Gnorm:      0.072064  CPU:    1.978
  ** Hessian has wrong structure
  ** Imaginary eigenvectors =   4
  Cycle:     14 Energy:     -3074.419708  Gnorm:      0.071690  CPU:    2.489
  ** Hessian has wrong structure
  ** Imaginary eigenvectors =   4
  Cycle:     15 Energy:     -3074.459629  Gnorm:      0.071525  CPU:    2.959
  ** Hessian has wrong structure
  ** Imaginary eigenvectors =   1
  ** Hessian has required structure
  Cycle:     16 Energy:     -3074.624917  Gnorm:      0.058785  CPU:    3.566
  ** Hessian has required structure
  Cycle:     17 Energy:     -3074.772226  Gnorm:      0.042600  CPU:    3.762
  ** Hessian has required structure
  Cycle:     18 Energy:     -3074.848740  Gnorm:      0.030401  CPU:    3.937
  ** Hessian has required structure
  Cycle:     19 Energy:     -3074.871636  Gnorm:      0.031754  CPU:    4.132
  ** Hessian has required structure
  Cycle:     20 Energy:     -3074.908495  Gnorm:      0.029156  CPU:    4.307
  ** Hessian has required structure
  Cycle:     21 Energy:     -3074.924452  Gnorm:      0.028697  CPU:    4.482
  ** Hessian has required structure
  Cycle:     22 Energy:     -3074.941432  Gnorm:      0.022014  CPU:    4.670
  ** Hessian has required structure
  Cycle:     23 Energy:     -3074.963644  Gnorm:      0.020092  CPU:    4.860
  ** Hessian has required structure
  Cycle:     24 Energy:     -3074.986425  Gnorm:      0.026754  CPU:    5.031
  ** Hessian has required structure
  Cycle:     25 Energy:     -3075.018728  Gnorm:      0.026719  CPU:    5.203
  ** Hessian has required structure
  Cycle:     26 Energy:     -3075.052005  Gnorm:      0.017627  CPU:    5.466
  ** Hessian has required structure
  Cycle:     27 Energy:     -3075.065893  Gnorm:      0.012079  CPU:    5.657
  ** Hessian has required structure
  Cycle:     28 Energy:     -3075.070347  Gnorm:      0.005770  CPU:    5.849
  ** Hessian has required structure
  Cycle:     29 Energy:     -3075.071660  Gnorm:      0.005047  CPU:    6.014
  ** Hessian has required structure
  Cycle:     30 Energy:     -3075.072288  Gnorm:      0.002548  CPU:    6.174
  ** Hessian has required structure
  Cycle:     31 Energy:     -3075.072535  Gnorm:      0.001951  CPU:    6.335
  ** Hessian has required structure
  Cycle:     32 Energy:     -3075.072659  Gnorm:      0.001559  CPU:    6.494
  ** Hessian has required structure
  Cycle:     33 Energy:     -3075.072736  Gnorm:      0.000856  CPU:    6.670
  ** Hessian has required structure
  Cycle:     34 Energy:     -3075.072780  Gnorm:      0.000791  CPU:    6.858
  ** Hessian has required structure
  Cycle:     35 Energy:     -3075.072801  Gnorm:      0.000405  CPU:    7.007
  ** Hessian has required structure
  Cycle:     36 Energy:     -3075.072812  Gnorm:      0.000205  CPU:    7.252
  ** Hessian has required structure
  Cycle:     37 Energy:     -3075.072813  Gnorm:      0.000169  CPU:    7.385
  ** Hessian has required structure
  Cycle:     38 Energy:     -3075.072814  Gnorm:      0.000118  CPU:    7.604
  ** Hessian has required structure
  Cycle:     39 Energy:     -3075.072815  Gnorm:      0.000188  CPU:    7.736
  ** Hessian has required structure
  Cycle:     40 Energy:     -3075.072815  Gnorm:      0.000159  CPU:    7.869
  ** Hessian has required structure
  Cycle:     41 Energy:     -3075.072816  Gnorm:      0.000126  CPU:    8.002
  ** Hessian has required structure
  Cycle:     42 Energy:     -3075.072816  Gnorm:      0.000096  CPU:    8.135
  ** Hessian has required structure
  Cycle:     43 Energy:     -3075.072816  Gnorm:      0.000072  CPU:    8.269
  ** Hessian has required structure


  **** Optimisation achieved ****


  Final energy =   -3075.07281609 eV      
  Final Gnorm  =       0.00005257

  Components of energy : 

--------------------------------------------------------------------------------
  Interatomic potentials     =         817.55419678 eV    
  Three-body potentials      =           0.24233334 eV    
  Monopole - monopole (real) =       -2242.14227413 eV    
  Monopole - monopole (recip)=       -1650.72707208 eV    
  Monopole - monopole (total)=       -3892.86934621 eV    
--------------------------------------------------------------------------------
  Total lattice energy       =       -3075.07281609 eV    
--------------------------------------------------------------------------------
  Total lattice energy       =         -296697.5200 kJ/(mole unit cells)
--------------------------------------------------------------------------------

  Final fractional coordinates of atoms :

--------------------------------------------------------------------------------
   No.  Atomic        x           y          z          Radius
        Label       (Frac)      (Frac)     (Frac)       (Angs) 
--------------------------------------------------------------------------------
     1  Ge    c     0.660660    0.294090    0.017440    0.000000
     2  Ge    c     0.160661    0.725406    0.959862    0.000000
     3  Si    c     0.038813    0.013529    0.357614    0.000000
     4  Si    c     0.438114    0.999475    0.361124    0.000000
     5  Si    c     0.938115    0.020020    0.616177    0.000000
     6  Si    c     0.538812    0.005967    0.619687    0.000000
     7  Si    c     0.550698    0.009335    0.115383    0.000000
     8  Si    c     0.940216    0.011046    0.100453    0.000000
     9  Si    c     0.440214    0.008450    0.876847    0.000000
    10  Si    c     0.050700    0.010162    0.861917    0.000000
    11  Si    c     0.144064    0.316187    0.266595    0.000000
    12  Si    c     0.333221    0.694188    0.278561    0.000000
    13  Si    c     0.833222    0.325307    0.698740    0.000000
    14  Si    c     0.644064    0.703309    0.710706    0.000000
    15  Si    c     0.825224    0.726369    0.701883    0.000000
    16  Si    c     0.653521    0.296886    0.708373    0.000000
    17  Si    c     0.153521    0.722610    0.268928    0.000000
    18  Si    c     0.325224    0.293127    0.275419    0.000000
    19  Si    c     0.828073    0.723612    0.005162    0.000000
    20  Si    c     0.328073    0.295884    0.972140    0.000000
    21  Si    c     0.343960    0.692102    0.972525    0.000000
    22  Si    c     0.145049    0.321739    0.965271    0.000000
    23  Si    c     0.645049    0.697759    0.012031    0.000000
    24  Si    c     0.843960    0.327392    0.004777    0.000000
    25  O2    c     0.086065    0.197002    0.351548    0.000000
    26  O2    c     0.390895    0.816175    0.362709    0.000000
    27  O2    c     0.890896    0.203320    0.614593    0.000000
    28  O2    c     0.586065    0.822495    0.625753    0.000000
    29  O2    c     0.876154    0.859835    0.616382    0.000000
    30  O2    c     0.598872    0.169353    0.622835    0.000000
    31  O2    c     0.098873    0.850143    0.354467    0.000000
    32  O2    c     0.376153    0.159661    0.360921    0.000000
    33  O2    c     0.992389    0.006333    0.491423    0.000000
    34  O2    c     0.492390    0.013162    0.485877    0.000000
    35  O2    c     0.975388    0.000170    0.243375    0.000000
    36  O2    c     0.492964    0.009012    0.235760    0.000000
    37  O2    c     0.992966    0.010484    0.741539    0.000000
    38  O2    c     0.475386    0.019325    0.733925    0.000000
    39  O3    c     0.616596    0.156505    0.127050    0.000000
    40  O2    c     0.869941    0.869827    0.092636    0.000000
    41  O2    c     0.369939    0.149669    0.884665    0.000000
    42  O3    c     0.116598    0.862993    0.850252    0.000000
    43  O2    c     0.408831    0.811813    0.902442    0.000000
    44  O2    c     0.092334    0.199327    0.873591    0.000000
    45  O2    c     0.592333    0.820170    0.103710    0.000000
    46  O2    c     0.908832    0.207683    0.074860    0.000000
    47  O2    c     0.505064    0.060874    0.983024    0.000000
    48  O2    c     0.005065    0.958622    0.994276    0.000000
    49  O2    c     0.124477    0.521637    0.285511    0.000000
    50  O2    c     0.353567    0.491044    0.306272    0.000000
    51  O2    c     0.853565    0.528451    0.671025    0.000000
    52  O2    c     0.624479    0.497860    0.691785    0.000000
    53  O2    c     0.233271    0.275367    0.310393    0.000000
    54  O2    c     0.243505    0.735438    0.318564    0.000000
    55  O2    c     0.743505    0.284051    0.658740    0.000000
    56  O2    c     0.733272    0.744134    0.666911    0.000000
    57  O2    c     0.132081    0.265395    0.115451    0.000000
    58  O2    c     0.344226    0.735457    0.126267    0.000000
    59  O2    c     0.844228    0.284043    0.851034    0.000000
    60  O2    c     0.632079    0.754096    0.861850    0.000000
    61  O2    c     0.837198    0.773157    0.853577    0.000000
    62  O3    c     0.649811    0.234686    0.856512    0.000000
    63  O3    c     0.149814    0.784814    0.120790    0.000000
    64  O2    c     0.337196    0.246333    0.123724    0.000000
    65  O3    c     0.620585    0.500367    0.036338    0.000000
    66  O2    c     0.865969    0.531852    0.029388    0.000000
    67  O2    c     0.365971    0.487643    0.947919    0.000000
    68  O3    c     0.120583    0.519131    0.940969    0.000000
    69  O3    c     0.758512    0.289899    0.060095    0.000000
    70  O2    c     0.737098    0.720058    0.045811    0.000000
    71  O2    c     0.237098    0.299447    0.931488    0.000000
    72  O3    c     0.258512    0.729588    0.917203    0.000000
    73  O2    s     0.087481    0.190702    0.342751    0.000000
    74  O2    s     0.389591    0.822387    0.353246    0.000000
    75  O2    s     0.889591    0.197108    0.624055    0.000000
    76  O2    s     0.587481    0.828795    0.634551    0.000000
    77  O2    s     0.877107    0.862135    0.625920    0.000000
    78  O2    s     0.598418    0.165766    0.631912    0.000000
    79  O2    s     0.098419    0.853730    0.345389    0.000000
    80  O2    s     0.377106    0.157361    0.351382    0.000000
    81  O2    s     0.991391    0.008825    0.490527    0.000000
    82  O2    s     0.491391    0.010671    0.486773    0.000000
    83  O2    s     0.978478    0.002963    0.239607    0.000000
    84  O2    s     0.493569    0.007988    0.235734    0.000000
    85  O2    s     0.993571    0.011508    0.741566    0.000000
    86  O2    s     0.478476    0.016533    0.737693    0.000000
    87  O3    s     0.613519    0.152999    0.116714    0.000000
    88  O2    s     0.872798    0.868659    0.083573    0.000000
    89  O2    s     0.372797    0.150836    0.893728    0.000000
    90  O3    s     0.113521    0.866498    0.860588    0.000000
    91  O2    s     0.405066    0.819616    0.907467    0.000000
    92  O2    s     0.093709    0.192650    0.882561    0.000000
    93  O2    s     0.593708    0.826848    0.094739    0.000000
    94  O2    s     0.905067    0.199879    0.069834    0.000000
    95  O2    s     0.502765    0.049900    0.985212    0.000000
    96  O2    s     0.002766    0.969597    0.992088    0.000000
    97  O2    s     0.129646    0.520691    0.281737    0.000000
    98  O2    s     0.348366    0.491721    0.300023    0.000000
    99  O2    s     0.848365    0.527774    0.677275    0.000000
   100  O2    s     0.629647    0.498806    0.695561    0.000000
   101  O2    s     0.233658    0.281683    0.301974    0.000000
   102  O2    s     0.243615    0.729605    0.309098    0.000000
   103  O2    s     0.743615    0.289886    0.668205    0.000000
   104  O2    s     0.733658    0.737817    0.675329    0.000000
   105  O2    s     0.134684    0.276481    0.115825    0.000000
   106  O2    s     0.343019    0.726440    0.126382    0.000000
   107  O2    s     0.843021    0.293059    0.850919    0.000000
   108  O2    s     0.634683    0.743011    0.861477    0.000000
   109  O2    s     0.834948    0.762945    0.853548    0.000000
   110  O3    s     0.651064    0.245681    0.854833    0.000000
   111  O3    s     0.151067    0.773818    0.122468    0.000000
   112  O2    s     0.334946    0.256547    0.123754    0.000000
   113  O3    s     0.626412    0.504306    0.032261    0.000000
   114  O2    s     0.859758    0.530810    0.024293    0.000000
   115  O2    s     0.359761    0.488685    0.953012    0.000000
   116  O3    s     0.126410    0.515191    0.945045    0.000000
   117  O3    s     0.759334    0.294131    0.050863    0.000000
   118  O2    s     0.737281    0.717992    0.037684    0.000000
   119  O2    s     0.237281    0.301512    0.939616    0.000000
   120  O3    s     0.259334    0.725357    0.926437    0.000000
--------------------------------------------------------------------------------

  Final Cartesian lattice vectors (Angstroms) :

       17.017931   -0.000018   -0.000355
        0.000014    7.622586   -0.010610
        0.000214   -0.015687   10.275441


  Final cell parameters and derivatives :

--------------------------------------------------------------------------------
       a           17.017931 Angstrom     dE/de1(xx)     0.001521 eV/strain
       b            7.622594 Angstrom     dE/de2(yy)    -0.000319 eV/strain
       c           10.275453 Angstrom     dE/de3(zz)    -0.009611 eV/strain
       alpha       90.167222 Degrees      dE/de4(yz)    -0.000778 eV/strain
       beta        90.000000 Degrees      dE/de5(xz)    -0.000101 eV/strain
       gamma       89.999952 Degrees      dE/de6(xy)     0.000168 eV/strain
--------------------------------------------------------------------------------

  Primitive cell volume =          1332.934004 Angs**3

  Density of cell =      1.907565 g/cm**3

  Non-primitive cell volume =          1332.934004 Angs**3


  Final internal derivatives :

--------------------------------------------------------------------------------
   No.  Atomic          a             b             c           Radius
        Label          (eV)          (eV)          (eV)        (eV/Angs)
--------------------------------------------------------------------------------
      1 Ge    c       0.000000      0.000000      0.000000      0.000000
      2 Ge    c      -0.000884     -0.000255      0.002312      0.000000
      3 Si    c      -0.002040     -0.000202      0.000623      0.000000
      4 Si    c       0.000693     -0.000091      0.000425      0.000000
      5 Si    c       0.001057      0.000161     -0.000360      0.000000
      6 Si    c      -0.001744      0.000111     -0.000585      0.000000
      7 Si    c      -0.001070     -0.000410     -0.000696      0.000000
      8 Si    c       0.002318     -0.000274      0.001328      0.000000
      9 Si    c       0.002196      0.000279     -0.001191      0.000000
     10 Si    c      -0.000773      0.000089      0.000841      0.000000
     11 Si    c      -0.001622      0.000172     -0.002169      0.000000
     12 Si    c       0.001382      0.000450     -0.001916      0.000000
     13 Si    c       0.001598     -0.000475      0.001890      0.000000
     14 Si    c      -0.001845     -0.000132      0.002267      0.000000
     15 Si    c       0.001613      0.000032      0.002128      0.000000
     16 Si    c      -0.001639     -0.000362      0.001803      0.000000
     17 Si    c      -0.001162      0.000593     -0.002072      0.000000
     18 Si    c       0.001847     -0.000107     -0.001941      0.000000
     19 Si    c       0.001347      0.000652     -0.001762      0.000000
     20 Si    c       0.001068     -0.000684      0.001504      0.000000
     21 Si    c      -0.000591     -0.000143      0.002404      0.000000
     22 Si    c      -0.001326     -0.000163      0.001323      0.000000
     23 Si    c      -0.001534      0.000178     -0.001361      0.000000
     24 Si    c       0.000082      0.000305     -0.002355      0.000000
     25 O2    c       0.000356      0.000290      0.000278      0.000000
     26 O2    c      -0.000997     -0.000737     -0.000033      0.000000
     27 O2    c      -0.001046      0.000706      0.000096      0.000000
     28 O2    c       0.000445     -0.000305     -0.000192      0.000000
     29 O2    c      -0.000673     -0.000466     -0.000322      0.000000
     30 O2    c       0.001363      0.000756      0.000186      0.000000
     31 O2    c       0.001268     -0.000697     -0.000196      0.000000
     32 O2    c      -0.000718      0.000493      0.000251      0.000000
     33 O2    c       0.002384     -0.000007     -0.001212      0.000000
     34 O2    c       0.002761      0.000031      0.001306      0.000000
     35 O2    c      -0.001833      0.000075     -0.001450      0.000000
     36 O2    c      -0.002229     -0.000163      0.000790      0.000000
     37 O2    c      -0.002460      0.000145     -0.000996      0.000000
     38 O2    c      -0.002015     -0.000078      0.001366      0.000000
     39 O3    c       0.002286      0.001206      0.000564      0.000000
     40 O2    c      -0.001642     -0.000841     -0.000208      0.000000
     41 O2    c      -0.001417      0.000778      0.000258      0.000000
     42 O3    c       0.001644     -0.000910     -0.000349      0.000000
     43 O2    c       0.000320     -0.000090     -0.000359      0.000000
     44 O2    c       0.001389      0.000943      0.000182      0.000000
     45 O2    c       0.001540     -0.001031     -0.000261      0.000000
     46 O2    c       0.000387      0.000201      0.000350      0.000000
     47 O2    c       0.000819     -0.000004      0.000260      0.000000
     48 O2    c       0.001030     -0.000003     -0.000585      0.000000
     49 O2    c       0.000264     -0.000334     -0.000259      0.000000
     50 O2    c      -0.000090     -0.000414      0.000022      0.000000
     51 O2    c      -0.000028      0.000485     -0.000100      0.000000
     52 O2    c       0.000232      0.000331      0.000138      0.000000
     53 O2    c      -0.000077     -0.000083      0.000560      0.000000
     54 O2    c      -0.000026     -0.000158      0.000220      0.000000
     55 O2    c       0.000615      0.000010     -0.000360      0.000000
     56 O2    c       0.000124      0.000095     -0.000549      0.000000
     57 O2    c       0.001227      0.000814      0.000398      0.000000
     58 O2    c      -0.000796     -0.000761     -0.000423      0.000000
     59 O2    c      -0.000492      0.000710      0.000077      0.000000
     60 O2    c       0.001146     -0.000896     -0.000632      0.000000
     61 O2    c      -0.000845     -0.000781     -0.000446      0.000000
     62 O3    c       0.001498      0.001279      0.001992      0.000000
     63 O3    c       0.001623     -0.001422     -0.000434      0.000000
     64 O2    c      -0.000854      0.000760      0.000397      0.000000
     65 O3    c       0.000777     -0.000735     -0.000640      0.000000
     66 O2    c       0.000007     -0.000714      0.000007      0.000000
     67 O2    c      -0.000022      0.000648      0.000165      0.000000
     68 O3    c       0.000878      0.000867      0.001000      0.000000
     69 O3    c       0.001136      0.000159      0.000758      0.000000
     70 O2    c      -0.001005     -0.000154      0.000397      0.000000
     71 O2    c      -0.000218      0.000313     -0.000330      0.000000
     72 O3    c       0.000980     -0.000705     -0.000492      0.000000
     73 O2    s       0.000329      0.000205     -0.000782      0.000000
     74 O2    s      -0.000916     -0.000095     -0.000826      0.000000
     75 O2    s      -0.000598      0.000026      0.000759      0.000000
     76 O2    s       0.000337     -0.000216      0.000745      0.000000
     77 O2    s      -0.000618     -0.000073      0.000800      0.000000
     78 O2    s       0.000229     -0.000148      0.000456      0.000000
     79 O2    s       0.000394      0.000033     -0.000617      0.000000
     80 O2    s      -0.000839      0.000147     -0.000791      0.000000
     81 O2    s      -0.000356     -0.000033      0.000129      0.000000
     82 O2    s      -0.000393      0.000034     -0.000073      0.000000
     83 O2    s       0.000415      0.000087      0.000368      0.000000
     84 O2    s      -0.000033      0.000213     -0.000336      0.000000
     85 O2    s       0.000310     -0.000192      0.000334      0.000000
     86 O2    s       0.000207     -0.000123     -0.000249      0.000000
     87 O3    s      -0.000052     -0.000099     -0.000796      0.000000
     88 O2    s       0.000179      0.000103     -0.000342      0.000000
     89 O2    s      -0.000067     -0.000078      0.000452      0.000000
     90 O3    s       0.000139     -0.000050      0.000758      0.000000
     91 O2    s      -0.000794     -0.000244      0.000560      0.000000
     92 O2    s       0.000440      0.000333      0.000842      0.000000
     93 O2    s       0.000618     -0.000335     -0.000823      0.000000
     94 O2    s      -0.000444      0.000264     -0.000412      0.000000
     95 O2    s      -0.000460      0.000150     -0.000566      0.000000
     96 O2    s      -0.000102     -0.000113      0.000569      0.000000
     97 O2    s       0.000478      0.000012     -0.000830      0.000000
     98 O2    s      -0.000448      0.000132     -0.001026      0.000000
     99 O2    s      -0.000219     -0.000126      0.000817      0.000000
    100 O2    s       0.000121      0.000198      0.000624      0.000000
    101 O2    s       0.000040      0.000291     -0.001377      0.000000
    102 O2    s      -0.000056     -0.000146     -0.001363      0.000000
    103 O2    s       0.000088     -0.000068      0.001112      0.000000
    104 O2    s      -0.000047     -0.000128      0.001275      0.000000
    105 O2    s       0.000451      0.000005     -0.000168      0.000000
    106 O2    s      -0.000966     -0.000001     -0.000176      0.000000
    107 O2    s      -0.000692     -0.000038      0.000103      0.000000
    108 O2    s       0.000143      0.000081      0.000234      0.000000
    109 O2    s      -0.000360      0.000221     -0.000036      0.000000
    110 O3    s       0.000042     -0.000403     -0.000918      0.000000
    111 O3    s       0.000417      0.000349      0.000390      0.000000
    112 O2    s      -0.000723     -0.000128     -0.000124      0.000000
    113 O3    s       0.000147      0.000462     -0.000543      0.000000
    114 O2    s      -0.000240      0.000068     -0.000655      0.000000
    115 O2    s      -0.000604     -0.000039      0.001004      0.000000
    116 O3    s       0.000078     -0.000576      0.000692      0.000000
    117 O3    s      -0.000779      0.000057     -0.001648      0.000000
    118 O2    s      -0.000383     -0.000076     -0.001199      0.000000
    119 O2    s      -0.000325      0.000228      0.001340      0.000000
    120 O3    s      -0.000279     -0.000029      0.001694      0.000000
--------------------------------------------------------------------------------
  Maximum abs         0.002761      0.001422      0.002404      0.000000
--------------------------------------------------------------------------------


  Born effective charge tensors : 

-------------------------------------------------------------------------------
  Atom             x           y             z
-------------------------------------------------------------------------------
    1 Ge    x       4.0005      0.4113     -0.2212
            y       0.1117      4.1661     -0.3173
            z      -0.1886     -0.0846      3.3669
-------------------------------------------------------------------------------
    2 Ge    x       4.0005     -0.4113      0.2211
            y      -0.1117      4.1661     -0.3173
            z       0.1886     -0.0846      3.3668
-------------------------------------------------------------------------------
    3 Si    x       3.4579      0.0781     -0.2369
            y      -0.0678      3.2439     -0.0134
            z      -0.4175     -0.0358      3.8253
-------------------------------------------------------------------------------
    4 Si    x       3.4632      0.0763      0.1448
            y      -0.0840      3.2435      0.0069
            z       0.5597      0.0434      3.7703
-------------------------------------------------------------------------------
    5 Si    x       3.4631     -0.0763     -0.1448
            y       0.0840      3.2435      0.0069
            z      -0.5597      0.0434      3.7703
-------------------------------------------------------------------------------
    6 Si    x       3.4580     -0.0781      0.2369
            y       0.0678      3.2439     -0.0134
            z       0.4175     -0.0358      3.8253
-------------------------------------------------------------------------------
    7 Si    x       3.7059      0.0528     -0.1251
            y       0.3021      3.4122      0.0654
            z      -0.6024     -0.0237      3.1183
-------------------------------------------------------------------------------
    8 Si    x       3.4426     -0.1371      0.3164
            y       0.2189      3.2487     -0.0410
            z       0.4332     -0.0068      3.1443
-------------------------------------------------------------------------------
    9 Si    x       3.4426      0.1371     -0.3164
            y      -0.2189      3.2487     -0.0410
            z      -0.4332     -0.0068      3.1443
-------------------------------------------------------------------------------
   10 Si    x       3.7060     -0.0528      0.1251
            y      -0.3021      3.4122      0.0654
            z       0.6023     -0.0237      3.1183
-------------------------------------------------------------------------------
   11 Si    x       3.2312      0.2509     -0.0508
            y       0.2622      3.4373     -0.2001
            z      -0.1075     -0.0536      2.8026
-------------------------------------------------------------------------------
   12 Si    x       3.1823      0.2622      0.0576
            y       0.2572      3.4446      0.1805
            z       0.1218      0.0823      2.8050
-------------------------------------------------------------------------------
   13 Si    x       3.1823     -0.2622     -0.0576
            y      -0.2572      3.4446      0.1805
            z      -0.1219      0.0823      2.8051
-------------------------------------------------------------------------------
   14 Si    x       3.2312     -0.2509      0.0508
            y      -0.2622      3.4373     -0.2001
            z       0.1075     -0.0536      2.8026
-------------------------------------------------------------------------------
   15 Si    x       3.2117      0.3179     -0.1168
            y       0.1869      3.4548     -0.1618
            z      -0.1143     -0.0701      2.8122
-------------------------------------------------------------------------------
   16 Si    x       3.2873      0.3401      0.0588
            y       0.2190      3.5788      0.0968
            z       0.1342     -0.0470      3.0900
-------------------------------------------------------------------------------
   17 Si    x       3.2873     -0.3401     -0.0588
            y      -0.2189      3.5788      0.0968
            z      -0.1342     -0.0469      3.0899
-------------------------------------------------------------------------------
   18 Si    x       3.2117     -0.3179      0.1168
            y      -0.1869      3.4548     -0.1618
            z       0.1143     -0.0700      2.8122
-------------------------------------------------------------------------------
   19 Si    x       3.2209      0.3650      0.1601
            y       0.0782      3.4288      0.1809
            z       0.1187      0.0748      2.7488
-------------------------------------------------------------------------------
   20 Si    x       3.2209     -0.3650     -0.1601
            y      -0.0782      3.4288      0.1809
            z      -0.1187      0.0748      2.7488
-------------------------------------------------------------------------------
   21 Si    x       3.6129      0.2238      0.0335
            y       0.2346      3.5103     -0.1917
            z      -0.1297     -0.0901      2.8193
-------------------------------------------------------------------------------
   22 Si    x       3.3804      0.2060      0.1894
            y       0.1028      3.7178      0.1312
            z       0.2007     -0.0108      2.8029
-------------------------------------------------------------------------------
   23 Si    x       3.3804     -0.2059     -0.1895
            y      -0.1028      3.7178      0.1312
            z      -0.2007     -0.0108      2.8029
-------------------------------------------------------------------------------
   24 Si    x       3.6129     -0.2238     -0.0335
            y      -0.2346      3.5103     -0.1917
            z       0.1297     -0.0901      2.8193
-------------------------------------------------------------------------------
   25 O2    x      -1.6768     -0.7255      0.3321
            y      -0.6819     -1.9894      0.3435
            z       0.3581      0.3301     -1.3619
-------------------------------------------------------------------------------
   26 O2    x      -1.6569     -0.7191     -0.2908
            y      -0.6824     -2.0027     -0.3136
            z      -0.3580     -0.3127     -1.3421
-------------------------------------------------------------------------------
   27 O2    x      -1.6569      0.7191      0.2908
            y       0.6824     -2.0027     -0.3136
            z       0.3580     -0.3127     -1.3422
-------------------------------------------------------------------------------
   28 O2    x      -1.6768      0.7255     -0.3321
            y       0.6819     -1.9894      0.3435
            z      -0.3581      0.3301     -1.3618
-------------------------------------------------------------------------------
   29 O2    x      -1.7301     -0.7334      0.3034
            y      -0.7433     -1.9699      0.3359
            z       0.3657      0.3282     -1.3521
-------------------------------------------------------------------------------
   30 O2    x      -1.7538     -0.7395     -0.3080
            y      -0.7448     -1.9696     -0.3104
            z      -0.3564     -0.3084     -1.3385
-------------------------------------------------------------------------------
   31 O2    x      -1.7537      0.7394      0.3081
            y       0.7448     -1.9696     -0.3104
            z       0.3564     -0.3084     -1.3385
-------------------------------------------------------------------------------
   32 O2    x      -1.7302      0.7334     -0.3034
            y       0.7433     -1.9699      0.3358
            z      -0.3657      0.3282     -1.3521
-------------------------------------------------------------------------------
   33 O2    x      -1.6702      0.0137      0.8532
            y       0.0092     -1.0866     -0.0128
            z       1.0853     -0.0244     -2.7433
-------------------------------------------------------------------------------
   34 O2    x      -1.6703     -0.0137     -0.8533
            y      -0.0092     -1.0866     -0.0128
            z      -1.0853     -0.0244     -2.7432
-------------------------------------------------------------------------------
   35 O2    x      -1.6665      0.0082     -0.7263
            y      -0.0284     -1.1122      0.0078
            z      -0.6744      0.0086     -2.2838
-------------------------------------------------------------------------------
   36 O2    x      -1.7610      0.0040      0.7331
            y      -0.0047     -1.1131     -0.0068
            z       0.7391     -0.0051     -2.1863
-------------------------------------------------------------------------------
   37 O2    x      -1.7611     -0.0040     -0.7331
            y       0.0047     -1.1131     -0.0068
            z      -0.7391     -0.0051     -2.1862
-------------------------------------------------------------------------------
   38 O2    x      -1.6664     -0.0082      0.7263
            y       0.0284     -1.1122      0.0078
            z       0.6744      0.0086     -2.2838
-------------------------------------------------------------------------------
   39 O3    x      -2.1462     -0.9595      0.3418
            y      -0.9329     -2.2905      0.3992
            z       0.3630      0.3407     -1.4563
-------------------------------------------------------------------------------
   40 O2    x      -1.7646     -0.7226     -0.3535
            y      -0.6845     -1.9197     -0.3598
            z      -0.3429     -0.3520     -1.2546
-------------------------------------------------------------------------------
   41 O2    x      -1.7645      0.7225      0.3535
            y       0.6845     -1.9197     -0.3598
            z       0.3429     -0.3520     -1.2546
-------------------------------------------------------------------------------
   42 O3    x      -2.1462      0.9595     -0.3417
            y       0.9329     -2.2905      0.3992
            z      -0.3630      0.3407     -1.4562
-------------------------------------------------------------------------------
   43 O2    x      -1.6693     -0.6932      0.3458
            y      -0.5804     -2.0600      0.3809
            z       0.3606      0.3635     -1.2263
-------------------------------------------------------------------------------
   44 O2    x      -1.6691     -0.6531     -0.3475
            y      -0.5968     -1.9294     -0.3856
            z      -0.3838     -0.3380     -1.2906
-------------------------------------------------------------------------------
   45 O2    x      -1.6691      0.6530      0.3476
            y       0.5968     -1.9294     -0.3856
            z       0.3838     -0.3381     -1.2906
-------------------------------------------------------------------------------
   46 O2    x      -1.6693      0.6932     -0.3458
            y       0.5805     -2.0600      0.3809
            z      -0.3606      0.3635     -1.2262
-------------------------------------------------------------------------------
   47 O2    x      -1.7722     -0.0276     -0.5520
            y      -0.0178     -1.2284      0.0139
            z      -0.2915      0.0368     -1.7120
-------------------------------------------------------------------------------
   48 O2    x      -1.7722      0.0276      0.5520
            y       0.0178     -1.2284      0.0139
            z       0.2915      0.0368     -1.7120
-------------------------------------------------------------------------------
   49 O2    x      -1.1929     -0.0409      0.0344
            y      -0.0750     -2.5937     -0.0321
            z       0.0630     -0.0432     -1.0482
-------------------------------------------------------------------------------
   50 O2    x      -1.1665     -0.0399     -0.0589
            y      -0.0659     -2.5440     -0.0149
            z      -0.0799     -0.0041     -1.0697
-------------------------------------------------------------------------------
   51 O2    x      -1.1665      0.0399      0.0589
            y       0.0659     -2.5440     -0.0149
            z       0.0799     -0.0041     -1.0697
-------------------------------------------------------------------------------
   52 O2    x      -1.1929      0.0408     -0.0344
            y       0.0750     -2.5938     -0.0321
            z      -0.0629     -0.0432     -1.0482
-------------------------------------------------------------------------------
   53 O2    x      -2.4220      0.0765     -0.0406
            y       0.0239     -1.2393      0.0696
            z      -0.0127      0.0408     -1.0725
-------------------------------------------------------------------------------
   54 O2    x      -2.3912      0.0860     -0.0111
            y       0.0484     -1.2527     -0.0679
            z      -0.0060     -0.0399     -1.0825
-------------------------------------------------------------------------------
   55 O2    x      -2.3912     -0.0860      0.0111
            y      -0.0484     -1.2527     -0.0679
            z       0.0061     -0.0399     -1.0825
-------------------------------------------------------------------------------
   56 O2    x      -2.4220     -0.0765      0.0407
            y      -0.0239     -1.2393      0.0696
            z       0.0127      0.0408     -1.0725
-------------------------------------------------------------------------------
   57 O2    x      -1.2242     -0.1372     -0.0263
            y      -0.1156     -1.2761     -0.0229
            z      -0.0229     -0.0125     -2.0615
-------------------------------------------------------------------------------
   58 O2    x      -1.1905     -0.1126      0.1027
            y      -0.1035     -1.2876      0.0057
            z       0.1106     -0.0157     -2.0953
-------------------------------------------------------------------------------
   59 O2    x      -1.1905      0.1126     -0.1027
            y       0.1035     -1.2876      0.0057
            z      -0.1107     -0.0157     -2.0953
-------------------------------------------------------------------------------
   60 O2    x      -1.2242      0.1372      0.0263
            y       0.1156     -1.2761     -0.0229
            z       0.0229     -0.0125     -2.0615
-------------------------------------------------------------------------------
   61 O2    x      -1.1802     -0.1354     -0.0523
            y      -0.0823     -1.2821      0.0196
            z      -0.0336      0.0091     -2.0736
-------------------------------------------------------------------------------
   62 O3    x      -1.3232     -0.1561      0.0199
            y      -0.0980     -1.4831      0.0887
            z      -0.0193      0.0943     -2.5995
-------------------------------------------------------------------------------
   63 O3    x      -1.3232      0.1561     -0.0200
            y       0.0980     -1.4831      0.0887
            z       0.0193      0.0943     -2.5995
-------------------------------------------------------------------------------
   64 O2    x      -1.1802      0.1354      0.0523
            y       0.0823     -1.2821      0.0196
            z       0.0335      0.0091     -2.0736
-------------------------------------------------------------------------------
   65 O3    x      -1.4123     -0.0394      0.1095
            y       0.0578     -3.1395      0.0839
            z       0.1284      0.0688     -1.1337
-------------------------------------------------------------------------------
   66 O2    x      -1.2497      0.0892     -0.0776
            y       0.1613     -2.5018     -0.0145
            z      -0.1070      0.0106     -1.0312
-------------------------------------------------------------------------------
   67 O2    x      -1.2497     -0.0892      0.0776
            y      -0.1613     -2.5018     -0.0145
            z       0.1070      0.0106     -1.0312
-------------------------------------------------------------------------------
   68 O3    x      -1.4123      0.0394     -0.1095
            y      -0.0578     -3.1395      0.0839
            z      -0.1284      0.0688     -1.1337
-------------------------------------------------------------------------------
   69 O3    x      -3.0308     -0.1511      0.1548
            y      -0.1289     -1.3880      0.1096
            z       0.1431      0.0639     -1.2288
-------------------------------------------------------------------------------
   70 O2    x      -2.4767     -0.0559      0.0298
            y      -0.0219     -1.2275     -0.0534
            z       0.0305     -0.0176     -1.0617
-------------------------------------------------------------------------------
   71 O2    x      -2.4767      0.0559     -0.0298
            y       0.0219     -1.2275     -0.0534
            z      -0.0304     -0.0176     -1.0617
-------------------------------------------------------------------------------
   72 O3    x      -3.0308      0.1511     -0.1548
            y       0.1289     -1.3880      0.1096
            z      -0.1430      0.0639     -1.2288
-------------------------------------------------------------------------------




  Elastic Constant Matrix: (Units=GPa)

-------------------------------------------------------------------------------
  Indices      1         2         3         4         5         6    
-------------------------------------------------------------------------------
       1     61.4228   36.1246   34.9008    1.8191    0.0005    0.0006
       2     36.1246   88.9541   31.5029    2.3885   -0.0001    0.0009
       3     34.9008   31.5029   45.5556    1.1811   -0.0010    0.0004
       4      1.8191    2.3885    1.1811   12.9195    0.0001   -0.0003
       5      0.0005   -0.0001   -0.0010    0.0001   26.8825    0.8783
       6      0.0006    0.0009    0.0004   -0.0003    0.8783   25.1432
-------------------------------------------------------------------------------


  Elastic Compliance Matrix: (Units=1/GPa)

-------------------------------------------------------------------------------
  Indices      1         2         3         4         5         6    
-------------------------------------------------------------------------------
       1    0.030757 -0.005455 -0.019752 -0.001516 -0.000001 -0.000000
       2   -0.005455  0.015898 -0.006775 -0.001552 -0.000000 -0.000000
       3   -0.019752 -0.006775  0.041762  0.000216  0.000002  0.000000
       4   -0.001516 -0.001552  0.000216  0.077883 -0.000000  0.000001
       5   -0.000001 -0.000000  0.000002 -0.000000  0.037241 -0.001301
       6   -0.000000 -0.000000  0.000000  0.000001 -0.001301  0.039818
-------------------------------------------------------------------------------

  Mechanical properties :

-------------------------------------------------------------------------------
  Convention :                    Reuss         Voigt         Hill
-------------------------------------------------------------------------------
  Bulk  Modulus (GPa)     =      40.89155      44.55434      42.72294
  Shear Modulus (GPa)     =      15.84923      19.21598      17.53261
-------------------------------------------------------------------------------
  Velocity S-wave (km/s)  =       2.88247       3.17389       3.03168
  Velocity P-wave (km/s)  =       5.70216       6.06532       5.88654
-------------------------------------------------------------------------------
  Compressibility (1/GPa) =    0.02445493
-------------------------------------------------------------------------------
  Stress axis :                     x             y             z
-------------------------------------------------------------------------------
  Youngs Moduli (GPa)     =      32.51336      62.90184      23.94494
-------------------------------------------------------------------------------
  Poissons Ratio (x)      =                     0.34311       0.47295
  Poissons Ratio (y)      =       0.17735                     0.16222
  Poissons Ratio (z)      =       0.64219       0.42614
-------------------------------------------------------------------------------


  Piezoelectric Strain Matrix: (Units=C/m**2)

-------------------------------------------------------------------------------
  Indices      1         2         3         4         5         6    
-------------------------------------------------------------------------------
       x    -0.14314  -0.80468  -0.74471  -0.36691  -0.00001  -0.00005
       y    -0.00009  -0.00007   0.00007   0.00010  -0.43197   0.00543
       z    -0.00004  -0.00007   0.00012   0.00001  -0.00536  -0.15315
-------------------------------------------------------------------------------


  Piezoelectric Stress Matrix: (Units=10**-11 C/N)

-------------------------------------------------------------------------------
  Indices      1         2         3         4         5         6    
-------------------------------------------------------------------------------
       x     1.52524  -0.63973  -2.29013  -2.72706  -0.00013  -0.00020
       y    -0.00034  -0.00013   0.00044   0.00081  -1.60943   0.07781
       z    -0.00033  -0.00017   0.00063   0.00010  -0.00003  -0.60912
-------------------------------------------------------------------------------


  Static dielectric constant tensor : 

-------------------------------------------------------------------------------
              x         y         z
-------------------------------------------------------------------------------
       x     3.88003   0.00000  -0.00002
       y     0.00000   4.03133   0.00400
       z    -0.00002   0.00400   3.08189
--------------------------------------------------------------------------------

  High frequency dielectric constant tensor : 

-------------------------------------------------------------------------------
              x         y         z
-------------------------------------------------------------------------------
       x     1.68852   0.00000  -0.00000
       y     0.00000   1.69565  -0.00029
       z    -0.00000  -0.00029   1.62881
-------------------------------------------------------------------------------

  Static refractive indices : 

-------------------------------------------------------------------------------
    1 =    1.75553      2 =    1.96978      3 =    2.00782
-------------------------------------------------------------------------------

  High frequency refractive indices : 

-------------------------------------------------------------------------------
    1 =    1.27625      2 =    1.29943      3 =    1.30217
-------------------------------------------------------------------------------


  Time to end of optimisation =       8.5699 seconds


  Peak dynamic memory used =       5.01 MB 


  Timing analysis for GULP :

--------------------------------------------------------------------------------
  Task / Subroutine                                          Time (Seconds)
--------------------------------------------------------------------------------
  Calculation of reciprocal space energy and derivatives          0.4984
  Calculation of real space energy and derivatives                5.2867
  Calculation of three-body energy and derivatives                0.5645
  Calculation and manipulation of Hessian matrix                  2.6348
  Calculation of matrix inversion                                 0.0282
  Global summation overhead                                       0.0001
--------------------------------------------------------------------------------
  Total CPU time                                                  8.5699
--------------------------------------------------------------------------------


  Dump file written as c00044.vasp.grs
  CIF file written as c00044.vasp.cif


  Job Finished at 10:53.47  7th October    2025                               

