********************************************************************************
*                       GENERAL UTILITY LATTICE PROGRAM                        *
*                                 Julian Gale                                  *
*                       Curtin Institute for Computation                       *
*                    School of Molecular and Life Sciences                     *
*                    Curtin University, Western Australia                      *
********************************************************************************
* Version = 6.1.2 * Last modified =   3rd November 2022                        *
********************************************************************************
*  optimise     - perform optimisation run                                     *
*  conp         - constant pressure calculation                                *
*  property     - calculate properties for final geometry                      *
********************************************************************************

  Job Started  at 10:49.24  7th October    2025                               

  Number of CPUs =     1


  Total number of configurations input =      1

********************************************************************************
*  Input for Configuration =   1 : c00017.vasp                                 *
********************************************************************************

  Formula = Ge2Si22O48                                                  

  Number of irreducible atoms/shells =     120


  Total number atoms/shells =     120

  Dimensionality = 3               :  Bulk   



  Cartesian lattice vectors (Angstroms) :

       17.182800    0.000000    0.000000
        0.000000    7.513760    0.000000
        0.000000    0.000000   10.447700

  Cell parameters (Angstroms/Degrees):

  a =      17.1828    alpha =  90.0000
  b =       7.5138    beta  =  90.0000
  c =      10.4477    gamma =  90.0000

  Initial cell volume =        1348.875752 Angs**3

  Temperature of configuration =   0.00     K 

  Pressure of configuration =         0.000 GPa 

  Fractional coordinates of asymmetric unit :

--------------------------------------------------------------------------------
   No.  Atomic       x           y          z         Charge      Occupancy
        Label      (Frac)      (Frac)     (Frac)        (e)         (Frac)  
--------------------------------------------------------------------------------
      1 Ge    c    0.556730    0.000000    0.122130     4.00000    1.000000    
      2 Ge    c    0.443270 *  0.000000 *  0.877870 *   4.00000    1.000000    
      3 Si    c    0.052090 *  0.000000 *  0.372270 *   4.00000    1.000000    
      4 Si    c    0.447910 *  0.000000 *  0.372270 *   4.00000    1.000000    
      5 Si    c    0.947910 *  0.000000 *  0.627730 *   4.00000    1.000000    
      6 Si    c    0.552090 *  0.000000 *  0.627730 *   4.00000    1.000000    
      7 Si    c    0.943270 *  0.000000 *  0.122130 *   4.00000    1.000000    
      8 Si    c    0.056730 *  0.000000 *  0.877870 *   4.00000    1.000000    
      9 Si    c    0.160190 *  0.293910 *  0.273440 *   4.00000    1.000000    
     10 Si    c    0.339810 *  0.706090 *  0.273440 *   4.00000    1.000000    
     11 Si    c    0.839810 *  0.293910 *  0.726560 *   4.00000    1.000000    
     12 Si    c    0.660190 *  0.706090 *  0.726560 *   4.00000    1.000000    
     13 Si    c    0.839810 *  0.706090 *  0.726560 *   4.00000    1.000000    
     14 Si    c    0.660190 *  0.293910 *  0.726560 *   4.00000    1.000000    
     15 Si    c    0.160190 *  0.706090 *  0.273440 *   4.00000    1.000000    
     16 Si    c    0.339810 *  0.293910 *  0.273440 *   4.00000    1.000000    
     17 Si    c    0.660660 *  0.294090 *  0.017440 *   4.00000    1.000000    
     18 Si    c    0.839340 *  0.705910 *  0.017440 *   4.00000    1.000000    
     19 Si    c    0.339340 *  0.294090 *  0.982560 *   4.00000    1.000000    
     20 Si    c    0.160660 *  0.705910 *  0.982560 *   4.00000    1.000000    
     21 Si    c    0.339340 *  0.705910 *  0.982560 *   4.00000    1.000000    
     22 Si    c    0.160660 *  0.294090 *  0.982560 *   4.00000    1.000000    
     23 Si    c    0.660660 *  0.705910 *  0.017440 *   4.00000    1.000000    
     24 Si    c    0.839340 *  0.294090 *  0.017440 *   4.00000    1.000000    
     25 O2    c    0.106570 *  0.174340 *  0.366200 *   0.87073    1.000000    
     26 O2    c    0.393430 *  0.825660 *  0.366200 *   0.87073    1.000000    
     27 O2    c    0.893430 *  0.174340 *  0.633800 *   0.87073    1.000000    
     28 O2    c    0.606570 *  0.825660 *  0.633800 *   0.87073    1.000000    
     29 O2    c    0.893430 *  0.825660 *  0.633800 *   0.87073    1.000000    
     30 O2    c    0.606570 *  0.174340 *  0.633800 *   0.87073    1.000000    
     31 O2    c    0.106570 *  0.825660 *  0.366200 *   0.87073    1.000000    
     32 O2    c    0.393430 *  0.174340 *  0.366200 *   0.87073    1.000000    
     33 O2    c    0.000000 *  0.000000 *  0.500000 *   0.87073    1.000000    
     34 O2    c    0.500000 *  0.000000 *  0.500000 *   0.87073    1.000000    
     35 O2    c    0.994520 *  0.000000 *  0.250840 *   0.87073    1.000000    
     36 O3    c    0.505480 *  0.000000 *  0.250840 *   1.33043    1.000000    
     37 O2    c    0.005480 *  0.000000 *  0.749160 *   0.87073    1.000000    
     38 O3    c    0.494520 *  0.000000 *  0.749160 *   1.33043    1.000000    
     39 O3    c    0.610230 *  0.175520 *  0.115390 *   1.33043    1.000000    
     40 O2    c    0.889770 *  0.824480 *  0.115390 *   0.87073    1.000000    
     41 O3    c    0.389770 *  0.175520 *  0.884610 *   1.33043    1.000000    
     42 O2    c    0.110230 *  0.824480 *  0.884610 *   0.87073    1.000000    
     43 O3    c    0.389770 *  0.824480 *  0.884610 *   1.33043    1.000000    
     44 O2    c    0.110230 *  0.175520 *  0.884610 *   0.87073    1.000000    
     45 O3    c    0.610230 *  0.824480 *  0.115390 *   1.33043    1.000000    
     46 O2    c    0.889770 *  0.175520 *  0.115390 *   0.87073    1.000000    
     47 O1    c    0.500000 *  0.000000 *  0.000000 *   1.73396    1.000000    
     48 O2    c    0.000000 *  0.000000 *  0.000000 *   0.87073    1.000000    
     49 O2    c    0.151750 *  0.500000 *  0.313330 *   0.87073    1.000000    
     50 O2    c    0.348250 *  0.500000 *  0.313330 *   0.87073    1.000000    
     51 O2    c    0.848250 *  0.500000 *  0.686670 *   0.87073    1.000000    
     52 O2    c    0.651750 *  0.500000 *  0.686670 *   0.87073    1.000000    
     53 O2    c    0.250000 *  0.234950 *  0.285720 *   0.87073    1.000000    
     54 O2    c    0.250000 *  0.765050 *  0.285720 *   0.87073    1.000000    
     55 O2    c    0.750000 *  0.234950 *  0.714280 *   0.87073    1.000000    
     56 O2    c    0.750000 *  0.765050 *  0.714280 *   0.87073    1.000000    
     57 O2    c    0.131410 *  0.268650 *  0.127790 *   0.87073    1.000000    
     58 O2    c    0.368590 *  0.731350 *  0.127790 *   0.87073    1.000000    
     59 O2    c    0.868590 *  0.268650 *  0.872210 *   0.87073    1.000000    
     60 O2    c    0.631410 *  0.731350 *  0.872210 *   0.87073    1.000000    
     61 O2    c    0.868590 *  0.731350 *  0.872210 *   0.87073    1.000000    
     62 O2    c    0.631410 *  0.268650 *  0.872210 *   0.87073    1.000000    
     63 O2    c    0.131410 *  0.731350 *  0.127790 *   0.87073    1.000000    
     64 O2    c    0.368590 *  0.268650 *  0.127790 *   0.87073    1.000000    
     65 O2    c    0.653920 *  0.500000 *  0.058200 *   0.87073    1.000000    
     66 O2    c    0.846080 *  0.500000 *  0.058200 *   0.87073    1.000000    
     67 O2    c    0.346080 *  0.500000 *  0.941800 *   0.87073    1.000000    
     68 O2    c    0.153920 *  0.500000 *  0.941800 *   0.87073    1.000000    
     69 O2    c    0.750000 *  0.231060 *  0.027050 *   0.87073    1.000000    
     70 O2    c    0.750000 *  0.768940 *  0.027050 *   0.87073    1.000000    
     71 O2    c    0.250000 *  0.231060 *  0.972950 *   0.87073    1.000000    
     72 O2    c    0.250000 *  0.768940 *  0.972950 *   0.87073    1.000000    
     73 O2    s    0.106570 *  0.174340 *  0.366200 *  -2.87073    1.000000    
     74 O2    s    0.393430 *  0.825660 *  0.366200 *  -2.87073    1.000000    
     75 O2    s    0.893430 *  0.174340 *  0.633800 *  -2.87073    1.000000    
     76 O2    s    0.606570 *  0.825660 *  0.633800 *  -2.87073    1.000000    
     77 O2    s    0.893430 *  0.825660 *  0.633800 *  -2.87073    1.000000    
     78 O2    s    0.606570 *  0.174340 *  0.633800 *  -2.87073    1.000000    
     79 O2    s    0.106570 *  0.825660 *  0.366200 *  -2.87073    1.000000    
     80 O2    s    0.393430 *  0.174340 *  0.366200 *  -2.87073    1.000000    
     81 O2    s    0.000000 *  0.000000 *  0.500000 *  -2.87073    1.000000    
     82 O2    s    0.500000 *  0.000000 *  0.500000 *  -2.87073    1.000000    
     83 O2    s    0.994520 *  0.000000 *  0.250840 *  -2.87073    1.000000    
     84 O3    s    0.505480 *  0.000000 *  0.250840 *  -3.33043    1.000000    
     85 O2    s    0.005480 *  0.000000 *  0.749160 *  -2.87073    1.000000    
     86 O3    s    0.494520 *  0.000000 *  0.749160 *  -3.33043    1.000000    
     87 O3    s    0.610230 *  0.175520 *  0.115390 *  -3.33043    1.000000    
     88 O2    s    0.889770 *  0.824480 *  0.115390 *  -2.87073    1.000000    
     89 O3    s    0.389770 *  0.175520 *  0.884610 *  -3.33043    1.000000    
     90 O2    s    0.110230 *  0.824480 *  0.884610 *  -2.87073    1.000000    
     91 O3    s    0.389770 *  0.824480 *  0.884610 *  -3.33043    1.000000    
     92 O2    s    0.110230 *  0.175520 *  0.884610 *  -2.87073    1.000000    
     93 O3    s    0.610230 *  0.824480 *  0.115390 *  -3.33043    1.000000    
     94 O2    s    0.889770 *  0.175520 *  0.115390 *  -2.87073    1.000000    
     95 O1    s    0.500000 *  0.000000 *  0.000000 *  -3.73396    1.000000    
     96 O2    s    0.000000 *  0.000000 *  0.000000 *  -2.87073    1.000000    
     97 O2    s    0.151750 *  0.500000 *  0.313330 *  -2.87073    1.000000    
     98 O2    s    0.348250 *  0.500000 *  0.313330 *  -2.87073    1.000000    
     99 O2    s    0.848250 *  0.500000 *  0.686670 *  -2.87073    1.000000    
    100 O2    s    0.651750 *  0.500000 *  0.686670 *  -2.87073    1.000000    
    101 O2    s    0.250000 *  0.234950 *  0.285720 *  -2.87073    1.000000    
    102 O2    s    0.250000 *  0.765050 *  0.285720 *  -2.87073    1.000000    
    103 O2    s    0.750000 *  0.234950 *  0.714280 *  -2.87073    1.000000    
    104 O2    s    0.750000 *  0.765050 *  0.714280 *  -2.87073    1.000000    
    105 O2    s    0.131410 *  0.268650 *  0.127790 *  -2.87073    1.000000    
    106 O2    s    0.368590 *  0.731350 *  0.127790 *  -2.87073    1.000000    
    107 O2    s    0.868590 *  0.268650 *  0.872210 *  -2.87073    1.000000    
    108 O2    s    0.631410 *  0.731350 *  0.872210 *  -2.87073    1.000000    
    109 O2    s    0.868590 *  0.731350 *  0.872210 *  -2.87073    1.000000    
    110 O2    s    0.631410 *  0.268650 *  0.872210 *  -2.87073    1.000000    
    111 O2    s    0.131410 *  0.731350 *  0.127790 *  -2.87073    1.000000    
    112 O2    s    0.368590 *  0.268650 *  0.127790 *  -2.87073    1.000000    
    113 O2    s    0.653920 *  0.500000 *  0.058200 *  -2.87073    1.000000    
    114 O2    s    0.846080 *  0.500000 *  0.058200 *  -2.87073    1.000000    
    115 O2    s    0.346080 *  0.500000 *  0.941800 *  -2.87073    1.000000    
    116 O2    s    0.153920 *  0.500000 *  0.941800 *  -2.87073    1.000000    
    117 O2    s    0.750000 *  0.231060 *  0.027050 *  -2.87073    1.000000    
    118 O2    s    0.750000 *  0.768940 *  0.027050 *  -2.87073    1.000000    
    119 O2    s    0.250000 *  0.231060 *  0.972950 *  -2.87073    1.000000    
    120 O2    s    0.250000 *  0.768940 *  0.972950 *  -2.87073    1.000000    
--------------------------------------------------------------------------------



********************************************************************************
*  General input information                                                   *
********************************************************************************

  Species output for all configurations : 

--------------------------------------------------------------------------------
  Species    Type    Atomic    Atomic    Charge       Radii (Angs)     Library
                     Number     Mass       (e)     Cova   Ionic  VDW   Symbol
--------------------------------------------------------------------------------
    Ge       Core       32      72.61   4.000000   1.170  0.000  1.750 Ge       
    Si       Core       14      28.09   4.000000   1.200  0.000  2.100 Si       
    O1       Core        8      16.00   1.733957   0.730  0.000  1.360 O1       
    O2       Core        8      16.00   0.870733   0.730  0.000  1.360 O2       
    O3       Core        8      16.00   1.330431   0.730  0.000  1.360 O3       
    O1       Shell       8       0.00  -3.733957   0.730  0.000  0.000 O1       
    O2       Shell       8       0.00  -2.870733   0.730  0.000  0.000 O2       
    O3       Shell       8       0.00  -3.330431   0.730  0.000  0.000 O3       
--------------------------------------------------------------------------------


  Lattice summation method               =    Ewald          (3-D)
                                         =    Parry          (2-D)
                                         =    Saunders et al (1-D)
  Accuracy factor for lattice sums       =   12.000


  Analytic derivatives to be used

  Time limit = Infinity

  Maximum range for interatomic potentials =    100000.000000 Angstroms

  General interatomic potentials :

--------------------------------------------------------------------------------
Atom  Types   Potential      Parameter       Value         Units   Cutoffs(Ang)
  1     2                                                            Min /  Max 
--------------------------------------------------------------------------------
Si   c O1   s Buckingham    Buckingham A     1315.2478    eV        0.000 16.000
                            Buckingham rho  0.31775900    Ang       
                            Buckingham C     10.141118    eV*Ang^6  
--------------------------------------------------------------------------------
Si   c O2   s Buckingham    Buckingham A     1315.2478    eV        0.000 16.000
                            Buckingham rho  0.31775900    Ang       
                            Buckingham C     10.141118    eV*Ang^6  
--------------------------------------------------------------------------------
Si   c O3   s Buckingham    Buckingham A     1315.2478    eV        0.000 16.000
                            Buckingham rho  0.31775900    Ang       
                            Buckingham C     10.141118    eV*Ang^6  
--------------------------------------------------------------------------------
Ge   c O1   s Buckingham    Buckingham A     1497.3996    eV        0.000 16.000
                            Buckingham rho  0.32564600    Ang       
                            Buckingham C     16.808599    eV*Ang^6  
--------------------------------------------------------------------------------
Ge   c O2   s Buckingham    Buckingham A     1497.3996    eV        0.000 16.000
                            Buckingham rho  0.32564600    Ang       
                            Buckingham C     16.808599    eV*Ang^6  
--------------------------------------------------------------------------------
Ge   c O3   s Buckingham    Buckingham A     1497.3996    eV        0.000 16.000
                            Buckingham rho  0.32564600    Ang       
                            Buckingham C     16.808599    eV*Ang^6  
--------------------------------------------------------------------------------
O1   s O1   s Buckingham    Buckingham A     22764.000    eV        0.000 16.000
                            Buckingham rho  0.14900000    Ang       
                            Buckingham C     10.937044    eV*Ang^6  
--------------------------------------------------------------------------------
O1   s O2   s Buckingham    Buckingham A     22764.000    eV        0.000 16.000
                            Buckingham rho  0.14900000    Ang       
                            Buckingham C     10.937044    eV*Ang^6  
--------------------------------------------------------------------------------
O1   s O3   s Buckingham    Buckingham A     22764.000    eV        0.000 16.000
                            Buckingham rho  0.14900000    Ang       
                            Buckingham C     10.937044    eV*Ang^6  
--------------------------------------------------------------------------------
O2   s O2   s Buckingham    Buckingham A     22764.000    eV        0.000 16.000
                            Buckingham rho  0.14900000    Ang       
                            Buckingham C     10.937044    eV*Ang^6  
--------------------------------------------------------------------------------
O2   s O3   s Buckingham    Buckingham A     22764.000    eV        0.000 16.000
                            Buckingham rho  0.14900000    Ang       
                            Buckingham C     10.937044    eV*Ang^6  
--------------------------------------------------------------------------------
O3   s O3   s Buckingham    Buckingham A     22764.000    eV        0.000 16.000
                            Buckingham rho  0.14900000    Ang       
                            Buckingham C     10.937044    eV*Ang^6  
--------------------------------------------------------------------------------
O1   c O1   s Spring (c-s)  Spring k 2       180.31577    eV*Ang^-2 0.000  0.800
                            Spring k 4       0.0000000    eV*Ang^-4 
--------------------------------------------------------------------------------
O2   c O2   s Spring (c-s)  Spring k 2       75.969800    eV*Ang^-2 0.000  0.800
                            Spring k 4       0.0000000    eV*Ang^-4 
--------------------------------------------------------------------------------
O3   c O3   s Spring (c-s)  Spring k 2       128.14270    eV*Ang^-2 0.000  0.800
                            Spring k 4       0.0000000    eV*Ang^-4 
--------------------------------------------------------------------------------

  General Three-body potentials :

--------------------------------------------------------------------------------
  Atoms       Potential      Parameter       Value         Units   Cutoffs(Ang)
  1 / 2 / 3                                                          Min /  Max 
--------------------------------------------------------------------------------
Si    core    Harmonic      Three-body cnst  1.2614000    eV*rad^-2 0.000  1.900
O1    shel                  Three-body angl  109.47000    degrees   0.000  1.900
O1    shel                  Three-body k4    0.0000000    eV*rad^-4 0.000  3.500
                            Three-body k3    0.0000000    eV*rad^-3 
--------------------------------------------------------------------------------
Si    core    Harmonic      Three-body cnst  1.2614000    eV*rad^-2 0.000  1.900
O1    shel                  Three-body angl  109.47000    degrees   0.000  1.900
õ(1   shel                  Three-body k4    0.0000000    eV*rad^-4 0.000  3.500
                            Three-body k3    0.0000000    eV*rad^-3 
--------------------------------------------------------------------------------
Si    core    Harmonic      Three-body cnst  1.2614000    eV*rad^-2 0.000  1.900
õ(1   shel                  Three-body angl  109.47000    degrees   0.000  1.900
õ(1   shel                  Three-body k4    0.0000000    eV*rad^-4 0.000  3.500
                            Three-body k3    0.0000000    eV*rad^-3 
--------------------------------------------------------------------------------
Si    core    Harmonic      Three-body cnst  1.2614000    eV*rad^-2 0.000  1.900
O1    shel                  Three-body angl  109.47000    degrees   0.000  1.900
O2    shel                  Three-body k4    0.0000000    eV*rad^-4 0.000  3.500
                            Three-body k3    0.0000000    eV*rad^-3 
--------------------------------------------------------------------------------
Si    core    Harmonic      Three-body cnst  1.2614000    eV*rad^-2 0.000  1.900
O1    shel                  Three-body angl  109.47000    degrees   0.000  1.900
õ(2   shel                  Three-body k4    0.0000000    eV*rad^-4 0.000  3.500
                            Three-body k3    0.0000000    eV*rad^-3 
--------------------------------------------------------------------------------
Si    core    Harmonic      Three-body cnst  1.2614000    eV*rad^-2 0.000  1.900
O2    shel                  Three-body angl  109.47000    degrees   0.000  1.900
õ(1   shel                  Three-body k4    0.0000000    eV*rad^-4 0.000  3.500
                            Three-body k3    0.0000000    eV*rad^-3 
--------------------------------------------------------------------------------
Si    core    Harmonic      Three-body cnst  1.2614000    eV*rad^-2 0.000  1.900
õ(1   shel                  Three-body angl  109.47000    degrees   0.000  1.900
õ(2   shel                  Three-body k4    0.0000000    eV*rad^-4 0.000  3.500
                            Three-body k3    0.0000000    eV*rad^-3 
--------------------------------------------------------------------------------
Si    core    Harmonic      Three-body cnst  1.2614000    eV*rad^-2 0.000  1.900
O2    shel                  Three-body angl  109.47000    degrees   0.000  1.900
O2    shel                  Three-body k4    0.0000000    eV*rad^-4 0.000  3.500
                            Three-body k3    0.0000000    eV*rad^-3 
--------------------------------------------------------------------------------
Si    core    Harmonic      Three-body cnst  1.2614000    eV*rad^-2 0.000  1.900
O2    shel                  Three-body angl  109.47000    degrees   0.000  1.900
õ(2   shel                  Three-body k4    0.0000000    eV*rad^-4 0.000  3.500
                            Three-body k3    0.0000000    eV*rad^-3 
--------------------------------------------------------------------------------
Si    core    Harmonic      Three-body cnst  1.2614000    eV*rad^-2 0.000  1.900
õ(2   shel                  Three-body angl  109.47000    degrees   0.000  1.900
õ(2   shel                  Three-body k4    0.0000000    eV*rad^-4 0.000  3.500
                            Three-body k3    0.0000000    eV*rad^-3 
--------------------------------------------------------------------------------

********************************************************************************
*  Output for configuration   1 : c00017.vasp                                  *
********************************************************************************


  Components of energy : 

--------------------------------------------------------------------------------
  Interatomic potentials     =         752.38612233 eV    
  Three-body potentials      =           0.01357591 eV    
  Monopole - monopole (real) =       -2676.00317478 eV    
  Monopole - monopole (recip)=       -1115.35404472 eV    
  Monopole - monopole (total)=       -3791.35721950 eV    
--------------------------------------------------------------------------------
  Total lattice energy       =       -3038.95752127 eV    
--------------------------------------------------------------------------------
  Total lattice energy       =         -293212.9461 kJ/(mole unit cells)
--------------------------------------------------------------------------------


  Number of variables =      363

  Maximum number of calculations  =          1000
  Maximum Hessian update interval =            10
  Maximum step size               =   0.100000000
  Maximum parameter tolerance     =   0.000010000
  Maximum function  tolerance     =   0.000010000
  Maximum gradient  tolerance     =   0.001000000
  Maximum gradient  component     =   0.010000000

  Symmetry not applied to optimisation

  Cell parameters to be optimised using strains

  Newton-Raphson optimiser to be used

  BFGS hessian update to be used

  Lower half triangular hessian to be used

  Minimiser to switch to RFO
  When gradient norm is less than     0.050000

  Dumpfile to be written after every cycle

  Start of bulk optimisation :

  Cycle:      0 Energy:     -3038.957521  Gnorm:      4.220436  CPU:    0.111
  ** Hessian calculated **
  Cycle:      1 Energy:     -3069.339364  Gnorm:      0.910412  CPU:    0.235
  ** Hessian calculated **
  Cycle:      2 Energy:     -3073.332625  Gnorm:      0.364853  CPU:    0.462
  ** Hessian calculated **
  Cycle:      3 Energy:     -3074.013342  Gnorm:      0.237422  CPU:    0.664
  Cycle:      4 Energy:     -3074.299588  Gnorm:      0.118614  CPU:    0.771
  Cycle:      5 Energy:     -3074.398504  Gnorm:      0.064247  CPU:    0.877
  Cycle:      6 Energy:     -3074.445667  Gnorm:      0.028161  CPU:    0.987
  ** Hessian has wrong structure
  ** Imaginary eigenvectors =   4
  Cycle:      7 Energy:     -3074.450565  Gnorm:      0.050816  CPU:    1.277
  ** Hessian has wrong structure
  ** Imaginary eigenvectors =   3
  Cycle:      8 Energy:     -3074.458315  Gnorm:      0.051895  CPU:    1.730
  ** Hessian has wrong structure
  ** Imaginary eigenvectors =   3
  Cycle:      9 Energy:     -3074.510349  Gnorm:      0.064665  CPU:    2.128
  ** Hessian has wrong structure
  ** Imaginary eigenvectors =   1
  ** Hessian has required structure
  Cycle:     10 Energy:     -3074.685398  Gnorm:      0.051647  CPU:    2.684
  ** Hessian has required structure
  Cycle:     11 Energy:     -3074.749340  Gnorm:      0.026508  CPU:    2.843
  ** Hessian has required structure
  Cycle:     12 Energy:     -3074.789569  Gnorm:      0.032844  CPU:    3.003
  ** Hessian has required structure
  Cycle:     13 Energy:     -3074.808149  Gnorm:      0.023771  CPU:    3.156
  ** Hessian has required structure
  Cycle:     14 Energy:     -3074.821808  Gnorm:      0.021979  CPU:    3.310
  ** Hessian has required structure
  Cycle:     15 Energy:     -3074.829832  Gnorm:      0.015107  CPU:    3.465
  ** Hessian has required structure
  Cycle:     16 Energy:     -3074.834601  Gnorm:      0.007093  CPU:    3.600
  ** Hessian has required structure
  Cycle:     17 Energy:     -3074.836354  Gnorm:      0.006449  CPU:    3.754
  ** Hessian has required structure
  Cycle:     18 Energy:     -3074.837381  Gnorm:      0.004729  CPU:    3.907
  ** Hessian has required structure
  Cycle:     19 Energy:     -3074.837811  Gnorm:      0.003114  CPU:    4.061
  ** Hessian has required structure
  Cycle:     20 Energy:     -3074.838084  Gnorm:      0.001867  CPU:    4.288
  ** Hessian has required structure
  Cycle:     21 Energy:     -3074.838177  Gnorm:      0.001121  CPU:    4.436
  ** Hessian has required structure
  Cycle:     22 Energy:     -3074.838209  Gnorm:      0.000671  CPU:    4.586
  ** Hessian has required structure
  Cycle:     23 Energy:     -3074.838221  Gnorm:      0.000336  CPU:    4.762
  ** Hessian has required structure
  Cycle:     24 Energy:     -3074.838224  Gnorm:      0.000252  CPU:    4.902
  ** Hessian has required structure
  Cycle:     25 Energy:     -3074.838225  Gnorm:      0.000185  CPU:    5.040
  ** Hessian has required structure
  Cycle:     26 Energy:     -3074.838225  Gnorm:      0.000133  CPU:    5.181
  ** Hessian has required structure
  Cycle:     27 Energy:     -3074.836856  Gnorm:      0.012526  CPU:    5.411
  ** Hessian has required structure
  Cycle:     28 Energy:     -3074.837441  Gnorm:      0.009487  CPU:    5.670
  ** Hessian has required structure
  Cycle:     29 Energy:     -3074.837988  Gnorm:      0.005237  CPU:    5.845
  ** Hessian has required structure
  Cycle:     30 Energy:     -3074.838166  Gnorm:      0.002617  CPU:    6.020
  ** Hessian has required structure
  Cycle:     31 Energy:     -3074.838211  Gnorm:      0.001308  CPU:    6.190
  ** Hessian has required structure
  Cycle:     32 Energy:     -3074.838220  Gnorm:      0.000785  CPU:    6.338
  ** Hessian has required structure
  Cycle:     33 Energy:     -3074.838223  Gnorm:      0.000549  CPU:    6.470
  ** Hessian has required structure
  Cycle:     34 Energy:     -3074.838224  Gnorm:      0.000385  CPU:    6.604
  ** Hessian has required structure
  Cycle:     35 Energy:     -3074.838225  Gnorm:      0.000269  CPU:    6.736
  ** Hessian has required structure
  Cycle:     36 Energy:     -3074.838225  Gnorm:      0.000188  CPU:    6.865
  ** Hessian has required structure
  Cycle:     37 Energy:     -3074.838225  Gnorm:      0.000132  CPU:    6.995
  ** Hessian has required structure
  Cycle:     38 Energy:     -3074.838226  Gnorm:      0.000092  CPU:    7.204
  ** Hessian has required structure
  Cycle:     39 Energy:     -3074.838226  Gnorm:      0.000065  CPU:    7.335
  ** Hessian has required structure


  **** Optimisation achieved ****


  Final energy =   -3074.83822585 eV      
  Final Gnorm  =       0.00004524

  Components of energy : 

--------------------------------------------------------------------------------
  Interatomic potentials     =         818.53243974 eV    
  Three-body potentials      =           0.30047548 eV    
  Monopole - monopole (real) =       -2240.76847088 eV    
  Monopole - monopole (recip)=       -1652.90267019 eV    
  Monopole - monopole (total)=       -3893.67114107 eV    
--------------------------------------------------------------------------------
  Total lattice energy       =       -3074.83822585 eV    
--------------------------------------------------------------------------------
  Total lattice energy       =         -296674.8856 kJ/(mole unit cells)
--------------------------------------------------------------------------------

  Final fractional coordinates of atoms :

--------------------------------------------------------------------------------
   No.  Atomic        x           y          z          Radius
        Label       (Frac)      (Frac)     (Frac)       (Angs) 
--------------------------------------------------------------------------------
     1  Ge    c     0.556730    0.000000    0.122130    0.000000
     2  Ge    c     0.439979    0.005040    0.876647    0.000000
     3  Si    c     0.048332    0.988284    0.384259    0.000000
     4  Si    c     0.448557    0.003612    0.375150    0.000000
     5  Si    c     0.949260    0.990293    0.641917    0.000000
     6  Si    c     0.547560    0.005267    0.631383    0.000000
     7  Si    c     0.944897    0.991840    0.130554    0.000000
     8  Si    c     0.055075    0.993402    0.894276    0.000000
     9  Si    c     0.165468    0.275089    0.293501    0.000000
    10  Si    c     0.331093    0.719995    0.295527    0.000000
    11  Si    c     0.832232    0.276599    0.730037    0.000000
    12  Si    c     0.665827    0.719016    0.735162    0.000000
    13  Si    c     0.846209    0.682637    0.728035    0.000000
    14  Si    c     0.651298    0.309832    0.735151    0.000000
    15  Si    c     0.149452    0.680068    0.296224    0.000000
    16  Si    c     0.346169    0.312987    0.293474    0.000000
    17  Si    c     0.651858    0.321072    0.035387    0.000000
    18  Si    c     0.854265    0.673286    0.030062    0.000000
    19  Si    c     0.348236    0.324292    0.992322    0.000000
    20  Si    c     0.144643    0.674686    0.995511    0.000000
    21  Si    c     0.326294    0.724949    0.994832    0.000000
    22  Si    c     0.166886    0.277228    0.990635    0.000000
    23  Si    c     0.673681    0.720373    0.036268    0.000000
    24  Si    c     0.833574    0.276123    0.032292    0.000000
    25  O2    c     0.114916    0.139785    0.377842    0.000000
    26  O2    c     0.381588    0.851143    0.386693    0.000000
    27  O2    c     0.883263    0.143417    0.644653    0.000000
    28  O2    c     0.610805    0.848876    0.652079    0.000000
    29  O2    c     0.905367    0.800904    0.644222    0.000000
    30  O2    c     0.590149    0.194651    0.651365    0.000000
    31  O2    c     0.091075    0.797695    0.381750    0.000000
    32  O2    c     0.406595    0.195748    0.378241    0.000000
    33  O2    c     0.999809    0.007414    0.514062    0.000000
    34  O2    c     0.514708    0.993073    0.485630    0.000000
    35  O2    c     0.986888    0.011505    0.267578    0.000000
    36  O3    c     0.491706    0.967585    0.242265    0.000000
    37  O2    c     0.009274    0.013506    0.760639    0.000000
    38  O3    c     0.472157    0.988100    0.720407    0.000000
    39  O3    c     0.593623    0.213296    0.124094    0.000000
    40  O2    c     0.913820    0.791454    0.114492    0.000000
    41  O3    c     0.408954    0.219102    0.907342    0.000000
    42  O2    c     0.087092    0.793245    0.907327    0.000000
    43  O3    c     0.361070    0.865314    0.898705    0.000000
    44  O2    c     0.126819    0.132769    0.897845    0.000000
    45  O3    c     0.635901    0.856661    0.132288    0.000000
    46  O2    c     0.873049    0.130191    0.124110    0.000000
    47  O1    c     0.513379    0.944083    0.978435    0.000000
    48  O2    c     0.001488    0.045312    0.014526    0.000000
    49  O2    c     0.136238    0.473235    0.325055    0.000000
    50  O2    c     0.360454    0.519873    0.321235    0.000000
    51  O2    c     0.859763    0.476081    0.698579    0.000000
    52  O2    c     0.637052    0.517927    0.710879    0.000000
    53  O2    c     0.257481    0.258922    0.330710    0.000000
    54  O2    c     0.239138    0.734112    0.329679    0.000000
    55  O2    c     0.739838    0.257343    0.695705    0.000000
    56  O2    c     0.756567    0.736298    0.692536    0.000000
    57  O2    c     0.155558    0.229168    0.141695    0.000000
    58  O2    c     0.342172    0.775783    0.145490    0.000000
    59  O2    c     0.844306    0.228801    0.881126    0.000000
    60  O2    c     0.660159    0.773697    0.885461    0.000000
    61  O2    c     0.865032    0.720485    0.878900    0.000000
    62  O2    c     0.635217    0.264752    0.885544    0.000000
    63  O2    c     0.129034    0.719189    0.145936    0.000000
    64  O2    c     0.362710    0.271002    0.142897    0.000000
    65  O2    c     0.635315    0.527365    0.056507    0.000000
    66  O2    c     0.872805    0.467897    0.058181    0.000000
    67  O2    c     0.363857    0.531901    0.971232    0.000000
    68  O2    c     0.128146    0.469292    0.964358    0.000000
    69  O2    c     0.742357    0.277997    0.068688    0.000000
    70  O2    c     0.765777    0.714697    0.070044    0.000000
    71  O2    c     0.258382    0.278096    0.954850    0.000000
    72  O2    c     0.233962    0.719518    0.964145    0.000000
    73  O2    s     0.113437    0.138644    0.369065    0.000000
    74  O2    s     0.382981    0.852613    0.375725    0.000000
    75  O2    s     0.884613    0.141878    0.653884    0.000000
    76  O2    s     0.610183    0.851176    0.659203    0.000000
    77  O2    s     0.903531    0.808021    0.653141    0.000000
    78  O2    s     0.592441    0.187434    0.658550    0.000000
    79  O2    s     0.092949    0.804993    0.372669    0.000000
    80  O2    s     0.404430    0.188440    0.368807    0.000000
    81  O2    s     0.999574    0.003138    0.513825    0.000000
    82  O2    s     0.510881    0.995680    0.489361    0.000000
    83  O2    s     0.988947    0.006518    0.264639    0.000000
    84  O3    s     0.493147    0.974428    0.245290    0.000000
    85  O2    s     0.007842    0.008464    0.762975    0.000000
    86  O3    s     0.477134    0.991300    0.724547    0.000000
    87  O3    s     0.596755    0.207588    0.114710    0.000000
    88  O2    s     0.910554    0.799691    0.106811    0.000000
    89  O3    s     0.404982    0.213279    0.913934    0.000000
    90  O2    s     0.090006    0.801397    0.915668    0.000000
    91  O3    s     0.363791    0.861539    0.907324    0.000000
    92  O2    s     0.123593    0.133876    0.907808    0.000000
    93  O3    s     0.633639    0.853422    0.121203    0.000000
    94  O2    s     0.876363    0.131611    0.114465    0.000000
    95  O1    s     0.510729    0.953511    0.981431    0.000000
    96  O2    s     0.001133    0.033596    0.014091    0.000000
    97  O2    s     0.140802    0.474581    0.318578    0.000000
    98  O2    s     0.355779    0.518677    0.315506    0.000000
    99  O2    s     0.855337    0.477171    0.705112    0.000000
   100  O2    s     0.641634    0.516849    0.716043    0.000000
   101  O2    s     0.257079    0.266447    0.322768    0.000000
   102  O2    s     0.239450    0.726768    0.322431    0.000000
   103  O2    s     0.740281    0.264996    0.703526    0.000000
   104  O2    s     0.756395    0.728777    0.700776    0.000000
   105  O2    s     0.157825    0.239103    0.141891    0.000000
   106  O2    s     0.339409    0.764862    0.145597    0.000000
   107  O2    s     0.841871    0.238869    0.881048    0.000000
   108  O2    s     0.662158    0.762446    0.884931    0.000000
   109  O2    s     0.861900    0.711548    0.878899    0.000000
   110  O2    s     0.638528    0.274975    0.884975    0.000000
   111  O2    s     0.132825    0.710470    0.145947    0.000000
   112  O2    s     0.359520    0.280748    0.143259    0.000000
   113  O2    s     0.641168    0.525101    0.052039    0.000000
   114  O2    s     0.866728    0.469779    0.052451    0.000000
   115  O2    s     0.358245    0.529936    0.975983    0.000000
   116  O2    s     0.133964    0.471181    0.970461    0.000000
   117  O2    s     0.742632    0.282512    0.061003    0.000000
   118  O2    s     0.765558    0.710585    0.061773    0.000000
   119  O2    s     0.258002    0.282985    0.962807    0.000000
   120  O2    s     0.234085    0.714924    0.971195    0.000000
--------------------------------------------------------------------------------

  Final Cartesian lattice vectors (Angstroms) :

       17.017551   -0.006359   -0.096630
       -0.002832    7.568584    0.002146
       -0.056699    0.002958   10.317125


  Final cell parameters and derivatives :

--------------------------------------------------------------------------------
       a           17.017827 Angstrom     dE/de1(xx)    -0.002676 eV/strain
       b            7.568585 Angstrom     dE/de2(yy)    -0.001638 eV/strain
       c           10.317282 Angstrom     dE/de3(zz)     0.007658 eV/strain
       alpha       89.967209 Degrees      dE/de4(yz)     0.000349 eV/strain
       beta        90.640219 Degrees      dE/de5(xz)     0.000679 eV/strain
       gamma       90.042941 Degrees      dE/de6(xy)    -0.001037 eV/strain
--------------------------------------------------------------------------------

  Primitive cell volume =          1328.791322 Angs**3

  Density of cell =      1.913512 g/cm**3

  Non-primitive cell volume =          1328.791322 Angs**3


  Final internal derivatives :

--------------------------------------------------------------------------------
   No.  Atomic          a             b             c           Radius
        Label          (eV)          (eV)          (eV)        (eV/Angs)
--------------------------------------------------------------------------------
      1 Ge    c       0.000000      0.000000      0.000000      0.000000
      2 Ge    c      -0.002708     -0.000324      0.000993      0.000000
      3 Si    c       0.002949      0.000338     -0.000297      0.000000
      4 Si    c      -0.002984     -0.000255     -0.000188      0.000000
      5 Si    c      -0.002672     -0.000431      0.000212      0.000000
      6 Si    c       0.001762      0.000272      0.001568      0.000000
      7 Si    c      -0.002021     -0.000275     -0.001138      0.000000
      8 Si    c       0.002684      0.000226      0.000839      0.000000
      9 Si    c       0.000868     -0.000041      0.001827      0.000000
     10 Si    c      -0.001410     -0.000157      0.001481      0.000000
     11 Si    c      -0.001518      0.000495     -0.001564      0.000000
     12 Si    c       0.001630     -0.000509     -0.001650      0.000000
     13 Si    c      -0.000914      0.000138     -0.001802      0.000000
     14 Si    c       0.001289      0.000080     -0.001529      0.000000
     15 Si    c       0.001901     -0.000277      0.001587      0.000000
     16 Si    c      -0.002111      0.000217      0.001544      0.000000
     17 Si    c       0.000815     -0.000039      0.001809      0.000000
     18 Si    c      -0.001237     -0.000139      0.001632      0.000000
     19 Si    c      -0.001690      0.000397     -0.001546      0.000000
     20 Si    c       0.002115     -0.000285     -0.001612      0.000000
     21 Si    c      -0.001323     -0.000161     -0.001737      0.000000
     22 Si    c       0.001555      0.000224     -0.001537      0.000000
     23 Si    c       0.001505     -0.000718      0.001374      0.000000
     24 Si    c      -0.001670      0.000617      0.001601      0.000000
     25 O2    c      -0.000875     -0.000353     -0.000284      0.000000
     26 O2    c       0.001350      0.000616     -0.000105      0.000000
     27 O2    c       0.000720     -0.000335     -0.000055      0.000000
     28 O2    c      -0.000601      0.000298     -0.000096      0.000000
     29 O2    c       0.000140      0.000303      0.000376      0.000000
     30 O2    c      -0.000460     -0.000404      0.000028      0.000000
     31 O2    c      -0.000487      0.000208      0.000007      0.000000
     32 O2    c       0.000539     -0.000247     -0.000013      0.000000
     33 O2    c      -0.000131      0.000116      0.000172      0.000000
     34 O2    c      -0.000158     -0.000099     -0.001105      0.000000
     35 O2    c       0.000180      0.000183      0.000676      0.000000
     36 O3    c       0.000922     -0.000293     -0.001209      0.000000
     37 O2    c      -0.000217      0.000182     -0.000519      0.000000
     38 O3    c       0.001764     -0.000112     -0.002087      0.000000
     39 O3    c      -0.000021     -0.000378     -0.000609      0.000000
     40 O2    c       0.000390      0.000385     -0.000034      0.000000
     41 O3    c       0.000592     -0.000191     -0.000063      0.000000
     42 O2    c      -0.000625      0.000287     -0.000107      0.000000
     43 O3    c       0.002008      0.000691     -0.000090      0.000000
     44 O2    c      -0.001592     -0.000677     -0.000127      0.000000
     45 O3    c      -0.001480      0.000761      0.000341      0.000000
     46 O2    c       0.000836     -0.000451      0.000199      0.000000
     47 O1    c      -0.000741     -0.000644     -0.001507      0.000000
     48 O2    c      -0.000402      0.000221      0.000368      0.000000
     49 O2    c       0.000018      0.000241     -0.000222      0.000000
     50 O2    c      -0.000031     -0.000105     -0.000210      0.000000
     51 O2    c      -0.000188     -0.000279      0.000265      0.000000
     52 O2    c       0.000176      0.000147      0.000227      0.000000
     53 O2    c       0.000484      0.000195     -0.000576      0.000000
     54 O2    c       0.000071     -0.000166     -0.000517      0.000000
     55 O2    c       0.000242      0.000133      0.000501      0.000000
     56 O2    c      -0.000568     -0.000119      0.000550      0.000000
     57 O2    c      -0.000622     -0.000530     -0.000246      0.000000
     58 O2    c       0.000784      0.000575      0.000181      0.000000
     59 O2    c       0.000662     -0.000562     -0.000026      0.000000
     60 O2    c      -0.000512      0.000628      0.000138      0.000000
     61 O2    c       0.000892      0.000479      0.000200      0.000000
     62 O2    c      -0.000964     -0.000550     -0.000132      0.000000
     63 O2    c      -0.001091      0.000478     -0.000026      0.000000
     64 O2    c       0.000923     -0.000525     -0.000060      0.000000
     65 O2    c       0.000376      0.000347     -0.000209      0.000000
     66 O2    c      -0.000292     -0.000225     -0.000243      0.000000
     67 O2    c      -0.000044     -0.000220      0.000179      0.000000
     68 O2    c       0.000009      0.000103      0.000195      0.000000
     69 O2    c       0.000439      0.000038     -0.000501      0.000000
     70 O2    c      -0.000008     -0.000048     -0.000500      0.000000
     71 O2    c      -0.000195      0.000083      0.000555      0.000000
     72 O2    c      -0.000449     -0.000110      0.000516      0.000000
     73 O2    s       0.000375      0.000123      0.000529      0.000000
     74 O2    s      -0.000466     -0.000206      0.000621      0.000000
     75 O2    s      -0.000319      0.000131     -0.000462      0.000000
     76 O2    s       0.000130     -0.000100     -0.000360      0.000000
     77 O2    s      -0.000127     -0.000101     -0.000608      0.000000
     78 O2    s       0.000086      0.000085     -0.000431      0.000000
     79 O2    s       0.000403     -0.000022      0.000459      0.000000
     80 O2    s      -0.000349      0.000058      0.000621      0.000000
     81 O2    s       0.000034     -0.000069     -0.000051      0.000000
     82 O2    s       0.000117      0.000033      0.000428      0.000000
     83 O2    s      -0.000066     -0.000094     -0.000121      0.000000
     84 O3    s      -0.000587      0.000197      0.000579      0.000000
     85 O2    s       0.000075     -0.000092      0.000059      0.000000
     86 O3    s      -0.000913      0.000135      0.000871      0.000000
     87 O3    s       0.000207      0.000222      0.000895      0.000000
     88 O2    s      -0.000281     -0.000116      0.000372      0.000000
     89 O3    s      -0.000586      0.000015     -0.000309      0.000000
     90 O2    s       0.000572     -0.000080     -0.000391      0.000000
     91 O3    s      -0.001154     -0.000338     -0.000349      0.000000
     92 O2    s       0.000644      0.000217     -0.000330      0.000000
     93 O3    s       0.000982     -0.000426      0.000463      0.000000
     94 O2    s      -0.000323      0.000202      0.000285      0.000000
     95 O1    s       0.000485      0.000427      0.000748      0.000000
     96 O2    s       0.000077     -0.000163     -0.000110      0.000000
     97 O2    s       0.000356     -0.000020      0.000465      0.000000
     98 O2    s      -0.000372     -0.000011      0.000456      0.000000
     99 O2    s      -0.000287      0.000045     -0.000465      0.000000
    100 O2    s       0.000278     -0.000033     -0.000429      0.000000
    101 O2    s       0.000019      0.000059      0.000653      0.000000
    102 O2    s      -0.000057     -0.000073      0.000555      0.000000
    103 O2    s      -0.000088      0.000096     -0.000608      0.000000
    104 O2    s       0.000066     -0.000096     -0.000659      0.000000
    105 O2    s       0.000236      0.000157      0.000051      0.000000
    106 O2    s      -0.000375     -0.000180      0.000035      0.000000
    107 O2    s      -0.000175      0.000210      0.000008      0.000000
    108 O2    s       0.000060     -0.000226     -0.000026      0.000000
    109 O2    s      -0.000390     -0.000160     -0.000059      0.000000
    110 O2    s       0.000531      0.000203      0.000008      0.000000
    111 O2    s       0.000481     -0.000156      0.000018      0.000000
    112 O2    s      -0.000421      0.000159      0.000026      0.000000
    113 O2    s       0.000325     -0.000120      0.000337      0.000000
    114 O2    s      -0.000349      0.000088      0.000442      0.000000
    115 O2    s      -0.000483     -0.000051     -0.000354      0.000000
    116 O2    s       0.000518      0.000057     -0.000421      0.000000
    117 O2    s       0.000034      0.000161      0.000542      0.000000
    118 O2    s      -0.000046     -0.000138      0.000547      0.000000
    119 O2    s       0.000086      0.000116     -0.000568      0.000000
    120 O2    s       0.000022     -0.000109     -0.000502      0.000000
--------------------------------------------------------------------------------
  Maximum abs         0.002984      0.000761      0.002087      0.000000
--------------------------------------------------------------------------------


  Born effective charge tensors : 

-------------------------------------------------------------------------------
  Atom             x           y             z
-------------------------------------------------------------------------------
    1 Ge    x       4.3645      0.2855     -0.1585
            y      -0.1885      3.9134      0.0028
            z      -0.7931     -0.0602      3.7567
-------------------------------------------------------------------------------
    2 Ge    x       4.3895     -0.2911     -0.4273
            y       0.2052      3.9095     -0.0232
            z      -0.4905      0.0367      3.9283
-------------------------------------------------------------------------------
    3 Si    x       3.4566     -0.1385     -0.2273
            y       0.1277      3.2310     -0.0029
            z      -0.4962      0.0576      3.8394
-------------------------------------------------------------------------------
    4 Si    x       3.6325     -0.1814     -0.0882
            y       0.0993      3.2884      0.0310
            z       0.5589      0.0779      3.9608
-------------------------------------------------------------------------------
    5 Si    x       3.4742      0.1307     -0.1998
            y      -0.1213      3.2346      0.0004
            z      -0.5191     -0.0424      3.8315
-------------------------------------------------------------------------------
    6 Si    x       3.8046      0.1183      0.2683
            y      -0.0907      3.3053     -0.0046
            z       0.1245      0.0302      3.9376
-------------------------------------------------------------------------------
    7 Si    x       3.4087      0.1772      0.2477
            y      -0.2135      3.2489      0.0178
            z       0.4947      0.0414      3.1198
-------------------------------------------------------------------------------
    8 Si    x       3.4147     -0.1789      0.2249
            y       0.2063      3.2480     -0.0210
            z       0.5293     -0.0449      3.1124
-------------------------------------------------------------------------------
    9 Si    x       3.2055      0.3030     -0.1241
            y       0.1819      3.4740     -0.1482
            z      -0.1132     -0.0733      2.8186
-------------------------------------------------------------------------------
   10 Si    x       3.2312      0.3006      0.1750
            y       0.1693      3.4557      0.1764
            z       0.1131      0.0433      2.7740
-------------------------------------------------------------------------------
   11 Si    x       3.2179     -0.2977     -0.1334
            y      -0.1946      3.4725      0.1498
            z      -0.1109      0.0663      2.8118
-------------------------------------------------------------------------------
   12 Si    x       3.2430     -0.2843      0.1322
            y      -0.1937      3.4794     -0.1686
            z       0.1699     -0.0727      2.8050
-------------------------------------------------------------------------------
   13 Si    x       3.2071      0.2150     -0.0601
            y       0.3007      3.4486     -0.1789
            z      -0.0885     -0.0882      2.8206
-------------------------------------------------------------------------------
   14 Si    x       3.2259      0.2042      0.0762
            y       0.2859      3.4462      0.2016
            z       0.1225      0.0800      2.8072
-------------------------------------------------------------------------------
   15 Si    x       3.1989     -0.2118     -0.0633
            y      -0.2992      3.4456      0.1842
            z      -0.0710      0.0919      2.8197
-------------------------------------------------------------------------------
   16 Si    x       3.2068     -0.2125      0.0811
            y      -0.2820      3.4380     -0.1912
            z       0.1102     -0.0760      2.7871
-------------------------------------------------------------------------------
   17 Si    x       3.5137      0.3759     -0.3176
            y       0.3862      3.4787     -0.3297
            z      -0.3230     -0.1470      2.8973
-------------------------------------------------------------------------------
   18 Si    x       3.2216      0.2529      0.1415
            y       0.2758      3.3988      0.1670
            z       0.1756      0.0583      2.7119
-------------------------------------------------------------------------------
   19 Si    x       3.5414     -0.3585     -0.3238
            y      -0.4037      3.4997      0.3206
            z      -0.3515      0.1564      2.9181
-------------------------------------------------------------------------------
   20 Si    x       3.2196     -0.2463      0.1610
            y      -0.2755      3.4035     -0.1682
            z       0.1516     -0.0658      2.7110
-------------------------------------------------------------------------------
   21 Si    x       3.3016      0.4514     -0.3200
            y       0.1476      3.6288     -0.3975
            z      -0.1821     -0.2562      2.9744
-------------------------------------------------------------------------------
   22 Si    x       3.2053      0.3398      0.1763
            y       0.0831      3.4509      0.1833
            z       0.1074      0.0828      2.7352
-------------------------------------------------------------------------------
   23 Si    x       3.3472     -0.4735     -0.2949
            y      -0.1824      3.5950      0.3861
            z      -0.2130      0.2165      2.9250
-------------------------------------------------------------------------------
   24 Si    x       3.1927     -0.3465      0.1768
            y      -0.0825      3.4485     -0.1815
            z       0.1043     -0.0845      2.7313
-------------------------------------------------------------------------------
   25 O2    x      -1.7622     -0.7112      0.3378
            y      -0.7661     -1.9439      0.3597
            z       0.3714      0.3303     -1.3599
-------------------------------------------------------------------------------
   26 O2    x      -1.7690     -0.7053     -0.3031
            y      -0.7330     -1.9206     -0.3301
            z      -0.3520     -0.2895     -1.3584
-------------------------------------------------------------------------------
   27 O2    x      -1.7634      0.7107      0.3266
            y       0.7685     -1.9409     -0.3475
            z       0.3710     -0.3243     -1.3607
-------------------------------------------------------------------------------
   28 O2    x      -1.7835      0.7250     -0.4254
            y       0.7565     -1.9632      0.4079
            z      -0.4232      0.3803     -1.3776
-------------------------------------------------------------------------------
   29 O2    x      -1.6476     -0.6974      0.3154
            y      -0.6728     -2.0084      0.3289
            z       0.3685      0.3285     -1.3649
-------------------------------------------------------------------------------
   30 O2    x      -1.6767     -0.6909     -0.3973
            y      -0.6463     -2.0093     -0.4055
            z      -0.3822     -0.3824     -1.3881
-------------------------------------------------------------------------------
   31 O2    x      -1.6316      0.6907      0.3230
            y       0.6573     -2.0087     -0.3342
            z       0.3611     -0.3335     -1.3736
-------------------------------------------------------------------------------
   32 O2    x      -1.6539      0.6949     -0.3108
            y       0.6423     -2.0103      0.3343
            z      -0.3866      0.3208     -1.3505
-------------------------------------------------------------------------------
   33 O2    x      -1.6491      0.0055      0.8435
            y       0.0021     -1.0860     -0.0049
            z       1.1080     -0.0108     -2.7904
-------------------------------------------------------------------------------
   34 O2    x      -1.7264      0.0088     -0.7941
            y       0.0117     -1.1007      0.0058
            z      -1.0211     -0.0079     -2.6103
-------------------------------------------------------------------------------
   35 O2    x      -1.6734     -0.0060     -0.7171
            y       0.0169     -1.1195     -0.0070
            z      -0.7025     -0.0150     -2.2549
-------------------------------------------------------------------------------
   36 O3    x      -2.0996     -0.0001      1.0104
            y       0.0023     -1.2813     -0.0362
            z       0.9536     -0.0378     -2.7096
-------------------------------------------------------------------------------
   37 O2    x      -1.6970      0.0102     -0.7280
            y      -0.0134     -1.1191      0.0063
            z      -0.7288      0.0144     -2.2497
-------------------------------------------------------------------------------
   38 O3    x      -2.2029     -0.0157      0.9292
            y      -0.0541     -1.2329      0.0126
            z       0.9197     -0.0214     -2.6210
-------------------------------------------------------------------------------
   39 O3    x      -2.0245     -0.9047      0.5285
            y      -0.7874     -2.3615      0.5017
            z       0.5760      0.5001     -1.5027
-------------------------------------------------------------------------------
   40 O2    x      -1.6270     -0.6631     -0.3500
            y      -0.5508     -2.0268     -0.3786
            z      -0.3627     -0.3585     -1.2382
-------------------------------------------------------------------------------
   41 O3    x      -2.0438      0.8983      0.6318
            y       0.7641     -2.3715     -0.6177
            z       0.5977     -0.5813     -1.5664
-------------------------------------------------------------------------------
   42 O2    x      -1.6138      0.6619     -0.3490
            y       0.5485     -2.0286      0.3819
            z      -0.3569      0.3602     -1.2491
-------------------------------------------------------------------------------
   43 O3    x      -2.0474     -0.8903      0.6215
            y      -0.8476     -2.2882      0.6795
            z       0.5320      0.5974     -1.6165
-------------------------------------------------------------------------------
   44 O2    x      -1.7513     -0.6885     -0.3273
            y      -0.6712     -1.8990     -0.3663
            z      -0.3297     -0.3341     -1.2632
-------------------------------------------------------------------------------
   45 O3    x      -2.0803      0.8926      0.4511
            y       0.8798     -2.2547     -0.5432
            z       0.4868     -0.4984     -1.5323
-------------------------------------------------------------------------------
   46 O2    x      -1.7463      0.6891     -0.3400
            y       0.6641     -1.9001      0.3714
            z      -0.3299      0.3389     -1.2599
-------------------------------------------------------------------------------
   47 O1    x      -2.3286      0.0783     -0.8412
            y       0.0731     -1.4428      0.0072
            z      -0.4857     -0.0188     -2.1851
-------------------------------------------------------------------------------
   48 O2    x      -1.7572     -0.0057      0.5837
            y      -0.0040     -1.2177      0.0026
            z       0.3061      0.0009     -1.6758
-------------------------------------------------------------------------------
   49 O2    x      -1.1591      0.0660      0.0604
            y       0.1298     -2.5555     -0.0190
            z       0.0686      0.0048     -1.0724
-------------------------------------------------------------------------------
   50 O2    x      -1.1738      0.0681     -0.0687
            y       0.1249     -2.5610     -0.0063
            z      -0.0739     -0.0139     -1.0542
-------------------------------------------------------------------------------
   51 O2    x      -1.1553     -0.0593      0.0607
            y      -0.1141     -2.5637      0.0139
            z       0.0696     -0.0069     -1.0738
-------------------------------------------------------------------------------
   52 O2    x      -1.1779     -0.0660     -0.0578
            y      -0.1192     -2.5978     -0.0043
            z      -0.0736      0.0173     -1.0575
-------------------------------------------------------------------------------
   53 O2    x      -2.3968     -0.1185      0.0056
            y      -0.0629     -1.2580      0.0703
            z      -0.0239      0.0448     -1.0640
-------------------------------------------------------------------------------
   54 O2    x      -2.4129     -0.1244      0.0004
            y      -0.0583     -1.2552     -0.0680
            z       0.0136     -0.0409     -1.0552
-------------------------------------------------------------------------------
   55 O2    x      -2.4105      0.1055      0.0295
            y       0.0535     -1.2572     -0.0738
            z      -0.0097     -0.0458     -1.0650
-------------------------------------------------------------------------------
   56 O2    x      -2.4016      0.1144      0.0320
            y       0.0555     -1.2554      0.0690
            z       0.0241      0.0450     -1.0733
-------------------------------------------------------------------------------
   57 O2    x      -1.1710     -0.1277     -0.0317
            y      -0.0833     -1.2916      0.0212
            z      -0.0038     -0.0025     -2.0764
-------------------------------------------------------------------------------
   58 O2    x      -1.1938     -0.1346     -0.0202
            y      -0.0893     -1.3119     -0.0204
            z      -0.0272     -0.0015     -2.0440
-------------------------------------------------------------------------------
   59 O2    x      -1.1736      0.1306     -0.0433
            y       0.0870     -1.2911     -0.0214
            z      -0.0188      0.0064     -2.0667
-------------------------------------------------------------------------------
   60 O2    x      -1.1967      0.1309     -0.0242
            y       0.0851     -1.3142      0.0221
            z      -0.0329     -0.0020     -2.0455
-------------------------------------------------------------------------------
   61 O2    x      -1.2009     -0.1246     -0.0649
            y      -0.1276     -1.2716      0.0148
            z      -0.0801      0.0297     -2.0698
-------------------------------------------------------------------------------
   62 O2    x      -1.2380     -0.1391      0.0023
            y      -0.1335     -1.2957     -0.0245
            z       0.0261     -0.0341     -2.0457
-------------------------------------------------------------------------------
   63 O2    x      -1.2105      0.1314     -0.0478
            y       0.1346     -1.2701     -0.0054
            z      -0.0630     -0.0185     -2.0571
-------------------------------------------------------------------------------
   64 O2    x      -1.2277      0.1277      0.0167
            y       0.1281     -1.2883      0.0331
            z       0.0318      0.0495     -2.0509
-------------------------------------------------------------------------------
   65 O2    x      -1.2747     -0.0816      0.0950
            y      -0.1519     -2.3828     -0.0080
            z       0.1142      0.0051     -1.0374
-------------------------------------------------------------------------------
   66 O2    x      -1.2372     -0.0781     -0.0878
            y      -0.1631     -2.4747      0.0173
            z      -0.1040     -0.0016     -1.0133
-------------------------------------------------------------------------------
   67 O2    x      -1.2722      0.0891      0.1014
            y       0.1522     -2.4164     -0.0040
            z       0.1123     -0.0127     -1.0471
-------------------------------------------------------------------------------
   68 O2    x      -1.2317      0.0852     -0.0899
            y       0.1784     -2.4813     -0.0299
            z      -0.0989     -0.0054     -1.0176
-------------------------------------------------------------------------------
   69 O2    x      -2.4058      0.1525      0.0087
            y       0.1018     -1.2568      0.0662
            z       0.0185      0.0320     -1.0473
-------------------------------------------------------------------------------
   70 O2    x      -2.3614      0.1122      0.0040
            y       0.0633     -1.2455     -0.0667
            z       0.0150     -0.0370     -1.0486
-------------------------------------------------------------------------------
   71 O2    x      -2.4038     -0.1558     -0.0042
            y      -0.1008     -1.2585     -0.0731
            z       0.0092     -0.0385     -1.0554
-------------------------------------------------------------------------------
   72 O2    x      -2.3814     -0.1245     -0.0178
            y      -0.0723     -1.2531      0.0628
            z       0.0065      0.0401     -1.0378
-------------------------------------------------------------------------------




  Elastic Constant Matrix: (Units=GPa)

-------------------------------------------------------------------------------
  Indices      1         2         3         4         5         6    
-------------------------------------------------------------------------------
       1     54.5632   26.2913   31.1175    0.0040    2.0040   -1.5533
       2     26.2913   74.4155   24.8845   -0.3234    1.4242   -1.4802
       3     31.1175   24.8845   43.1268   -0.3446    0.3338   -1.0323
       4      0.0040   -0.3234   -0.3446   12.9798    0.1153    0.9974
       5      2.0040    1.4242    0.3338    0.1153   26.9518    1.1190
       6     -1.5533   -1.4802   -1.0323    0.9974    1.1190   30.1262
-------------------------------------------------------------------------------


  Elastic Compliance Matrix: (Units=1/GPa)

-------------------------------------------------------------------------------
  Indices      1         2         3         4         5         6    
-------------------------------------------------------------------------------
       1    0.032431 -0.004451 -0.020803 -0.000720 -0.001950  0.000837
       2   -0.004451  0.017286 -0.006747  0.000227 -0.000517  0.000400
       3   -0.020803 -0.006747  0.042086  0.000947  0.001380 -0.000045
       4   -0.000720  0.000227  0.000947  0.077271 -0.000195 -0.002545
       5   -0.001950 -0.000517  0.001380 -0.000195  0.037320 -0.001458
       6    0.000837  0.000400 -0.000045 -0.002545 -0.001458  0.033393
-------------------------------------------------------------------------------

  Mechanical properties :

-------------------------------------------------------------------------------
  Convention :                    Reuss         Voigt         Hill
-------------------------------------------------------------------------------
  Bulk  Modulus (GPa)     =      35.96890      37.41023      36.68957
  Shear Modulus (GPa)     =      15.97155      19.99905      17.98530
-------------------------------------------------------------------------------
  Velocity S-wave (km/s)  =       2.88907       3.23288       3.06580
  Velocity P-wave (km/s)  =       5.47049       5.78670       5.63082
-------------------------------------------------------------------------------
  Compressibility (1/GPa) =    0.02780180
-------------------------------------------------------------------------------
  Stress axis :                     x             y             z
-------------------------------------------------------------------------------
  Youngs Moduli (GPa)     =      30.83433      57.85148      23.76069
-------------------------------------------------------------------------------
  Poissons Ratio (x)      =                     0.25749       0.49429
  Poissons Ratio (y)      =       0.13724                     0.16032
  Poissons Ratio (z)      =       0.64144       0.39033
-------------------------------------------------------------------------------


  Piezoelectric Strain Matrix: (Units=C/m**2)

-------------------------------------------------------------------------------
  Indices      1         2         3         4         5         6    
-------------------------------------------------------------------------------
       x    -0.08785  -0.19646  -0.26667   0.27928   0.15051   0.02267
       y    -0.27201  -0.00222   0.50693   0.05621   0.50814  -0.02588
       z     0.48907   0.39724  -0.23882  -0.06413   0.18921   0.13236
-------------------------------------------------------------------------------


  Piezoelectric Stress Matrix: (Units=10**-11 C/N)

-------------------------------------------------------------------------------
  Indices      1         2         3         4         5         6    
-------------------------------------------------------------------------------
       x     0.30970  -0.12110  -0.75990   2.12592   0.54343  -0.03133
       y    -2.04105  -0.25081   2.77638   0.49856   2.02217  -0.19994
       z     1.88492   0.62418  -2.27107  -0.58178   0.53924   0.48863
-------------------------------------------------------------------------------


  Static dielectric constant tensor : 

-------------------------------------------------------------------------------
              x         y         z
-------------------------------------------------------------------------------
       x     3.82568  -0.00726  -0.09975
       y    -0.00726   3.88448  -0.04274
       z    -0.09975  -0.04274   3.24966
--------------------------------------------------------------------------------

  High frequency dielectric constant tensor : 

-------------------------------------------------------------------------------
              x         y         z
-------------------------------------------------------------------------------
       x     1.68917  -0.00032   0.00080
       y    -0.00032   1.69826  -0.00000
       z     0.00080  -0.00000   1.62851
-------------------------------------------------------------------------------

  Static refractive indices : 

-------------------------------------------------------------------------------
    1 =    1.79722      2 =    1.96022      3 =    1.97164
-------------------------------------------------------------------------------

  High frequency refractive indices : 

-------------------------------------------------------------------------------
    1 =    1.27613      2 =    1.29968      3 =    1.30318
-------------------------------------------------------------------------------


  Time to end of optimisation =       7.6348 seconds


  Peak dynamic memory used =       5.01 MB 


  Timing analysis for GULP :

--------------------------------------------------------------------------------
  Task / Subroutine                                          Time (Seconds)
--------------------------------------------------------------------------------
  Calculation of reciprocal space energy and derivatives          0.4659
  Calculation of real space energy and derivatives                4.5748
  Calculation of three-body energy and derivatives                0.5188
  Calculation and manipulation of Hessian matrix                  2.5023
  Calculation of matrix inversion                                 0.0218
--------------------------------------------------------------------------------
  Total CPU time                                                  7.6348
--------------------------------------------------------------------------------


  Dump file written as c00017.vasp.grs
  CIF file written as c00017.vasp.cif


  Job Finished at 10:49.32  7th October    2025                               

