********************************************************************************
*                       GENERAL UTILITY LATTICE PROGRAM                        *
*                                 Julian Gale                                  *
*                       Curtin Institute for Computation                       *
*                    School of Molecular and Life Sciences                     *
*                    Curtin University, Western Australia                      *
********************************************************************************
* Version = 6.1.2 * Last modified =   3rd November 2022                        *
********************************************************************************
*  optimise     - perform optimisation run                                     *
*  conp         - constant pressure calculation                                *
*  property     - calculate properties for final geometry                      *
********************************************************************************

  Job Started  at 22:36.43  6th October    2025                               

  Number of CPUs =     1


  Total number of configurations input =      1

********************************************************************************
*  Input for Configuration =   1 : c00002.vasp                                 *
********************************************************************************

  Formula = Ge4Si8O24                                                   

  Number of irreducible atoms/shells =      60


  Total number atoms/shells =      60

  Dimensionality = 3               :  Bulk   



  Cartesian lattice vectors (Angstroms) :

        9.086940    0.000000    0.000000
        0.000000    7.554810    0.000000
       -3.295144    0.000000    9.944380

  Cell parameters (Angstroms/Degrees):

  a =       9.0869    alpha =  90.0000
  b =       7.5548    beta  = 108.3330
  c =      10.4761    gamma =  90.0000

  Initial cell volume =         682.682735 Angs**3

  Temperature of configuration =   0.00     K 

  Pressure of configuration =         0.000 GPa 

  Fractional coordinates of asymmetric unit :

--------------------------------------------------------------------------------
   No.  Atomic       x           y          z         Charge      Occupancy
        Label      (Frac)      (Frac)     (Frac)        (e)         (Frac)  
--------------------------------------------------------------------------------
      1 Ge    c    0.313820    0.296860    0.309830     4.00000    1.000000    
      2 Ge    c    0.686180 *  0.296860 *  0.690170 *   4.00000    1.000000    
      3 Ge    c    0.686180 *  0.703140 *  0.690170 *   4.00000    1.000000    
      4 Ge    c    0.331050 *  0.296920 *  0.607380 *   4.00000    1.000000    
      5 Si    c    0.313820 *  0.703140 *  0.309830 *   4.00000    1.000000    
      6 Si    c    0.668950 *  0.296920 *  0.392620 *   4.00000    1.000000    
      7 Si    c    0.668950 *  0.703080 *  0.392620 *   4.00000    1.000000    
      8 Si    c    0.331050 *  0.703080 *  0.607380 *   4.00000    1.000000    
      9 Si    c    0.879680 *  0.000000 *  0.350160 *   4.00000    1.000000    
     10 Si    c    0.120320 *  0.000000 *  0.649840 *   4.00000    1.000000    
     11 Si    c    0.093070 *  0.000000 *  0.158230 *   4.00000    1.000000    
     12 Si    c    0.906930 *  0.000000 *  0.841770 *   4.00000    1.000000    
     13 O1    c    0.268740 *  0.279030 *  0.446100 *   1.73396    1.000000    
     14 O3    c    0.731260 *  0.279030 *  0.553900 *   1.33043    1.000000    
     15 O3    c    0.731260 *  0.720970 *  0.553900 *   1.33043    1.000000    
     16 O2    c    0.268740 *  0.720970 *  0.446100 *   0.87073    1.000000    
     17 O3    c    0.295480 *  0.500000 *  0.260860 *   1.33043    1.000000    
     18 O1    c    0.704520 *  0.500000 *  0.739140 *   1.73396    1.000000    
     19 O3    c    0.490600 *  0.234690 *  0.337530 *   1.33043    1.000000    
     20 O1    c    0.509400 *  0.234690 *  0.662470 *   1.73396    1.000000    
     21 O3    c    0.509400 *  0.765310 *  0.662470 *   1.33043    1.000000    
     22 O2    c    0.490600 *  0.765310 *  0.337530 *   0.87073    1.000000    
     23 O3    c    0.200440 *  0.174000 *  0.194980 *   1.33043    1.000000    
     24 O3    c    0.799560 *  0.174000 *  0.805020 *   1.33043    1.000000    
     25 O3    c    0.799560 *  0.826000 *  0.805020 *   1.33043    1.000000    
     26 O2    c    0.200440 *  0.826000 *  0.194980 *   0.87073    1.000000    
     27 O3    c    0.317860 *  0.500000 *  0.649090 *   1.33043    1.000000    
     28 O2    c    0.682140 *  0.500000 *  0.350910 *   0.87073    1.000000    
     29 O3    c    0.227920 *  0.173870 *  0.671620 *   1.33043    1.000000    
     30 O2    c    0.772080 *  0.173870 *  0.328380 *   0.87073    1.000000    
     31 O2    c    0.772080 *  0.826130 *  0.328380 *   0.87073    1.000000    
     32 O2    c    0.227920 *  0.826130 *  0.671620 *   0.87073    1.000000    
     33 O2    c    0.000000 *  0.000000 *  0.500000 *   0.87073    1.000000    
     34 O2    c    0.971960 *  0.000000 *  0.241930 *   0.87073    1.000000    
     35 O2    c    0.028040 *  0.000000 *  0.758070 *   0.87073    1.000000    
     36 O2    c    0.000000 *  0.000000 *  0.000000 *   0.87073    1.000000    
     37 O1    s    0.268740 *  0.279030 *  0.446100 *  -3.73396    1.000000    
     38 O3    s    0.731260 *  0.279030 *  0.553900 *  -3.33043    1.000000    
     39 O3    s    0.731260 *  0.720970 *  0.553900 *  -3.33043    1.000000    
     40 O2    s    0.268740 *  0.720970 *  0.446100 *  -2.87073    1.000000    
     41 O3    s    0.295480 *  0.500000 *  0.260860 *  -3.33043    1.000000    
     42 O1    s    0.704520 *  0.500000 *  0.739140 *  -3.73396    1.000000    
     43 O3    s    0.490600 *  0.234690 *  0.337530 *  -3.33043    1.000000    
     44 O1    s    0.509400 *  0.234690 *  0.662470 *  -3.73396    1.000000    
     45 O3    s    0.509400 *  0.765310 *  0.662470 *  -3.33043    1.000000    
     46 O2    s    0.490600 *  0.765310 *  0.337530 *  -2.87073    1.000000    
     47 O3    s    0.200440 *  0.174000 *  0.194980 *  -3.33043    1.000000    
     48 O3    s    0.799560 *  0.174000 *  0.805020 *  -3.33043    1.000000    
     49 O3    s    0.799560 *  0.826000 *  0.805020 *  -3.33043    1.000000    
     50 O2    s    0.200440 *  0.826000 *  0.194980 *  -2.87073    1.000000    
     51 O3    s    0.317860 *  0.500000 *  0.649090 *  -3.33043    1.000000    
     52 O2    s    0.682140 *  0.500000 *  0.350910 *  -2.87073    1.000000    
     53 O3    s    0.227920 *  0.173870 *  0.671620 *  -3.33043    1.000000    
     54 O2    s    0.772080 *  0.173870 *  0.328380 *  -2.87073    1.000000    
     55 O2    s    0.772080 *  0.826130 *  0.328380 *  -2.87073    1.000000    
     56 O2    s    0.227920 *  0.826130 *  0.671620 *  -2.87073    1.000000    
     57 O2    s    0.000000 *  0.000000 *  0.500000 *  -2.87073    1.000000    
     58 O2    s    0.971960 *  0.000000 *  0.241930 *  -2.87073    1.000000    
     59 O2    s    0.028040 *  0.000000 *  0.758070 *  -2.87073    1.000000    
     60 O2    s    0.000000 *  0.000000 *  0.000000 *  -2.87073    1.000000    
--------------------------------------------------------------------------------



********************************************************************************
*  General input information                                                   *
********************************************************************************

  Species output for all configurations : 

--------------------------------------------------------------------------------
  Species    Type    Atomic    Atomic    Charge       Radii (Angs)     Library
                     Number     Mass       (e)     Cova   Ionic  VDW   Symbol
--------------------------------------------------------------------------------
    Ge       Core       32      72.61   4.000000   1.170  0.000  1.750 Ge       
    Si       Core       14      28.09   4.000000   1.200  0.000  2.100 Si       
    O1       Core        8      16.00   1.733957   0.730  0.000  1.360 O1       
    O2       Core        8      16.00   0.870733   0.730  0.000  1.360 O2       
    O3       Core        8      16.00   1.330431   0.730  0.000  1.360 O3       
    O1       Shell       8       0.00  -3.733957   0.730  0.000  0.000 O1       
    O2       Shell       8       0.00  -2.870733   0.730  0.000  0.000 O2       
    O3       Shell       8       0.00  -3.330431   0.730  0.000  0.000 O3       
--------------------------------------------------------------------------------


  Lattice summation method               =    Ewald          (3-D)
                                         =    Parry          (2-D)
                                         =    Saunders et al (1-D)
  Accuracy factor for lattice sums       =   12.000


  Analytic derivatives to be used

  Time limit = Infinity

  Maximum range for interatomic potentials =    100000.000000 Angstroms

  General interatomic potentials :

--------------------------------------------------------------------------------
Atom  Types   Potential      Parameter       Value         Units   Cutoffs(Ang)
  1     2                                                            Min /  Max 
--------------------------------------------------------------------------------
Si   c O1   s Buckingham    Buckingham A     1315.2478    eV        0.000 16.000
                            Buckingham rho  0.31775900    Ang       
                            Buckingham C     10.141118    eV*Ang^6  
--------------------------------------------------------------------------------
Si   c O2   s Buckingham    Buckingham A     1315.2478    eV        0.000 16.000
                            Buckingham rho  0.31775900    Ang       
                            Buckingham C     10.141118    eV*Ang^6  
--------------------------------------------------------------------------------
Si   c O3   s Buckingham    Buckingham A     1315.2478    eV        0.000 16.000
                            Buckingham rho  0.31775900    Ang       
                            Buckingham C     10.141118    eV*Ang^6  
--------------------------------------------------------------------------------
Ge   c O1   s Buckingham    Buckingham A     1497.3996    eV        0.000 16.000
                            Buckingham rho  0.32564600    Ang       
                            Buckingham C     16.808599    eV*Ang^6  
--------------------------------------------------------------------------------
Ge   c O2   s Buckingham    Buckingham A     1497.3996    eV        0.000 16.000
                            Buckingham rho  0.32564600    Ang       
                            Buckingham C     16.808599    eV*Ang^6  
--------------------------------------------------------------------------------
Ge   c O3   s Buckingham    Buckingham A     1497.3996    eV        0.000 16.000
                            Buckingham rho  0.32564600    Ang       
                            Buckingham C     16.808599    eV*Ang^6  
--------------------------------------------------------------------------------
O1   s O1   s Buckingham    Buckingham A     22764.000    eV        0.000 16.000
                            Buckingham rho  0.14900000    Ang       
                            Buckingham C     10.937044    eV*Ang^6  
--------------------------------------------------------------------------------
O1   s O2   s Buckingham    Buckingham A     22764.000    eV        0.000 16.000
                            Buckingham rho  0.14900000    Ang       
                            Buckingham C     10.937044    eV*Ang^6  
--------------------------------------------------------------------------------
O1   s O3   s Buckingham    Buckingham A     22764.000    eV        0.000 16.000
                            Buckingham rho  0.14900000    Ang       
                            Buckingham C     10.937044    eV*Ang^6  
--------------------------------------------------------------------------------
O2   s O2   s Buckingham    Buckingham A     22764.000    eV        0.000 16.000
                            Buckingham rho  0.14900000    Ang       
                            Buckingham C     10.937044    eV*Ang^6  
--------------------------------------------------------------------------------
O2   s O3   s Buckingham    Buckingham A     22764.000    eV        0.000 16.000
                            Buckingham rho  0.14900000    Ang       
                            Buckingham C     10.937044    eV*Ang^6  
--------------------------------------------------------------------------------
O3   s O3   s Buckingham    Buckingham A     22764.000    eV        0.000 16.000
                            Buckingham rho  0.14900000    Ang       
                            Buckingham C     10.937044    eV*Ang^6  
--------------------------------------------------------------------------------
O1   c O1   s Spring (c-s)  Spring k 2       180.31577    eV*Ang^-2 0.000  0.800
                            Spring k 4       0.0000000    eV*Ang^-4 
--------------------------------------------------------------------------------
O2   c O2   s Spring (c-s)  Spring k 2       75.969800    eV*Ang^-2 0.000  0.800
                            Spring k 4       0.0000000    eV*Ang^-4 
--------------------------------------------------------------------------------
O3   c O3   s Spring (c-s)  Spring k 2       128.14270    eV*Ang^-2 0.000  0.800
                            Spring k 4       0.0000000    eV*Ang^-4 
--------------------------------------------------------------------------------

  General Three-body potentials :

--------------------------------------------------------------------------------
  Atoms       Potential      Parameter       Value         Units   Cutoffs(Ang)
  1 / 2 / 3                                                          Min /  Max 
--------------------------------------------------------------------------------
Si    core    Harmonic      Three-body cnst  1.2614000    eV*rad^-2 0.000  1.900
O1    shel                  Three-body angl  109.47000    degrees   0.000  1.900
O1    shel                  Three-body k4    0.0000000    eV*rad^-4 0.000  3.500
                            Three-body k3    0.0000000    eV*rad^-3 
--------------------------------------------------------------------------------
Si    core    Harmonic      Three-body cnst  1.2614000    eV*rad^-2 0.000  1.900
O1    shel                  Three-body angl  109.47000    degrees   0.000  1.900
õ(1   shel                  Three-body k4    0.0000000    eV*rad^-4 0.000  3.500
                            Three-body k3    0.0000000    eV*rad^-3 
--------------------------------------------------------------------------------
Si    core    Harmonic      Three-body cnst  1.2614000    eV*rad^-2 0.000  1.900
õ(1   shel                  Three-body angl  109.47000    degrees   0.000  1.900
õ(1   shel                  Three-body k4    0.0000000    eV*rad^-4 0.000  3.500
                            Three-body k3    0.0000000    eV*rad^-3 
--------------------------------------------------------------------------------
Si    core    Harmonic      Three-body cnst  1.2614000    eV*rad^-2 0.000  1.900
O1    shel                  Three-body angl  109.47000    degrees   0.000  1.900
O2    shel                  Three-body k4    0.0000000    eV*rad^-4 0.000  3.500
                            Three-body k3    0.0000000    eV*rad^-3 
--------------------------------------------------------------------------------
Si    core    Harmonic      Three-body cnst  1.2614000    eV*rad^-2 0.000  1.900
O1    shel                  Three-body angl  109.47000    degrees   0.000  1.900
õ(2   shel                  Three-body k4    0.0000000    eV*rad^-4 0.000  3.500
                            Three-body k3    0.0000000    eV*rad^-3 
--------------------------------------------------------------------------------
Si    core    Harmonic      Three-body cnst  1.2614000    eV*rad^-2 0.000  1.900
O2    shel                  Three-body angl  109.47000    degrees   0.000  1.900
õ(1   shel                  Three-body k4    0.0000000    eV*rad^-4 0.000  3.500
                            Three-body k3    0.0000000    eV*rad^-3 
--------------------------------------------------------------------------------
Si    core    Harmonic      Three-body cnst  1.2614000    eV*rad^-2 0.000  1.900
õ(1   shel                  Three-body angl  109.47000    degrees   0.000  1.900
õ(2   shel                  Three-body k4    0.0000000    eV*rad^-4 0.000  3.500
                            Three-body k3    0.0000000    eV*rad^-3 
--------------------------------------------------------------------------------
Si    core    Harmonic      Three-body cnst  1.2614000    eV*rad^-2 0.000  1.900
O2    shel                  Three-body angl  109.47000    degrees   0.000  1.900
O2    shel                  Three-body k4    0.0000000    eV*rad^-4 0.000  3.500
                            Three-body k3    0.0000000    eV*rad^-3 
--------------------------------------------------------------------------------
Si    core    Harmonic      Three-body cnst  1.2614000    eV*rad^-2 0.000  1.900
O2    shel                  Three-body angl  109.47000    degrees   0.000  1.900
õ(2   shel                  Three-body k4    0.0000000    eV*rad^-4 0.000  3.500
                            Three-body k3    0.0000000    eV*rad^-3 
--------------------------------------------------------------------------------
Si    core    Harmonic      Three-body cnst  1.2614000    eV*rad^-2 0.000  1.900
õ(2   shel                  Three-body angl  109.47000    degrees   0.000  1.900
õ(2   shel                  Three-body k4    0.0000000    eV*rad^-4 0.000  3.500
                            Three-body k3    0.0000000    eV*rad^-3 
--------------------------------------------------------------------------------

********************************************************************************
*  Output for configuration   1 : c00002.vasp                                  *
********************************************************************************


  Components of energy : 

--------------------------------------------------------------------------------
  Interatomic potentials     =         400.28767256 eV    
  Three-body potentials      =           0.00023663 eV    
  Monopole - monopole (real) =       -1236.99964305 eV    
  Monopole - monopole (recip)=        -659.26603192 eV    
  Monopole - monopole (total)=       -1896.26567496 eV    
--------------------------------------------------------------------------------
  Total lattice energy       =       -1495.97776578 eV    
--------------------------------------------------------------------------------
  Total lattice energy       =         -144338.9863 kJ/(mole unit cells)
--------------------------------------------------------------------------------


  Number of variables =      183

  Maximum number of calculations  =          1000
  Maximum Hessian update interval =            10
  Maximum step size               =   0.100000000
  Maximum parameter tolerance     =   0.000010000
  Maximum function  tolerance     =   0.000010000
  Maximum gradient  tolerance     =   0.001000000
  Maximum gradient  component     =   0.010000000

  Symmetry not applied to optimisation

  Cell parameters to be optimised using strains

  Newton-Raphson optimiser to be used

  BFGS hessian update to be used

  Lower half triangular hessian to be used

  Minimiser to switch to RFO
  When gradient norm is less than     0.050000

  Dumpfile to be written after every cycle

  Start of bulk optimisation :

  Cycle:      0 Energy:     -1495.977766  Gnorm:      5.617450  CPU:    0.027
  ** Hessian calculated **
  Cycle:      1 Energy:     -1510.885795  Gnorm:      2.686361  CPU:    0.079
  ** Hessian calculated **
  Cycle:      2 Energy:     -1514.491108  Gnorm:      0.746353  CPU:    0.129
  Cycle:      3 Energy:     -1514.976372  Gnorm:      0.359697  CPU:    0.159
  Cycle:      4 Energy:     -1515.232176  Gnorm:      0.266778  CPU:    0.195
  Cycle:      5 Energy:     -1515.455842  Gnorm:      0.249538  CPU:    0.232
  Cycle:      6 Energy:     -1515.621974  Gnorm:      0.219499  CPU:    0.262
  Cycle:      7 Energy:     -1515.750473  Gnorm:      0.198587  CPU:    0.292
  Cycle:      8 Energy:     -1515.846589  Gnorm:      0.161346  CPU:    0.322
  Cycle:      9 Energy:     -1515.901513  Gnorm:      0.120104  CPU:    0.352
  Cycle:     10 Energy:     -1515.937454  Gnorm:      0.096132  CPU:    0.382
  Cycle:     11 Energy:     -1515.966111  Gnorm:      0.083947  CPU:    0.412
  ** Hessian calculated **
  Cycle:     12 Energy:     -1515.990081  Gnorm:      0.082352  CPU:    0.466
  Cycle:     13 Energy:     -1516.030537  Gnorm:      0.079524  CPU:    0.507
  Cycle:     14 Energy:     -1516.093040  Gnorm:      0.074795  CPU:    0.548
  Cycle:     15 Energy:     -1516.167178  Gnorm:      0.068662  CPU:    0.584
  Cycle:     16 Energy:     -1516.276491  Gnorm:      0.058593  CPU:    0.625
  Cycle:     17 Energy:     -1516.382966  Gnorm:      0.047977  CPU:    0.661
  ** Hessian has wrong structure
  ** Imaginary eigenvectors =   2
  Cycle:     18 Energy:     -1516.393591  Gnorm:      0.064767  CPU:    0.729
  ** Hessian has wrong structure
  ** Imaginary eigenvectors =   1
  ** Hessian has required structure
  Cycle:     19 Energy:     -1516.578281  Gnorm:      0.057525  CPU:    0.851
  ** Hessian has required structure
  Cycle:     20 Energy:     -1516.635101  Gnorm:      0.027103  CPU:    0.887
  ** Hessian has required structure
  Cycle:     21 Energy:     -1516.678369  Gnorm:      0.053899  CPU:    0.922
  ** Hessian has required structure
  Cycle:     22 Energy:     -1516.694494  Gnorm:      0.046428  CPU:    0.958
  ** Hessian has required structure
  Cycle:     23 Energy:     -1516.710442  Gnorm:      0.028358  CPU:    0.999
  ** Hessian has required structure
  Cycle:     24 Energy:     -1516.723745  Gnorm:      0.037491  CPU:    1.040
  ** Hessian has required structure
  Cycle:     25 Energy:     -1516.742603  Gnorm:      0.035554  CPU:    1.075
  ** Hessian has required structure
  Cycle:     26 Energy:     -1516.757944  Gnorm:      0.038610  CPU:    1.111
  ** Hessian has required structure
  Cycle:     27 Energy:     -1516.773239  Gnorm:      0.038769  CPU:    1.147
  ** Hessian has required structure
  Cycle:     28 Energy:     -1516.784682  Gnorm:      0.027768  CPU:    1.183
  ** Hessian has required structure
  Cycle:     29 Energy:     -1516.806050  Gnorm:      0.025892  CPU:    1.242
  ** Hessian has required structure
  Cycle:     30 Energy:     -1516.823897  Gnorm:      0.028717  CPU:    1.279
  ** Hessian has required structure
  Cycle:     31 Energy:     -1516.826643  Gnorm:      0.019336  CPU:    1.310
  ** Hessian has required structure
  Cycle:     32 Energy:     -1516.829419  Gnorm:      0.011275  CPU:    1.345
  ** Hessian has required structure
  Cycle:     33 Energy:     -1516.830475  Gnorm:      0.007093  CPU:    1.387
  ** Hessian has required structure
  Cycle:     34 Energy:     -1516.831084  Gnorm:      0.004832  CPU:    1.428
  ** Hessian has required structure
  Cycle:     35 Energy:     -1516.831327  Gnorm:      0.002678  CPU:    1.464
  ** Hessian has required structure
  Cycle:     36 Energy:     -1516.831455  Gnorm:      0.001974  CPU:    1.506
  ** Hessian has required structure
  Cycle:     37 Energy:     -1516.831509  Gnorm:      0.000983  CPU:    1.548
  ** Hessian has required structure
  Cycle:     38 Energy:     -1516.831532  Gnorm:      0.000678  CPU:    1.589
  ** Hessian has required structure
  Cycle:     39 Energy:     -1516.831553  Gnorm:      0.000364  CPU:    1.650
  ** Hessian has required structure
  Cycle:     40 Energy:     -1516.831560  Gnorm:      0.000206  CPU:    1.692
  ** Hessian has required structure
  Cycle:     41 Energy:     -1516.831433  Gnorm:      0.005889  CPU:    1.740
  ** Hessian has required structure
  Cycle:     42 Energy:     -1516.831532  Gnorm:      0.002945  CPU:    1.801
  ** Hessian has required structure
  Cycle:     43 Energy:     -1516.831555  Gnorm:      0.001472  CPU:    1.842
  ** Hessian has required structure
  Cycle:     44 Energy:     -1516.831561  Gnorm:      0.000736  CPU:    1.884
  ** Hessian has required structure
  Cycle:     45 Energy:     -1516.831562  Gnorm:      0.000657  CPU:    1.914
  ** Hessian has required structure
  Cycle:     46 Energy:     -1516.831562  Gnorm:      0.000638  CPU:    1.945
  ** Hessian has required structure
  Cycle:     47 Energy:     -1516.831562  Gnorm:      0.000640  CPU:    1.992
  ** Hessian has required structure


  **** Optimisation achieved ****


  Final energy =   -1516.83156267 eV      
  Final Gnorm  =       0.00009586

  Components of energy : 

--------------------------------------------------------------------------------
  Interatomic potentials     =         404.78751440 eV    
  Three-body potentials      =           0.03962307 eV    
  Monopole - monopole (real) =        -831.69963443 eV    
  Monopole - monopole (recip)=       -1089.95906571 eV    
  Monopole - monopole (total)=       -1921.65870014 eV    
--------------------------------------------------------------------------------
  Total lattice energy       =       -1516.83156267 eV    
--------------------------------------------------------------------------------
  Total lattice energy       =         -146351.0589 kJ/(mole unit cells)
--------------------------------------------------------------------------------

  Final fractional coordinates of atoms :

--------------------------------------------------------------------------------
   No.  Atomic        x           y          z          Radius
        Label       (Frac)      (Frac)     (Frac)       (Angs) 
--------------------------------------------------------------------------------
     1  Ge    c     0.313820    0.296860    0.309830    0.000000
     2  Ge    c     0.712113    0.289772    0.721278    0.000000
     3  Ge    c     0.669635    0.708384    0.719064    0.000000
     4  Ge    c     0.337299    0.244486    0.635454    0.000000
     5  Si    c     0.314098    0.685764    0.320705    0.000000
     6  Si    c     0.685959    0.333494    0.401292    0.000000
     7  Si    c     0.660242    0.736264    0.395614    0.000000
     8  Si    c     0.321005    0.642100    0.635438    0.000000
     9  Si    c     0.874796    0.037685    0.348069    0.000000
    10  Si    c     0.106988    0.948422    0.648380    0.000000
    11  Si    c     0.098211    0.999897    0.173812    0.000000
    12  Si    c     0.920517    0.972091    0.862464    0.000000
    13  O1    c     0.267472    0.233712    0.457706    0.000000
    14  O3    c     0.753907    0.293180    0.565210    0.000000
    15  O3    c     0.696543    0.762729    0.558452    0.000000
    16  O2    c     0.337582    0.610722    0.481072    0.000000
    17  O3    c     0.270200    0.511365    0.240257    0.000000
    18  O1    c     0.718004    0.496336    0.774867    0.000000
    19  O3    c     0.510448    0.273247    0.346688    0.000000
    20  O1    c     0.531782    0.201383    0.696162    0.000000
    21  O3    c     0.478374    0.735587    0.714700    0.000000
    22  O2    c     0.477795    0.768591    0.315771    0.000000
    23  O3    c     0.210553    0.163033    0.182756    0.000000
    24  O3    c     0.859891    0.169496    0.837824    0.000000
    25  O3    c     0.773073    0.847476    0.839154    0.000000
    26  O2    c     0.186863    0.835952    0.272534    0.000000
    27  O3    c     0.305417    0.446232    0.693557    0.000000
    28  O2    c     0.703824    0.541085    0.368080    0.000000
    29  O3    c     0.240106    0.086449    0.706792    0.000000
    30  O2    c     0.785586    0.222452    0.327664    0.000000
    31  O2    c     0.756051    0.875908    0.329646    0.000000
    32  O2    c     0.175801    0.760474    0.631533    0.000000
    33  O2    c     0.002325    0.022037    0.497544    0.000000
    34  O2    c     0.951652    0.043991    0.224241    0.000000
    35  O2    c     0.006419    0.915193    0.753260    0.000000
    36  O2    c     0.039551    0.942487    0.016393    0.000000
    37  O1    s     0.276301    0.239401    0.459558    0.000000
    38  O3    s     0.743574    0.296968    0.561102    0.000000
    39  O3    s     0.690770    0.755825    0.555017    0.000000
    40  O2    s     0.334143    0.620322    0.480083    0.000000
    41  O3    s     0.277813    0.512852    0.253460    0.000000
    42  O1    s     0.713727    0.496605    0.766214    0.000000
    43  O3    s     0.512084    0.281411    0.349218    0.000000
    44  O1    s     0.530744    0.211342    0.693469    0.000000
    45  O3    s     0.477374    0.724253    0.707131    0.000000
    46  O2    s     0.479525    0.756720    0.324418    0.000000
    47  O3    s     0.207443    0.157178    0.192038    0.000000
    48  O3    s     0.854000    0.159525    0.830913    0.000000
    49  O3    s     0.779079    0.848217    0.831396    0.000000
    50  O2    s     0.192070    0.836169    0.267605    0.000000
    51  O3    s     0.309338    0.450616    0.683489    0.000000
    52  O2    s     0.697341    0.540019    0.374370    0.000000
    53  O3    s     0.234391    0.085103    0.695278    0.000000
    54  O2    s     0.784473    0.214663    0.337598    0.000000
    55  O2    s     0.758201    0.877807    0.338950    0.000000
    56  O2    s     0.184636    0.766976    0.633711    0.000000
    57  O2    s     0.999614    0.015618    0.497468    0.000000
    58  O2    s     0.958987    0.038533    0.232495    0.000000
    59  O2    s     0.008433    0.924871    0.753138    0.000000
    60  O2    s     0.032983    0.952041    0.016877    0.000000
--------------------------------------------------------------------------------

  Final Cartesian lattice vectors (Angstroms) :

        9.076231   -0.071098    0.110836
       -0.067129    7.662039    0.243857
       -3.160625    0.333340    9.562689


  Final cell parameters and derivatives :

--------------------------------------------------------------------------------
       a            9.077186 Angstrom     dE/de1(xx)     0.005306 eV/strain
       b            7.666212 Angstrom     dE/de2(yy)     0.003081 eV/strain
       c           10.076988 Angstrom     dE/de3(zz)    -0.003141 eV/strain
       alpha       86.216092 Degrees      dE/de4(yz)     0.001972 eV/strain
       beta       107.595001 Degrees      dE/de5(xz)     0.000171 eV/strain
       gamma       90.927977 Degrees      dE/de6(xy)     0.001913 eV/strain
--------------------------------------------------------------------------------

  Primitive cell volume =           666.965608 Angs**3

  Density of cell =      2.238667 g/cm**3

  Non-primitive cell volume =           666.965608 Angs**3


  Final internal derivatives :

--------------------------------------------------------------------------------
   No.  Atomic          a             b             c           Radius
        Label          (eV)          (eV)          (eV)        (eV/Angs)
--------------------------------------------------------------------------------
      1 Ge    c       0.000000      0.000000      0.000000      0.000000
      2 Ge    c       0.003364     -0.000954     -0.000428      0.000000
      3 Ge    c       0.001953     -0.000876     -0.001872      0.000000
      4 Ge    c       0.000103      0.000327     -0.002870      0.000000
      5 Si    c      -0.002592      0.000388      0.003155      0.000000
      6 Si    c       0.001320     -0.000000      0.002559      0.000000
      7 Si    c      -0.000455      0.000044      0.002026      0.000000
      8 Si    c      -0.000918     -0.000763     -0.001945      0.000000
      9 Si    c       0.001792      0.000759      0.001602      0.000000
     10 Si    c      -0.002083     -0.000352     -0.002570      0.000000
     11 Si    c       0.000263     -0.002705     -0.001930      0.000000
     12 Si    c       0.001510      0.001831      0.003181      0.000000
     13 O1    c       0.001251      0.000822      0.002127      0.000000
     14 O3    c      -0.000290      0.000129     -0.002452      0.000000
     15 O3    c      -0.000535     -0.000479     -0.000412      0.000000
     16 O2    c       0.000392      0.000644     -0.001851      0.000000
     17 O3    c       0.000181     -0.003240     -0.001697      0.000000
     18 O1    c      -0.000742      0.002498      0.001212      0.000000
     19 O3    c      -0.000341     -0.001570     -0.000049      0.000000
     20 O1    c      -0.003198     -0.001766      0.000643      0.000000
     21 O3    c      -0.000923      0.001553      0.001841      0.000000
     22 O2    c       0.001985      0.001018     -0.001181      0.000000
     23 O3    c       0.001888      0.001801     -0.001154      0.000000
     24 O3    c      -0.001642      0.000558     -0.001017      0.000000
     25 O3    c      -0.002130     -0.000748      0.000930      0.000000
     26 O2    c      -0.000381      0.001125     -0.000724      0.000000
     27 O3    c      -0.000114      0.000615      0.000810      0.000000
     28 O2    c       0.000311      0.000653     -0.000927      0.000000
     29 O3    c       0.001226      0.000844      0.001544      0.000000
     30 O2    c       0.000596     -0.000529     -0.001010      0.000000
     31 O2    c      -0.000648     -0.000721     -0.000678      0.000000
     32 O2    c      -0.000405      0.000239      0.000186      0.000000
     33 O2    c      -0.000119     -0.000807      0.001028      0.000000
     34 O2    c      -0.001357      0.000384      0.000691      0.000000
     35 O2    c       0.000179     -0.000068      0.000093      0.000000
     36 O2    c      -0.001386      0.000448     -0.002088      0.000000
     37 O1    s      -0.001541     -0.000969     -0.000650      0.000000
     38 O3    s       0.001280      0.000092      0.001356      0.000000
     39 O3    s       0.000618      0.000454      0.000178      0.000000
     40 O2    s      -0.000327     -0.000141      0.001212      0.000000
     41 O3    s      -0.000568      0.001280      0.000785      0.000000
     42 O1    s       0.000885     -0.001066     -0.000670      0.000000
     43 O3    s      -0.000159      0.000043     -0.000325      0.000000
     44 O1    s       0.001312      0.000374     -0.000624      0.000000
     45 O3    s       0.000683     -0.000500     -0.001029      0.000000
     46 O2    s      -0.000077     -0.000046      0.000959      0.000000
     47 O3    s      -0.000608     -0.000716      0.000961      0.000000
     48 O3    s       0.001534     -0.000217      0.000275      0.000000
     49 O3    s       0.001244      0.000315     -0.000601      0.000000
     50 O2    s      -0.000559     -0.000558      0.000667      0.000000
     51 O3    s      -0.000263     -0.000554     -0.000737      0.000000
     52 O2    s       0.000667      0.000227      0.000084      0.000000
     53 O3    s      -0.000735     -0.000272     -0.001800      0.000000
     54 O2    s       0.000531     -0.000046      0.000793      0.000000
     55 O2    s       0.000341      0.000210      0.000615      0.000000
     56 O2    s      -0.000732      0.000021     -0.000191      0.000000
     57 O2    s       0.000254      0.000507      0.000017      0.000000
     58 O2    s       0.000357     -0.000152      0.000523      0.000000
     59 O2    s      -0.000187     -0.000208     -0.000246      0.000000
     60 O2    s       0.000251     -0.000291     -0.000100      0.000000
--------------------------------------------------------------------------------
  Maximum abs         0.003364      0.003240      0.003181      0.000000
--------------------------------------------------------------------------------


  Born effective charge tensors : 

-------------------------------------------------------------------------------
  Atom             x           y             z
-------------------------------------------------------------------------------
    1 Ge    x       3.8771      0.3349      0.2693
            y       0.3128      4.2671      0.2139
            z       0.1085      0.2424      3.5593
-------------------------------------------------------------------------------
    2 Ge    x       3.9270     -0.0684      0.2796
            y      -0.3675      4.2444     -0.1570
            z       0.2217     -0.1076      3.6087
-------------------------------------------------------------------------------
    3 Ge    x       3.8923      0.2687      0.2813
            y       0.2033      4.1986      0.1739
            z       0.2095      0.1362      3.6250
-------------------------------------------------------------------------------
    4 Ge    x       4.1048      0.3412     -0.0151
            y       0.2566      4.2283      0.0485
            z       0.2321     -0.0295      3.3966
-------------------------------------------------------------------------------
    5 Si    x       3.1682     -0.0717      0.0804
            y      -0.2614      3.6779      0.1886
            z       0.3571     -0.1549      2.8558
-------------------------------------------------------------------------------
    6 Si    x       3.6324     -0.1379      0.0746
            y      -0.2836      3.6286      0.0819
            z       0.2439      0.0662      3.0759
-------------------------------------------------------------------------------
    7 Si    x       3.3870      0.2946     -0.0352
            y       0.2492      3.4581      0.0639
            z       0.0083      0.0886      3.0503
-------------------------------------------------------------------------------
    8 Si    x       3.6050      0.0438      0.1752
            y      -0.1429      3.8151     -0.1291
            z      -0.0394      0.2072      2.8247
-------------------------------------------------------------------------------
    9 Si    x       3.6310     -0.0359     -0.0814
            y       0.0031      3.2279      0.0346
            z      -0.2351      0.0229      2.9654
-------------------------------------------------------------------------------
   10 Si    x       3.7821     -0.0050      0.0958
            y       0.1761      3.3939      0.2640
            z      -0.2475     -0.0978      3.0394
-------------------------------------------------------------------------------
   11 Si    x       3.4149      0.0472      0.2375
            y       0.2784      3.4238     -0.1445
            z       0.0536      0.3800      3.8145
-------------------------------------------------------------------------------
   12 Si    x       3.4809     -0.1953     -0.0405
            y       0.2505      3.5719      0.1183
            z       0.4741     -0.0051      3.9635
-------------------------------------------------------------------------------
   13 O1    x      -1.5967     -0.2239      0.4026
            y      -0.2127     -1.5379      0.0383
            z       0.3071      0.0699     -2.5667
-------------------------------------------------------------------------------
   14 O3    x      -1.4183      0.0878      0.2551
            y       0.1151     -1.4130      0.1975
            z       0.2591      0.1497     -2.5378
-------------------------------------------------------------------------------
   15 O3    x      -1.4643     -0.1381      0.3322
            y      -0.1120     -1.3830     -0.1071
            z       0.3482     -0.0511     -2.5879
-------------------------------------------------------------------------------
   16 O2    x      -1.3359      0.0363      0.2863
            y       0.0983     -1.3812      0.0661
            z       0.2779      0.0941     -1.9393
-------------------------------------------------------------------------------
   17 O3    x      -1.2302      0.0014     -0.0849
            y       0.0193     -2.9621     -0.2672
            z      -0.1158     -0.2671     -1.4402
-------------------------------------------------------------------------------
   18 O1    x      -1.3372      0.1923     -0.0813
            y       0.2699     -3.3452     -0.0309
            z      -0.0709     -0.0162     -1.4096
-------------------------------------------------------------------------------
   19 O3    x      -2.9827     -0.1836     -0.5419
            y      -0.1091     -1.4628     -0.1039
            z      -0.5369     -0.1230     -1.2699
-------------------------------------------------------------------------------
   20 O1    x      -3.0945     -0.1784     -0.5176
            y      -0.0984     -1.5617      0.0175
            z      -0.5268      0.0146     -1.3611
-------------------------------------------------------------------------------
   21 O3    x      -2.7447     -0.2798     -0.4933
            y      -0.2035     -1.4491     -0.1766
            z      -0.4949     -0.2386     -1.4113
-------------------------------------------------------------------------------
   22 O2    x      -2.3020     -0.1468     -0.2840
            y      -0.0721     -1.2647      0.0219
            z      -0.3384      0.0465     -1.1493
-------------------------------------------------------------------------------
   23 O3    x      -1.7848     -0.7877     -0.4270
            y      -0.8173     -2.4046     -0.5646
            z      -0.3823     -0.6564     -1.7394
-------------------------------------------------------------------------------
   24 O3    x      -1.6402      0.7104     -0.3689
            y       0.6938     -2.4715      0.5504
            z      -0.4670      0.5807     -1.7537
-------------------------------------------------------------------------------
   25 O3    x      -2.0388     -0.7480     -0.4624
            y      -0.8420     -2.0810     -0.6061
            z      -0.5213     -0.5817     -1.8110
-------------------------------------------------------------------------------
   26 O2    x      -1.5400      0.5990     -0.3624
            y       0.5800     -1.9346      0.4927
            z      -0.3648      0.4758     -1.4670
-------------------------------------------------------------------------------
   27 O3    x      -1.3414     -0.0587      0.1134
            y       0.0283     -3.0708      0.0963
            z       0.1181      0.0894     -1.2613
-------------------------------------------------------------------------------
   28 O2    x      -1.2482      0.0891      0.0298
            y       0.1291     -2.5673     -0.0338
            z       0.0135     -0.0229     -1.0298
-------------------------------------------------------------------------------
   29 O3    x      -2.2371     -0.9797     -0.0551
            y      -0.9620     -2.2783     -0.0905
            z      -0.0085     -0.0204     -1.3031
-------------------------------------------------------------------------------
   30 O2    x      -1.8001      0.7537      0.1991
            y       0.6957     -2.0242     -0.1647
            z       0.1676     -0.1441     -1.1356
-------------------------------------------------------------------------------
   31 O2    x      -1.9021     -0.8015      0.1149
            y      -0.7622     -1.9526      0.0916
            z       0.1229      0.0838     -1.0965
-------------------------------------------------------------------------------
   32 O2    x      -1.9116      0.7665      0.0450
            y       0.7252     -1.9764     -0.0877
            z       0.1300     -0.0926     -1.0377
-------------------------------------------------------------------------------
   33 O2    x      -1.5293      0.1232     -0.5402
            y       0.0422     -1.1989      0.1535
            z      -0.3082      0.2325     -2.0197
-------------------------------------------------------------------------------
   34 O2    x      -2.2120      0.1852      0.6307
            y       0.1212     -1.1381     -0.0463
            z       0.6702     -0.1124     -1.6835
-------------------------------------------------------------------------------
   35 O2    x      -2.0300      0.1159      0.7417
            y       0.0211     -1.1536     -0.1207
            z       0.6673     -0.0808     -1.8352
-------------------------------------------------------------------------------
   36 O2    x      -1.1805      0.0490     -0.2532
            y      -0.0225     -1.1229     -0.0825
            z      -0.3332     -0.1783     -2.9326
-------------------------------------------------------------------------------




  Elastic Constant Matrix: (Units=GPa)

-------------------------------------------------------------------------------
  Indices      1         2         3         4         5         6    
-------------------------------------------------------------------------------
       1     43.6463   23.5268   18.6858   -0.4564    1.9419  -13.9840
       2     23.5268   57.6451   16.7985    2.8606    7.3097  -10.6173
       3     18.6858   16.7985   40.7120   10.7447    4.2616    3.4533
       4     -0.4564    2.8606   10.7447   11.1876    1.6836    2.8865
       5      1.9419    7.3097    4.2616    1.6836   13.4906    3.4828
       6    -13.9840  -10.6173    3.4533    2.8865    3.4828   22.8055
-------------------------------------------------------------------------------


  Elastic Compliance Matrix: (Units=1/GPa)

-------------------------------------------------------------------------------
  Indices      1         2         3         4         5         6    
-------------------------------------------------------------------------------
       1    0.047538 -0.007024 -0.026887  0.023094 -0.004584  0.027728
       2   -0.007024  0.025987 -0.006654 -0.001338 -0.013654  0.011054
       3   -0.026887 -0.006654  0.053219 -0.045073  0.002033 -0.022249
       4    0.023094 -0.001338 -0.045073  0.133759 -0.006185  0.004378
       5   -0.004584 -0.013654  0.002033 -0.006185  0.088029 -0.022136
       6    0.027728  0.011054 -0.022249  0.004378 -0.022136  0.072193
-------------------------------------------------------------------------------

  Mechanical properties :

-------------------------------------------------------------------------------
  Convention :                    Reuss         Voigt         Hill
-------------------------------------------------------------------------------
  Bulk  Modulus (GPa)     =      21.92378      28.89175      25.40776
  Shear Modulus (GPa)     =       9.67006      15.02955      12.34980
-------------------------------------------------------------------------------
  Velocity S-wave (km/s)  =       2.07836       2.59106       2.34874
  Velocity P-wave (km/s)  =       3.94368       4.67518       4.32492
-------------------------------------------------------------------------------
  Compressibility (1/GPa) =    0.04561258
-------------------------------------------------------------------------------
  Stress axis :                     x             y             z
-------------------------------------------------------------------------------
  Youngs Moduli (GPa)     =      21.03586      38.48053      18.79024
-------------------------------------------------------------------------------
  Poissons Ratio (x)      =                     0.27029       0.50522
  Poissons Ratio (y)      =       0.14776                     0.12503
  Poissons Ratio (z)      =       0.56560       0.25605
-------------------------------------------------------------------------------


  Piezoelectric Strain Matrix: (Units=C/m**2)

-------------------------------------------------------------------------------
  Indices      1         2         3         4         5         6    
-------------------------------------------------------------------------------
       x    -1.68716  -1.89619   0.79432  -0.41818  -0.27195  -0.06920
       y    -0.51669   0.08389  -0.40043   0.00464   0.13361  -0.01053
       z    -0.51351  -1.08801  -0.96183  -1.04130   0.77871  -0.37037
-------------------------------------------------------------------------------


  Piezoelectric Stress Matrix: (Units=10**-11 C/N)

-------------------------------------------------------------------------------
  Indices      1         2         3         4         5         6    
-------------------------------------------------------------------------------
       x    -9.85720  -3.92033  12.00896 -12.67858   1.54188  -8.62202
       y    -1.51823   0.65268  -0.76796   0.57526   1.23749  -0.81877
       z    -2.87942  -3.16012   2.66173 -11.27719   9.84417  -5.33992
-------------------------------------------------------------------------------


  Static dielectric constant tensor : 

-------------------------------------------------------------------------------
              x         y         z
-------------------------------------------------------------------------------
       x     4.47991   0.21166   0.28871
       y     0.21166   4.73069   0.17423
       z     0.28871   0.17423   3.49183
--------------------------------------------------------------------------------

  High frequency dielectric constant tensor : 

-------------------------------------------------------------------------------
              x         y         z
-------------------------------------------------------------------------------
       x     1.65283  -0.00106   0.01031
       y    -0.00106   1.65749   0.00659
       z     0.01031   0.00659   1.59984
-------------------------------------------------------------------------------

  Static refractive indices : 

-------------------------------------------------------------------------------
    1 =    1.84490      2 =    2.09390      3 =    2.21684
-------------------------------------------------------------------------------

  High frequency refractive indices : 

-------------------------------------------------------------------------------
    1 =    1.26379      2 =    1.28637      3 =    1.28772
-------------------------------------------------------------------------------


  Time to end of optimisation =       2.0612 seconds


  Peak dynamic memory used =       2.76 MB 


  Timing analysis for GULP :

--------------------------------------------------------------------------------
  Task / Subroutine                                          Time (Seconds)
--------------------------------------------------------------------------------
  Calculation of reciprocal space energy and derivatives          0.1290
  Calculation of real space energy and derivatives                1.6799
  Calculation of three-body energy and derivatives                0.0558
  Calculation and manipulation of Hessian matrix                  0.2513
  Calculation of matrix inversion                                 0.0018
--------------------------------------------------------------------------------
  Total CPU time                                                  2.0612
--------------------------------------------------------------------------------


  Dump file written as c00002.vasp.grs
  CIF file written as c00002.vasp.cif


  Job Finished at 22:36.45  6th October    2025                               

