********************************************************************************
*                       GENERAL UTILITY LATTICE PROGRAM                        *
*                                 Julian Gale                                  *
*                       Curtin Institute for Computation                       *
*                    School of Molecular and Life Sciences                     *
*                    Curtin University, Western Australia                      *
********************************************************************************
* Version = 6.1.2 * Last modified =   3rd November 2022                        *
********************************************************************************
*  optimise     - perform optimisation run                                     *
*  conp         - constant pressure calculation                                *
*  property     - calculate properties for final geometry                      *
********************************************************************************

  Job Started  at 22:36.48  6th October    2025                               

  Number of CPUs =     1


  Total number of configurations input =      1

********************************************************************************
*  Input for Configuration =   1 : c00004.vasp                                 *
********************************************************************************

  Formula = Ge4Si8O24                                                   

  Number of irreducible atoms/shells =      60


  Total number atoms/shells =      60

  Dimensionality = 3               :  Bulk   



  Cartesian lattice vectors (Angstroms) :

        9.086940    0.000000    0.000000
        0.000000    7.554810    0.000000
       -3.295144    0.000000    9.944380

  Cell parameters (Angstroms/Degrees):

  a =       9.0869    alpha =  90.0000
  b =       7.5548    beta  = 108.3330
  c =      10.4761    gamma =  90.0000

  Initial cell volume =         682.682735 Angs**3

  Temperature of configuration =   0.00     K 

  Pressure of configuration =         0.000 GPa 

  Fractional coordinates of asymmetric unit :

--------------------------------------------------------------------------------
   No.  Atomic       x           y          z         Charge      Occupancy
        Label      (Frac)      (Frac)     (Frac)        (e)         (Frac)  
--------------------------------------------------------------------------------
      1 Ge    c    0.313820    0.296860    0.309830     4.00000    1.000000    
      2 Ge    c    0.686180 *  0.296860 *  0.690170 *   4.00000    1.000000    
      3 Ge    c    0.686180 *  0.703140 *  0.690170 *   4.00000    1.000000    
      4 Ge    c    0.668950 *  0.703080 *  0.392620 *   4.00000    1.000000    
      5 Si    c    0.313820 *  0.703140 *  0.309830 *   4.00000    1.000000    
      6 Si    c    0.331050 *  0.296920 *  0.607380 *   4.00000    1.000000    
      7 Si    c    0.668950 *  0.296920 *  0.392620 *   4.00000    1.000000    
      8 Si    c    0.331050 *  0.703080 *  0.607380 *   4.00000    1.000000    
      9 Si    c    0.879680 *  0.000000 *  0.350160 *   4.00000    1.000000    
     10 Si    c    0.120320 *  0.000000 *  0.649840 *   4.00000    1.000000    
     11 Si    c    0.093070 *  0.000000 *  0.158230 *   4.00000    1.000000    
     12 Si    c    0.906930 *  0.000000 *  0.841770 *   4.00000    1.000000    
     13 O3    c    0.268740 *  0.279030 *  0.446100 *   1.33043    1.000000    
     14 O3    c    0.731260 *  0.279030 *  0.553900 *   1.33043    1.000000    
     15 O1    c    0.731260 *  0.720970 *  0.553900 *   1.73396    1.000000    
     16 O2    c    0.268740 *  0.720970 *  0.446100 *   0.87073    1.000000    
     17 O3    c    0.295480 *  0.500000 *  0.260860 *   1.33043    1.000000    
     18 O1    c    0.704520 *  0.500000 *  0.739140 *   1.73396    1.000000    
     19 O3    c    0.490600 *  0.234690 *  0.337530 *   1.33043    1.000000    
     20 O3    c    0.509400 *  0.234690 *  0.662470 *   1.33043    1.000000    
     21 O3    c    0.509400 *  0.765310 *  0.662470 *   1.33043    1.000000    
     22 O3    c    0.490600 *  0.765310 *  0.337530 *   1.33043    1.000000    
     23 O3    c    0.200440 *  0.174000 *  0.194980 *   1.33043    1.000000    
     24 O3    c    0.799560 *  0.174000 *  0.805020 *   1.33043    1.000000    
     25 O3    c    0.799560 *  0.826000 *  0.805020 *   1.33043    1.000000    
     26 O2    c    0.200440 *  0.826000 *  0.194980 *   0.87073    1.000000    
     27 O2    c    0.317860 *  0.500000 *  0.649090 *   0.87073    1.000000    
     28 O3    c    0.682140 *  0.500000 *  0.350910 *   1.33043    1.000000    
     29 O2    c    0.227920 *  0.173870 *  0.671620 *   0.87073    1.000000    
     30 O2    c    0.772080 *  0.173870 *  0.328380 *   0.87073    1.000000    
     31 O3    c    0.772080 *  0.826130 *  0.328380 *   1.33043    1.000000    
     32 O2    c    0.227920 *  0.826130 *  0.671620 *   0.87073    1.000000    
     33 O2    c    0.000000 *  0.000000 *  0.500000 *   0.87073    1.000000    
     34 O2    c    0.971960 *  0.000000 *  0.241930 *   0.87073    1.000000    
     35 O2    c    0.028040 *  0.000000 *  0.758070 *   0.87073    1.000000    
     36 O2    c    0.000000 *  0.000000 *  0.000000 *   0.87073    1.000000    
     37 O3    s    0.268740 *  0.279030 *  0.446100 *  -3.33043    1.000000    
     38 O3    s    0.731260 *  0.279030 *  0.553900 *  -3.33043    1.000000    
     39 O1    s    0.731260 *  0.720970 *  0.553900 *  -3.73396    1.000000    
     40 O2    s    0.268740 *  0.720970 *  0.446100 *  -2.87073    1.000000    
     41 O3    s    0.295480 *  0.500000 *  0.260860 *  -3.33043    1.000000    
     42 O1    s    0.704520 *  0.500000 *  0.739140 *  -3.73396    1.000000    
     43 O3    s    0.490600 *  0.234690 *  0.337530 *  -3.33043    1.000000    
     44 O3    s    0.509400 *  0.234690 *  0.662470 *  -3.33043    1.000000    
     45 O3    s    0.509400 *  0.765310 *  0.662470 *  -3.33043    1.000000    
     46 O3    s    0.490600 *  0.765310 *  0.337530 *  -3.33043    1.000000    
     47 O3    s    0.200440 *  0.174000 *  0.194980 *  -3.33043    1.000000    
     48 O3    s    0.799560 *  0.174000 *  0.805020 *  -3.33043    1.000000    
     49 O3    s    0.799560 *  0.826000 *  0.805020 *  -3.33043    1.000000    
     50 O2    s    0.200440 *  0.826000 *  0.194980 *  -2.87073    1.000000    
     51 O2    s    0.317860 *  0.500000 *  0.649090 *  -2.87073    1.000000    
     52 O3    s    0.682140 *  0.500000 *  0.350910 *  -3.33043    1.000000    
     53 O2    s    0.227920 *  0.173870 *  0.671620 *  -2.87073    1.000000    
     54 O2    s    0.772080 *  0.173870 *  0.328380 *  -2.87073    1.000000    
     55 O3    s    0.772080 *  0.826130 *  0.328380 *  -3.33043    1.000000    
     56 O2    s    0.227920 *  0.826130 *  0.671620 *  -2.87073    1.000000    
     57 O2    s    0.000000 *  0.000000 *  0.500000 *  -2.87073    1.000000    
     58 O2    s    0.971960 *  0.000000 *  0.241930 *  -2.87073    1.000000    
     59 O2    s    0.028040 *  0.000000 *  0.758070 *  -2.87073    1.000000    
     60 O2    s    0.000000 *  0.000000 *  0.000000 *  -2.87073    1.000000    
--------------------------------------------------------------------------------



********************************************************************************
*  General input information                                                   *
********************************************************************************

  Species output for all configurations : 

--------------------------------------------------------------------------------
  Species    Type    Atomic    Atomic    Charge       Radii (Angs)     Library
                     Number     Mass       (e)     Cova   Ionic  VDW   Symbol
--------------------------------------------------------------------------------
    Ge       Core       32      72.61   4.000000   1.170  0.000  1.750 Ge       
    Si       Core       14      28.09   4.000000   1.200  0.000  2.100 Si       
    O1       Core        8      16.00   1.733957   0.730  0.000  1.360 O1       
    O2       Core        8      16.00   0.870733   0.730  0.000  1.360 O2       
    O3       Core        8      16.00   1.330431   0.730  0.000  1.360 O3       
    O1       Shell       8       0.00  -3.733957   0.730  0.000  0.000 O1       
    O2       Shell       8       0.00  -2.870733   0.730  0.000  0.000 O2       
    O3       Shell       8       0.00  -3.330431   0.730  0.000  0.000 O3       
--------------------------------------------------------------------------------


  Lattice summation method               =    Ewald          (3-D)
                                         =    Parry          (2-D)
                                         =    Saunders et al (1-D)
  Accuracy factor for lattice sums       =   12.000


  Analytic derivatives to be used

  Time limit = Infinity

  Maximum range for interatomic potentials =    100000.000000 Angstroms

  General interatomic potentials :

--------------------------------------------------------------------------------
Atom  Types   Potential      Parameter       Value         Units   Cutoffs(Ang)
  1     2                                                            Min /  Max 
--------------------------------------------------------------------------------
Si   c O1   s Buckingham    Buckingham A     1315.2478    eV        0.000 16.000
                            Buckingham rho  0.31775900    Ang       
                            Buckingham C     10.141118    eV*Ang^6  
--------------------------------------------------------------------------------
Si   c O2   s Buckingham    Buckingham A     1315.2478    eV        0.000 16.000
                            Buckingham rho  0.31775900    Ang       
                            Buckingham C     10.141118    eV*Ang^6  
--------------------------------------------------------------------------------
Si   c O3   s Buckingham    Buckingham A     1315.2478    eV        0.000 16.000
                            Buckingham rho  0.31775900    Ang       
                            Buckingham C     10.141118    eV*Ang^6  
--------------------------------------------------------------------------------
Ge   c O1   s Buckingham    Buckingham A     1497.3996    eV        0.000 16.000
                            Buckingham rho  0.32564600    Ang       
                            Buckingham C     16.808599    eV*Ang^6  
--------------------------------------------------------------------------------
Ge   c O2   s Buckingham    Buckingham A     1497.3996    eV        0.000 16.000
                            Buckingham rho  0.32564600    Ang       
                            Buckingham C     16.808599    eV*Ang^6  
--------------------------------------------------------------------------------
Ge   c O3   s Buckingham    Buckingham A     1497.3996    eV        0.000 16.000
                            Buckingham rho  0.32564600    Ang       
                            Buckingham C     16.808599    eV*Ang^6  
--------------------------------------------------------------------------------
O1   s O1   s Buckingham    Buckingham A     22764.000    eV        0.000 16.000
                            Buckingham rho  0.14900000    Ang       
                            Buckingham C     10.937044    eV*Ang^6  
--------------------------------------------------------------------------------
O1   s O2   s Buckingham    Buckingham A     22764.000    eV        0.000 16.000
                            Buckingham rho  0.14900000    Ang       
                            Buckingham C     10.937044    eV*Ang^6  
--------------------------------------------------------------------------------
O1   s O3   s Buckingham    Buckingham A     22764.000    eV        0.000 16.000
                            Buckingham rho  0.14900000    Ang       
                            Buckingham C     10.937044    eV*Ang^6  
--------------------------------------------------------------------------------
O2   s O2   s Buckingham    Buckingham A     22764.000    eV        0.000 16.000
                            Buckingham rho  0.14900000    Ang       
                            Buckingham C     10.937044    eV*Ang^6  
--------------------------------------------------------------------------------
O2   s O3   s Buckingham    Buckingham A     22764.000    eV        0.000 16.000
                            Buckingham rho  0.14900000    Ang       
                            Buckingham C     10.937044    eV*Ang^6  
--------------------------------------------------------------------------------
O3   s O3   s Buckingham    Buckingham A     22764.000    eV        0.000 16.000
                            Buckingham rho  0.14900000    Ang       
                            Buckingham C     10.937044    eV*Ang^6  
--------------------------------------------------------------------------------
O1   c O1   s Spring (c-s)  Spring k 2       180.31577    eV*Ang^-2 0.000  0.800
                            Spring k 4       0.0000000    eV*Ang^-4 
--------------------------------------------------------------------------------
O2   c O2   s Spring (c-s)  Spring k 2       75.969800    eV*Ang^-2 0.000  0.800
                            Spring k 4       0.0000000    eV*Ang^-4 
--------------------------------------------------------------------------------
O3   c O3   s Spring (c-s)  Spring k 2       128.14270    eV*Ang^-2 0.000  0.800
                            Spring k 4       0.0000000    eV*Ang^-4 
--------------------------------------------------------------------------------

  General Three-body potentials :

--------------------------------------------------------------------------------
  Atoms       Potential      Parameter       Value         Units   Cutoffs(Ang)
  1 / 2 / 3                                                          Min /  Max 
--------------------------------------------------------------------------------
Si    core    Harmonic      Three-body cnst  1.2614000    eV*rad^-2 0.000  1.900
O1    shel                  Three-body angl  109.47000    degrees   0.000  1.900
O1    shel                  Three-body k4    0.0000000    eV*rad^-4 0.000  3.500
                            Three-body k3    0.0000000    eV*rad^-3 
--------------------------------------------------------------------------------
Si    core    Harmonic      Three-body cnst  1.2614000    eV*rad^-2 0.000  1.900
O1    shel                  Three-body angl  109.47000    degrees   0.000  1.900
õ(1   shel                  Three-body k4    0.0000000    eV*rad^-4 0.000  3.500
                            Three-body k3    0.0000000    eV*rad^-3 
--------------------------------------------------------------------------------
Si    core    Harmonic      Three-body cnst  1.2614000    eV*rad^-2 0.000  1.900
õ(1   shel                  Three-body angl  109.47000    degrees   0.000  1.900
õ(1   shel                  Three-body k4    0.0000000    eV*rad^-4 0.000  3.500
                            Three-body k3    0.0000000    eV*rad^-3 
--------------------------------------------------------------------------------
Si    core    Harmonic      Three-body cnst  1.2614000    eV*rad^-2 0.000  1.900
O1    shel                  Three-body angl  109.47000    degrees   0.000  1.900
O2    shel                  Three-body k4    0.0000000    eV*rad^-4 0.000  3.500
                            Three-body k3    0.0000000    eV*rad^-3 
--------------------------------------------------------------------------------
Si    core    Harmonic      Three-body cnst  1.2614000    eV*rad^-2 0.000  1.900
O1    shel                  Three-body angl  109.47000    degrees   0.000  1.900
õ(2   shel                  Three-body k4    0.0000000    eV*rad^-4 0.000  3.500
                            Three-body k3    0.0000000    eV*rad^-3 
--------------------------------------------------------------------------------
Si    core    Harmonic      Three-body cnst  1.2614000    eV*rad^-2 0.000  1.900
O2    shel                  Three-body angl  109.47000    degrees   0.000  1.900
õ(1   shel                  Three-body k4    0.0000000    eV*rad^-4 0.000  3.500
                            Three-body k3    0.0000000    eV*rad^-3 
--------------------------------------------------------------------------------
Si    core    Harmonic      Three-body cnst  1.2614000    eV*rad^-2 0.000  1.900
õ(1   shel                  Three-body angl  109.47000    degrees   0.000  1.900
õ(2   shel                  Three-body k4    0.0000000    eV*rad^-4 0.000  3.500
                            Three-body k3    0.0000000    eV*rad^-3 
--------------------------------------------------------------------------------
Si    core    Harmonic      Three-body cnst  1.2614000    eV*rad^-2 0.000  1.900
O2    shel                  Three-body angl  109.47000    degrees   0.000  1.900
O2    shel                  Three-body k4    0.0000000    eV*rad^-4 0.000  3.500
                            Three-body k3    0.0000000    eV*rad^-3 
--------------------------------------------------------------------------------
Si    core    Harmonic      Three-body cnst  1.2614000    eV*rad^-2 0.000  1.900
O2    shel                  Three-body angl  109.47000    degrees   0.000  1.900
õ(2   shel                  Three-body k4    0.0000000    eV*rad^-4 0.000  3.500
                            Three-body k3    0.0000000    eV*rad^-3 
--------------------------------------------------------------------------------
Si    core    Harmonic      Three-body cnst  1.2614000    eV*rad^-2 0.000  1.900
õ(2   shel                  Three-body angl  109.47000    degrees   0.000  1.900
õ(2   shel                  Three-body k4    0.0000000    eV*rad^-4 0.000  3.500
                            Three-body k3    0.0000000    eV*rad^-3 
--------------------------------------------------------------------------------

********************************************************************************
*  Output for configuration   1 : c00004.vasp                                  *
********************************************************************************


  Components of energy : 

--------------------------------------------------------------------------------
  Interatomic potentials     =         400.28767256 eV    
  Three-body potentials      =           0.00023539 eV    
  Monopole - monopole (real) =       -1236.99964305 eV    
  Monopole - monopole (recip)=        -659.26603192 eV    
  Monopole - monopole (total)=       -1896.26567496 eV    
--------------------------------------------------------------------------------
  Total lattice energy       =       -1495.97776701 eV    
--------------------------------------------------------------------------------
  Total lattice energy       =         -144338.9864 kJ/(mole unit cells)
--------------------------------------------------------------------------------


  Number of variables =      183

  Maximum number of calculations  =          1000
  Maximum Hessian update interval =            10
  Maximum step size               =   0.100000000
  Maximum parameter tolerance     =   0.000010000
  Maximum function  tolerance     =   0.000010000
  Maximum gradient  tolerance     =   0.001000000
  Maximum gradient  component     =   0.010000000

  Symmetry not applied to optimisation

  Cell parameters to be optimised using strains

  Newton-Raphson optimiser to be used

  BFGS hessian update to be used

  Lower half triangular hessian to be used

  Minimiser to switch to RFO
  When gradient norm is less than     0.050000

  Dumpfile to be written after every cycle

  Start of bulk optimisation :

  Cycle:      0 Energy:     -1495.977767  Gnorm:      5.623735  CPU:    0.027
  ** Hessian calculated **
  Cycle:      1 Energy:     -1513.323237  Gnorm:      1.941406  CPU:    0.083
  ** Hessian calculated **
  Cycle:      2 Energy:     -1515.246147  Gnorm:      0.517307  CPU:    0.128
  Cycle:      3 Energy:     -1515.524177  Gnorm:      0.277856  CPU:    0.159
  Cycle:      4 Energy:     -1515.703596  Gnorm:      0.219098  CPU:    0.197
  Cycle:      5 Energy:     -1515.890337  Gnorm:      0.219160  CPU:    0.234
  Cycle:      6 Energy:     -1516.012857  Gnorm:      0.186677  CPU:    0.265
  Cycle:      7 Energy:     -1516.094255  Gnorm:      0.153763  CPU:    0.297
  Cycle:      8 Energy:     -1516.148925  Gnorm:      0.133681  CPU:    0.328
  Cycle:      9 Energy:     -1516.184427  Gnorm:      0.095447  CPU:    0.359
  Cycle:     10 Energy:     -1516.212806  Gnorm:      0.090116  CPU:    0.396
  Cycle:     11 Energy:     -1516.236557  Gnorm:      0.086518  CPU:    0.427
  ** Hessian calculated **
  Cycle:     12 Energy:     -1516.256622  Gnorm:      0.084237  CPU:    0.484
  Cycle:     13 Energy:     -1516.288248  Gnorm:      0.080422  CPU:    0.527
  Cycle:     14 Energy:     -1516.322172  Gnorm:      0.075916  CPU:    0.564
  Cycle:     15 Energy:     -1516.363101  Gnorm:      0.069418  CPU:    0.607
  Cycle:     16 Energy:     -1516.383523  Gnorm:      0.064601  CPU:    0.645
  ** Hessian calculated **
  Cycle:     17 Energy:     -1516.484286  Gnorm:      0.053295  CPU:    0.702
  Cycle:     18 Energy:     -1516.554481  Gnorm:      0.069689  CPU:    0.739
  ** Hessian calculated **
  Cycle:     19 Energy:     -1516.569077  Gnorm:      0.042152  CPU:    0.790
  ** Hessian has required structure
  Cycle:     20 Energy:     -1516.571504  Gnorm:      0.058000  CPU:    0.821
  ** Hessian has required structure
  Cycle:     21 Energy:     -1516.574225  Gnorm:      0.068003  CPU:    0.853
  ** Hessian has required structure
  Cycle:     22 Energy:     -1516.577654  Gnorm:      0.072425  CPU:    0.890
  ** Hessian has required structure
  Cycle:     23 Energy:     -1516.581754  Gnorm:      0.066817  CPU:    0.921
  ** Hessian has required structure
  Cycle:     24 Energy:     -1516.583698  Gnorm:      0.047617  CPU:    0.953
  ** Hessian has required structure
  Cycle:     25 Energy:     -1516.584408  Gnorm:      0.047578  CPU:    0.984
  ** Hessian has required structure
  Cycle:     26 Energy:     -1516.586643  Gnorm:      0.053594  CPU:    1.015
  ** Hessian has required structure
  Cycle:     27 Energy:     -1516.588983  Gnorm:      0.051368  CPU:    1.046
  ** Hessian has required structure
  Cycle:     28 Energy:     -1516.590828  Gnorm:      0.034749  CPU:    1.078
  ** Hessian has wrong structure
  ** Imaginary eigenvectors =   2
  Cycle:     29 Energy:     -1516.618466  Gnorm:      0.069731  CPU:    1.188
  ** Hessian has required structure
  Cycle:     30 Energy:     -1516.688913  Gnorm:      0.093382  CPU:    1.239
  ** Hessian has required structure
  Cycle:     31 Energy:     -1516.777523  Gnorm:      0.086219  CPU:    1.276
  ** Hessian has required structure
  Cycle:     32 Energy:     -1516.843613  Gnorm:      0.046756  CPU:    1.313
  ** Hessian has required structure
  Cycle:     33 Energy:     -1516.876299  Gnorm:      0.044446  CPU:    1.350
  ** Hessian has required structure
  Cycle:     34 Energy:     -1516.901009  Gnorm:      0.022295  CPU:    1.387
  ** Hessian has required structure
  Cycle:     35 Energy:     -1516.911467  Gnorm:      0.026142  CPU:    1.425
  ** Hessian has required structure
  Cycle:     36 Energy:     -1516.916463  Gnorm:      0.018579  CPU:    1.462
  ** Hessian has required structure
  Cycle:     37 Energy:     -1516.919960  Gnorm:      0.016034  CPU:    1.505
  ** Hessian has required structure
  Cycle:     38 Energy:     -1516.923040  Gnorm:      0.012663  CPU:    1.543
  ** Hessian has required structure
  Cycle:     39 Energy:     -1516.925382  Gnorm:      0.013582  CPU:    1.586
  ** Hessian has required structure
  Cycle:     40 Energy:     -1516.927550  Gnorm:      0.006911  CPU:    1.648
  ** Hessian has required structure
  Cycle:     41 Energy:     -1516.928125  Gnorm:      0.003590  CPU:    1.692
  ** Hessian has required structure
  Cycle:     42 Energy:     -1516.928300  Gnorm:      0.001739  CPU:    1.735
  ** Hessian has required structure
  Cycle:     43 Energy:     -1516.928355  Gnorm:      0.000935  CPU:    1.779
  ** Hessian has required structure
  Cycle:     44 Energy:     -1516.928370  Gnorm:      0.000424  CPU:    1.822
  ** Hessian has required structure
  Cycle:     45 Energy:     -1516.928373  Gnorm:      0.000319  CPU:    1.854
  ** Hessian has required structure
  Cycle:     46 Energy:     -1516.928373  Gnorm:      0.000319  CPU:    1.885
  ** Hessian has required structure
  Cycle:     47 Energy:     -1516.914628  Gnorm:      0.063797  CPU:    1.929
  ** Hessian has required structure
  Cycle:     48 Energy:     -1516.917681  Gnorm:      0.056283  CPU:    1.991
  ** Hessian has required structure
  Cycle:     49 Energy:     -1516.921595  Gnorm:      0.044840  CPU:    2.035
  ** Hessian has required structure
  Cycle:     50 Energy:     -1516.925949  Gnorm:      0.026842  CPU:    2.079
  ** Hessian has required structure
  Cycle:     51 Energy:     -1516.927773  Gnorm:      0.013437  CPU:    2.122
  ** Hessian has required structure
  Cycle:     52 Energy:     -1516.928227  Gnorm:      0.006725  CPU:    2.166
  ** Hessian has required structure
  Cycle:     53 Energy:     -1516.928340  Gnorm:      0.003355  CPU:    2.209
  ** Hessian has required structure
  Cycle:     54 Energy:     -1516.928362  Gnorm:      0.002180  CPU:    2.253
  ** Hessian has required structure
  Cycle:     55 Energy:     -1516.928373  Gnorm:      0.001116  CPU:    2.296
  ** Hessian has required structure
  Cycle:     56 Energy:     -1516.928376  Gnorm:      0.000828  CPU:    2.328
  ** Hessian has required structure
  Cycle:     57 Energy:     -1516.916328  Gnorm:      0.059146  CPU:    2.378
  ** Hessian has required structure
  Cycle:     58 Energy:     -1516.917623  Gnorm:      0.055872  CPU:    2.441
  ** Hessian has required structure
  Cycle:     59 Energy:     -1516.919654  Gnorm:      0.050304  CPU:    2.490
  ** Hessian has required structure
  Cycle:     60 Energy:     -1516.921970  Gnorm:      0.043097  CPU:    2.534
  ** Hessian has required structure
  Cycle:     61 Energy:     -1516.924645  Gnorm:      0.032865  CPU:    2.577
  ** Hessian has required structure
  Cycle:     62 Energy:     -1516.927268  Gnorm:      0.017897  CPU:    2.621
  ** Hessian has required structure
  Cycle:     63 Energy:     -1516.928098  Gnorm:      0.008940  CPU:    2.664
  ** Hessian has required structure
  Cycle:     64 Energy:     -1516.928307  Gnorm:      0.004467  CPU:    2.707
  ** Hessian has required structure
  Cycle:     65 Energy:     -1516.928359  Gnorm:      0.002233  CPU:    2.751
  ** Hessian has required structure
  Cycle:     66 Energy:     -1516.928376  Gnorm:      0.000893  CPU:    2.801
  ** Hessian has required structure
  Cycle:     67 Energy:     -1516.928377  Gnorm:      0.000625  CPU:    2.832
  ** Hessian has required structure
  Cycle:     68 Energy:     -1516.928379  Gnorm:      0.000375  CPU:    2.889
  ** Hessian has required structure
  Cycle:     69 Energy:     -1516.928379  Gnorm:      0.000262  CPU:    2.921
  ** Hessian has required structure


  **** Optimisation achieved ****


  Final energy =   -1516.92837930 eV      
  Final Gnorm  =       0.00018372

  Components of energy : 

--------------------------------------------------------------------------------
  Interatomic potentials     =         404.86672466 eV    
  Three-body potentials      =           0.02653475 eV    
  Monopole - monopole (real) =        -831.17175978 eV    
  Monopole - monopole (recip)=       -1090.64987894 eV    
  Monopole - monopole (total)=       -1921.82163872 eV    
--------------------------------------------------------------------------------
  Total lattice energy       =       -1516.92837930 eV    
--------------------------------------------------------------------------------
  Total lattice energy       =         -146360.4002 kJ/(mole unit cells)
--------------------------------------------------------------------------------

  Final fractional coordinates of atoms :

--------------------------------------------------------------------------------
   No.  Atomic        x           y          z          Radius
        Label       (Frac)      (Frac)     (Frac)       (Angs) 
--------------------------------------------------------------------------------
     1  Ge    c     0.313820    0.296860    0.309830    0.000000
     2  Ge    c     0.704257    0.202951    0.715858    0.000000
     3  Ge    c     0.743679    0.618508    0.735582    0.000000
     4  Ge    c     0.714483    0.642327    0.410849    0.000000
     5  Si    c     0.360599    0.687161    0.332607    0.000000
     6  Si    c     0.342373    0.266336    0.636328    0.000000
     7  Si    c     0.676906    0.234667    0.396577    0.000000
     8  Si    c     0.386874    0.654616    0.653951    0.000000
     9  Si    c     0.900486    0.944608    0.347516    0.000000
    10  Si    c     0.144196    0.962738    0.651768    0.000000
    11  Si    c     0.120250    0.989870    0.174406    0.000000
    12  Si    c     0.956689    0.906735    0.866092    0.000000
    13  O3    c     0.313940    0.234848    0.474086    0.000000
    14  O3    c     0.685705    0.151684    0.546345    0.000000
    15  O1    c     0.748033    0.704064    0.578467    0.000000
    16  O2    c     0.410572    0.668751    0.502001    0.000000
    17  O3    c     0.266324    0.519134    0.272712    0.000000
    18  O1    c     0.786963    0.398839    0.753018    0.000000
    19  O3    c     0.499164    0.263082    0.299570    0.000000
    20  O3    c     0.518137    0.215008    0.727509    0.000000
    21  O3    c     0.561285    0.656576    0.757431    0.000000
    22  O3    c     0.523818    0.687933    0.304497    0.000000
    23  O3    c     0.176827    0.184788    0.188495    0.000000
    24  O3    c     0.809036    0.043576    0.833760    0.000000
    25  O3    c     0.890536    0.717263    0.860327    0.000000
    26  O2    c     0.262812    0.867349    0.275471    0.000000
    27  O2    c     0.307719    0.470727    0.662777    0.000000
    28  O3    c     0.756981    0.419086    0.414779    0.000000
    29  O2    c     0.223446    0.148071    0.683356    0.000000
    30  O2    c     0.765130    0.095353    0.327201    0.000000
    31  O3    c     0.834056    0.754991    0.340298    0.000000
    32  O2    c     0.277438    0.807243    0.683711    0.000000
    33  O2    c     0.039084    0.961659    0.491730    0.000000
    34  O2    c     0.967172    0.972222    0.219644    0.000000
    35  O2    c     0.039676    0.940759    0.749863    0.000000
    36  O2    c     0.082480    0.933015    0.016134    0.000000
    37  O3    s     0.316751    0.243130    0.476392    0.000000
    38  O3    s     0.686354    0.163819    0.545479    0.000000
    39  O1    s     0.745103    0.692949    0.577297    0.000000
    40  O2    s     0.403413    0.668795    0.500627    0.000000
    41  O3    s     0.279065    0.518487    0.281341    0.000000
    42  O1    s     0.777030    0.400843    0.748731    0.000000
    43  O3    s     0.501825    0.262980    0.309945    0.000000
    44  O3    s     0.515226    0.219227    0.717371    0.000000
    45  O3    s     0.557538    0.653597    0.745613    0.000000
    46  O3    s     0.522376    0.684301    0.315501    0.000000
    47  O3    s     0.182362    0.174464    0.197006    0.000000
    48  O3    s     0.814521    0.043797    0.826847    0.000000
    49  O3    s     0.885685    0.728623    0.851169    0.000000
    50  O2    s     0.258601    0.860314    0.271158    0.000000
    51  O2    s     0.319206    0.468875    0.659186    0.000000
    52  O3    s     0.745933    0.418856    0.412697    0.000000
    53  O2    s     0.227602    0.140957    0.675057    0.000000
    54  O2    s     0.770244    0.094047    0.336912    0.000000
    55  O3    s     0.831177    0.765014    0.346703    0.000000
    56  O2    s     0.275396    0.806868    0.676871    0.000000
    57  O2    s     0.035864    0.959923    0.494070    0.000000
    58  O2    s     0.976599    0.971108    0.228610    0.000000
    59  O2    s     0.042742    0.939637    0.751092    0.000000
    60  O2    s     0.072901    0.936388    0.017262    0.000000
--------------------------------------------------------------------------------

  Final Cartesian lattice vectors (Angstroms) :

        9.076455    0.212643    0.027967
        0.174388    7.656315    0.151410
       -3.256889    0.124736    9.565333


  Final cell parameters and derivatives :

--------------------------------------------------------------------------------
       a            9.078989 Angstrom     dE/de1(xx)    -0.001012 eV/strain
       b            7.659797 Angstrom     dE/de2(yy)     0.004728 eV/strain
       c           10.105368 Angstrom     dE/de3(zz)     0.006259 eV/strain
       alpha       88.641341 Degrees      dE/de4(yz)    -0.001856 eV/strain
       beta       108.602346 Degrees      dE/de5(xz)     0.006705 eV/strain
       gamma       87.350158 Degrees      dE/de6(xy)    -0.003446 eV/strain
--------------------------------------------------------------------------------

  Primitive cell volume =           664.782997 Angs**3

  Density of cell =      2.246017 g/cm**3

  Non-primitive cell volume =           664.782997 Angs**3


  Final internal derivatives :

--------------------------------------------------------------------------------
   No.  Atomic          a             b             c           Radius
        Label          (eV)          (eV)          (eV)        (eV/Angs)
--------------------------------------------------------------------------------
      1 Ge    c       0.000000      0.000000      0.000000      0.000000
      2 Ge    c      -0.003891      0.003099     -0.001955      0.000000
      3 Ge    c      -0.002736      0.001410      0.000371      0.000000
      4 Ge    c       0.004803      0.002124     -0.001711      0.000000
      5 Si    c       0.004196     -0.002406     -0.001354      0.000000
      6 Si    c      -0.004692     -0.001397      0.001214      0.000000
      7 Si    c       0.003620     -0.000259     -0.001485      0.000000
      8 Si    c      -0.001707     -0.000686     -0.000962      0.000000
      9 Si    c       0.001350     -0.001352     -0.006648      0.000000
     10 Si    c      -0.002591      0.001665      0.007900      0.000000
     11 Si    c      -0.007032      0.002625      0.003764      0.000000
     12 Si    c       0.004004     -0.002551     -0.006893      0.000000
     13 O3    c      -0.000141     -0.000302     -0.000036      0.000000
     14 O3    c      -0.000625     -0.000825      0.002311      0.000000
     15 O1    c       0.000636      0.000526     -0.000537      0.000000
     16 O2    c      -0.000757     -0.000066      0.004471      0.000000
     17 O3    c      -0.000613      0.003269      0.000145      0.000000
     18 O1    c       0.000808     -0.003858     -0.000311      0.000000
     19 O3    c      -0.007881      0.000749     -0.000673      0.000000
     20 O3    c       0.008603     -0.001038      0.000522      0.000000
     21 O3    c       0.007785     -0.000040      0.000293      0.000000
     22 O3    c      -0.009748      0.000469      0.000790      0.000000
     23 O3    c      -0.000769     -0.001267     -0.000801      0.000000
     24 O3    c      -0.000570     -0.002996      0.005457      0.000000
     25 O3    c       0.001443      0.001666      0.001204      0.000000
     26 O2    c       0.001518      0.000609      0.001802      0.000000
     27 O2    c       0.000210      0.001134      0.000390      0.000000
     28 O3    c      -0.000110     -0.002622     -0.000342      0.000000
     29 O2    c       0.002317      0.001298     -0.001750      0.000000
     30 O2    c      -0.002654      0.002316      0.001846      0.000000
     31 O3    c      -0.003457     -0.001713      0.003080      0.000000
     32 O2    c       0.002072     -0.001869     -0.000447      0.000000
     33 O2    c       0.001094      0.000338     -0.001099      0.000000
     34 O2    c       0.002188     -0.000053      0.001183      0.000000
     35 O2    c       0.001350     -0.000186     -0.000711      0.000000
     36 O2    c       0.002114      0.000484      0.002544      0.000000
     37 O3    s      -0.000036     -0.000101     -0.000465      0.000000
     38 O3    s       0.000311      0.000265     -0.000322      0.000000
     39 O1    s      -0.000688      0.000122      0.000256      0.000000
     40 O2    s       0.000626     -0.000302     -0.002493      0.000000
     41 O3    s       0.000545     -0.001446     -0.001448      0.000000
     42 O1    s      -0.000855      0.001911      0.000652      0.000000
     43 O3    s       0.003507     -0.000402     -0.000266      0.000000
     44 O3    s      -0.003295      0.000194     -0.000000      0.000000
     45 O3    s      -0.003726      0.000041      0.000856      0.000000
     46 O3    s       0.004054     -0.000201     -0.000107      0.000000
     47 O3    s      -0.000416      0.001425     -0.000753      0.000000
     48 O3    s       0.001000      0.001727     -0.003157      0.000000
     49 O3    s      -0.000264     -0.001506      0.000132      0.000000
     50 O2    s      -0.000384     -0.000238     -0.000948      0.000000
     51 O2    s      -0.000432      0.000049     -0.000905      0.000000
     52 O3    s       0.000826      0.001124      0.000396      0.000000
     53 O2    s      -0.000806     -0.000193      0.000626      0.000000
     54 O2    s       0.000437     -0.000426     -0.001408      0.000000
     55 O3    s       0.001830      0.000549     -0.001633      0.000000
     56 O2    s      -0.000404      0.000390      0.000707      0.000000
     57 O2    s      -0.000696     -0.000107      0.000775      0.000000
     58 O2    s      -0.001063      0.000304     -0.002076      0.000000
     59 O2    s      -0.000986      0.000371      0.000503      0.000000
     60 O2    s      -0.001252     -0.000310     -0.000282      0.000000
--------------------------------------------------------------------------------
  Maximum abs         0.009748      0.003858      0.007900      0.000000
--------------------------------------------------------------------------------


  Born effective charge tensors : 

-------------------------------------------------------------------------------
  Atom             x           y             z
-------------------------------------------------------------------------------
    1 Ge    x       3.7921      0.3201      0.1159
            y       0.2839      4.2351      0.3373
            z       0.2745      0.1558      3.5390
-------------------------------------------------------------------------------
    2 Ge    x       3.8567     -0.3685      0.1900
            y      -0.0099      4.1883     -0.2188
            z       0.3342     -0.1299      3.5548
-------------------------------------------------------------------------------
    3 Ge    x       3.9238      0.2874      0.1510
            y       0.2887      4.2487      0.3002
            z       0.3677      0.0076      3.5801
-------------------------------------------------------------------------------
    4 Ge    x       4.0609      0.3191      0.0491
            y       0.3984      4.1704     -0.1499
            z      -0.0673      0.1311      3.3822
-------------------------------------------------------------------------------
    5 Si    x       3.5253     -0.2067      0.0060
            y       0.1056      3.7318      0.0448
            z       0.3239     -0.2289      2.9309
-------------------------------------------------------------------------------
    6 Si    x       3.5623      0.2279      0.1946
            y       0.2836      3.5850     -0.0213
            z       0.1100      0.0507      3.1630
-------------------------------------------------------------------------------
    7 Si    x       3.6874     -0.2847      0.1287
            y      -0.0023      3.8393      0.1232
            z       0.0492     -0.1711      3.1067
-------------------------------------------------------------------------------
    8 Si    x       3.5264     -0.3451      0.2441
            y      -0.1073      3.4564      0.1043
            z       0.0633      0.0713      2.8558
-------------------------------------------------------------------------------
    9 Si    x       3.7299      0.3716     -0.1001
            y       0.0334      3.4837     -0.0050
            z      -0.1899     -0.0026      3.0588
-------------------------------------------------------------------------------
   10 Si    x       3.6178      0.1226      0.0878
            y      -0.1024      3.2330     -0.0038
            z      -0.3499     -0.0416      2.9652
-------------------------------------------------------------------------------
   11 Si    x       3.2645      0.3419      0.2201
            y       0.0375      3.4787     -0.0790
            z      -0.0676      0.3900      3.8143
-------------------------------------------------------------------------------
   12 Si    x       3.5495      0.1856     -0.1452
            y      -0.1008      3.6032     -0.0185
            z       0.4685      0.1435      3.9559
-------------------------------------------------------------------------------
   13 O3    x      -1.4026     -0.1453      0.3933
            y      -0.1287     -1.4424     -0.0400
            z       0.3449     -0.0064     -2.5679
-------------------------------------------------------------------------------
   14 O3    x      -1.4419      0.0756      0.4023
            y       0.0061     -1.4703      0.1564
            z       0.3304      0.1700     -2.4461
-------------------------------------------------------------------------------
   15 O1    x      -1.5191     -0.1812      0.3259
            y      -0.1478     -1.5631     -0.0447
            z       0.3164     -0.0050     -2.6272
-------------------------------------------------------------------------------
   16 O2    x      -1.3276      0.0821      0.2438
            y       0.0117     -1.2825      0.0834
            z       0.2291      0.1205     -2.0127
-------------------------------------------------------------------------------
   17 O3    x      -1.3339     -0.1777     -0.1297
            y      -0.2741     -3.0088     -0.2187
            z      -0.2038     -0.1559     -1.3218
-------------------------------------------------------------------------------
   18 O1    x      -1.4306     -0.0927     -0.1078
            y      -0.1975     -3.3355     -0.1569
            z      -0.1675     -0.1129     -1.3039
-------------------------------------------------------------------------------
   19 O3    x      -2.8307      0.2299     -0.4982
            y       0.1790     -1.3813     -0.0153
            z      -0.4848      0.0474     -1.4050
-------------------------------------------------------------------------------
   20 O3    x      -2.8523      0.2296     -0.4787
            y       0.1848     -1.4069      0.1329
            z      -0.5063      0.1135     -1.3814
-------------------------------------------------------------------------------
   21 O3    x      -2.7571      0.0787     -0.5173
            y       0.0167     -1.3311     -0.0729
            z      -0.5900     -0.0300     -1.5331
-------------------------------------------------------------------------------
   22 O3    x      -2.8874      0.1210     -0.2426
            y       0.0228     -1.3481      0.0847
            z      -0.2416      0.0925     -1.3329
-------------------------------------------------------------------------------
   23 O3    x      -1.6071     -0.7453     -0.4194
            y      -0.6836     -2.6252     -0.5669
            z      -0.4043     -0.6280     -1.7350
-------------------------------------------------------------------------------
   24 O3    x      -1.9787      0.7855     -0.4228
            y       0.7987     -2.1717      0.5853
            z      -0.5142      0.5471     -1.7671
-------------------------------------------------------------------------------
   25 O3    x      -1.7209     -0.7541     -0.3586
            y      -0.7598     -2.4292     -0.5169
            z      -0.5012     -0.5082     -1.7286
-------------------------------------------------------------------------------
   26 O2    x      -1.5175      0.5147     -0.3896
            y       0.5164     -1.9082      0.4770
            z      -0.3811      0.4532     -1.5109
-------------------------------------------------------------------------------
   27 O2    x      -1.2618     -0.0885      0.0117
            y      -0.1957     -2.4875     -0.0812
            z       0.0536     -0.0468     -1.0456
-------------------------------------------------------------------------------
   28 O3    x      -1.4610     -0.1874     -0.0446
            y      -0.2699     -3.1375     -0.1382
            z      -0.0037     -0.1021     -1.1081
-------------------------------------------------------------------------------
   29 O2    x      -1.7986     -0.7650      0.0316
            y      -0.6819     -2.0515      0.0068
            z       0.1236      0.0302     -1.0900
-------------------------------------------------------------------------------
   30 O2    x      -1.9308      0.7171      0.1688
            y       0.6970     -1.8405     -0.1614
            z       0.1718     -0.1265     -1.1478
-------------------------------------------------------------------------------
   31 O3    x      -2.1529     -1.0159      0.2258
            y      -0.9067     -2.5171      0.1906
            z       0.2015      0.0878     -1.2249
-------------------------------------------------------------------------------
   32 O2    x      -1.8859      0.8068      0.0030
            y       0.7856     -2.0027     -0.0273
            z       0.0976     -0.0463     -1.0619
-------------------------------------------------------------------------------
   33 O2    x      -1.5443     -0.0640     -0.5568
            y       0.0045     -1.1316     -0.0560
            z      -0.3370     -0.0514     -2.1007
-------------------------------------------------------------------------------
   34 O2    x      -2.1534     -0.1413      0.6092
            y      -0.0262     -1.0960      0.0689
            z       0.6502      0.0407     -1.7171
-------------------------------------------------------------------------------
   35 O2    x      -2.1200     -0.1868      0.7849
            y      -0.0706     -1.1467      0.0919
            z       0.7407      0.1301     -1.8390
-------------------------------------------------------------------------------
   36 O2    x      -1.1804     -0.0670     -0.1761
            y       0.0105     -1.1381     -0.1950
            z      -0.2413     -0.3893     -2.8981
-------------------------------------------------------------------------------




  Elastic Constant Matrix: (Units=GPa)

-------------------------------------------------------------------------------
  Indices      1         2         3         4         5         6    
-------------------------------------------------------------------------------
       1     40.4759   18.7489   12.0604    0.1937    2.1131   14.3125
       2     18.7489   57.9391    9.5053    3.9104    1.8632   21.4538
       3     12.0604    9.5053   32.6409    9.4925    1.2265    9.3673
       4      0.1937    3.9104    9.4925   12.5083    3.3385    7.3393
       5      2.1131    1.8632    1.2265    3.3385    9.6396    4.8556
       6     14.3125   21.4538    9.3673    7.3393    4.8556   27.2456
-------------------------------------------------------------------------------


  Elastic Compliance Matrix: (Units=1/GPa)

-------------------------------------------------------------------------------
  Indices      1         2         3         4         5         6    
-------------------------------------------------------------------------------
       1    0.036929 -0.005248 -0.013894  0.022095 -0.005145 -0.015525
       2   -0.005248  0.025724 -0.001119  0.002547  0.004839 -0.018663
       3   -0.013894 -0.001119  0.046547 -0.037790  0.010152  0.000546
       4    0.022095  0.002547 -0.037790  0.134129 -0.031277 -0.031177
       5   -0.005145  0.004839  0.010152 -0.031277  0.122544 -0.018012
       6   -0.015525 -0.018663  0.000546 -0.031177 -0.018012  0.070975
-------------------------------------------------------------------------------

  Mechanical properties :

-------------------------------------------------------------------------------
  Convention :                    Reuss         Voigt         Hill
-------------------------------------------------------------------------------
  Bulk  Modulus (GPa)     =      14.56018      23.52055      19.04037
  Shear Modulus (GPa)     =       9.99474      15.92813      12.96143
-------------------------------------------------------------------------------
  Velocity S-wave (km/s)  =       2.10950       2.66303       2.40226
  Velocity P-wave (km/s)  =       3.52363       4.46405       4.02143
-------------------------------------------------------------------------------
  Compressibility (1/GPa) =    0.06868045
-------------------------------------------------------------------------------
  Stress axis :                     x             y             z
-------------------------------------------------------------------------------
  Youngs Moduli (GPa)     =      27.07867      38.87379      21.48357
-------------------------------------------------------------------------------
  Poissons Ratio (x)      =                     0.20400       0.29848
  Poissons Ratio (y)      =       0.14211                     0.02404
  Poissons Ratio (z)      =       0.37622       0.04349
-------------------------------------------------------------------------------


  Piezoelectric Strain Matrix: (Units=C/m**2)

-------------------------------------------------------------------------------
  Indices      1         2         3         4         5         6    
-------------------------------------------------------------------------------
       x    -0.76787   0.00049   0.91196  -0.09755   0.13705   0.34440
       y     1.87233   1.52387   0.00749   0.47256  -0.18100   0.12920
       z    -1.25524  -0.60986  -0.67434  -0.39389   0.91150   0.01940
-------------------------------------------------------------------------------


  Piezoelectric Stress Matrix: (Units=10**-11 C/N)

-------------------------------------------------------------------------------
  Indices      1         2         3         4         5         6    
-------------------------------------------------------------------------------
       x    -4.92377  -0.29909   5.83833  -7.95370   2.68545   3.74277
       y     7.04098   2.72832  -4.69945  10.99862  -4.14711  -5.98081
       z    -4.74801  -0.53009   1.08828  -8.57510  12.03307   2.77405
-------------------------------------------------------------------------------


  Static dielectric constant tensor : 

-------------------------------------------------------------------------------
              x         y         z
-------------------------------------------------------------------------------
       x     4.49787   0.29141   0.28949
       y     0.29141   4.96492   0.17197
       z     0.28949   0.17197   3.51227
--------------------------------------------------------------------------------

  High frequency dielectric constant tensor : 

-------------------------------------------------------------------------------
              x         y         z
-------------------------------------------------------------------------------
       x     1.65239   0.00547   0.00846
       y     0.00547   1.65757   0.00349
       z     0.00846   0.00349   1.60231
-------------------------------------------------------------------------------

  Static refractive indices : 

-------------------------------------------------------------------------------
    1 =    1.85148      2 =    2.09596      3 =    2.27024
-------------------------------------------------------------------------------

  High frequency refractive indices : 

-------------------------------------------------------------------------------
    1 =    1.26523      2 =    1.28431      3 =    1.28919
-------------------------------------------------------------------------------


  Time to end of optimisation =       2.9930 seconds


  Peak dynamic memory used =       2.76 MB 


  Timing analysis for GULP :

--------------------------------------------------------------------------------
  Task / Subroutine                                          Time (Seconds)
--------------------------------------------------------------------------------
  Calculation of reciprocal space energy and derivatives          0.1831
  Calculation of real space energy and derivatives                2.4123
  Calculation of three-body energy and derivatives                0.0681
  Calculation and manipulation of Hessian matrix                  0.3417
  Calculation of matrix inversion                                 0.0033
  Global summation overhead                                       0.0001
--------------------------------------------------------------------------------
  Total CPU time                                                  2.9930
--------------------------------------------------------------------------------


  Dump file written as c00004.vasp.grs
  CIF file written as c00004.vasp.cif


  Job Finished at 22:36.51  6th October    2025                               

