********************************************************************************
*                       GENERAL UTILITY LATTICE PROGRAM                        *
*                                 Julian Gale                                  *
*                       Curtin Institute for Computation                       *
*                    School of Molecular and Life Sciences                     *
*                    Curtin University, Western Australia                      *
********************************************************************************
* Version = 6.1.2 * Last modified =   3rd November 2022                        *
********************************************************************************
*  optimise     - perform optimisation run                                     *
*  conp         - constant pressure calculation                                *
*  property     - calculate properties for final geometry                      *
********************************************************************************

  Job Started  at 22:40.47  6th October    2025                               

  Number of CPUs =     1


  Total number of configurations input =      1

********************************************************************************
*  Input for Configuration =   1 : c00075.vasp                                 *
********************************************************************************

  Formula = Ge4Si8O24                                                   

  Number of irreducible atoms/shells =      60


  Total number atoms/shells =      60

  Dimensionality = 3               :  Bulk   



  Cartesian lattice vectors (Angstroms) :

        9.086940    0.000000    0.000000
        0.000000    7.554810    0.000000
       -3.295144    0.000000    9.944380

  Cell parameters (Angstroms/Degrees):

  a =       9.0869    alpha =  90.0000
  b =       7.5548    beta  = 108.3330
  c =      10.4761    gamma =  90.0000

  Initial cell volume =         682.682735 Angs**3

  Temperature of configuration =   0.00     K 

  Pressure of configuration =         0.000 GPa 

  Fractional coordinates of asymmetric unit :

--------------------------------------------------------------------------------
   No.  Atomic       x           y          z         Charge      Occupancy
        Label      (Frac)      (Frac)     (Frac)        (e)         (Frac)  
--------------------------------------------------------------------------------
      1 Ge    c    0.313820    0.296860    0.309830     4.00000    1.000000    
      2 Ge    c    0.331050 *  0.296920 *  0.607380 *   4.00000    1.000000    
      3 Ge    c    0.879680 *  0.000000 *  0.350160 *   4.00000    1.000000    
      4 Ge    c    0.120320 *  0.000000 *  0.649840 *   4.00000    1.000000    
      5 Si    c    0.686180 *  0.296860 *  0.690170 *   4.00000    1.000000    
      6 Si    c    0.686180 *  0.703140 *  0.690170 *   4.00000    1.000000    
      7 Si    c    0.313820 *  0.703140 *  0.309830 *   4.00000    1.000000    
      8 Si    c    0.668950 *  0.296920 *  0.392620 *   4.00000    1.000000    
      9 Si    c    0.668950 *  0.703080 *  0.392620 *   4.00000    1.000000    
     10 Si    c    0.331050 *  0.703080 *  0.607380 *   4.00000    1.000000    
     11 Si    c    0.093070 *  0.000000 *  0.158230 *   4.00000    1.000000    
     12 Si    c    0.906930 *  0.000000 *  0.841770 *   4.00000    1.000000    
     13 O1    c    0.268740 *  0.279030 *  0.446100 *   1.73396    1.000000    
     14 O2    c    0.731260 *  0.279030 *  0.553900 *   0.87073    1.000000    
     15 O2    c    0.731260 *  0.720970 *  0.553900 *   0.87073    1.000000    
     16 O2    c    0.268740 *  0.720970 *  0.446100 *   0.87073    1.000000    
     17 O3    c    0.295480 *  0.500000 *  0.260860 *   1.33043    1.000000    
     18 O2    c    0.704520 *  0.500000 *  0.739140 *   0.87073    1.000000    
     19 O3    c    0.490600 *  0.234690 *  0.337530 *   1.33043    1.000000    
     20 O3    c    0.509400 *  0.234690 *  0.662470 *   1.33043    1.000000    
     21 O2    c    0.509400 *  0.765310 *  0.662470 *   0.87073    1.000000    
     22 O2    c    0.490600 *  0.765310 *  0.337530 *   0.87073    1.000000    
     23 O3    c    0.200440 *  0.174000 *  0.194980 *   1.33043    1.000000    
     24 O2    c    0.799560 *  0.174000 *  0.805020 *   0.87073    1.000000    
     25 O2    c    0.799560 *  0.826000 *  0.805020 *   0.87073    1.000000    
     26 O2    c    0.200440 *  0.826000 *  0.194980 *   0.87073    1.000000    
     27 O3    c    0.317860 *  0.500000 *  0.649090 *   1.33043    1.000000    
     28 O2    c    0.682140 *  0.500000 *  0.350910 *   0.87073    1.000000    
     29 O1    c    0.227920 *  0.173870 *  0.671620 *   1.73396    1.000000    
     30 O3    c    0.772080 *  0.173870 *  0.328380 *   1.33043    1.000000    
     31 O3    c    0.772080 *  0.826130 *  0.328380 *   1.33043    1.000000    
     32 O3    c    0.227920 *  0.826130 *  0.671620 *   1.33043    1.000000    
     33 O1    c    0.000000 *  0.000000 *  0.500000 *   1.73396    1.000000    
     34 O3    c    0.971960 *  0.000000 *  0.241930 *   1.33043    1.000000    
     35 O3    c    0.028040 *  0.000000 *  0.758070 *   1.33043    1.000000    
     36 O2    c    0.000000 *  0.000000 *  0.000000 *   0.87073    1.000000    
     37 O1    s    0.268740 *  0.279030 *  0.446100 *  -3.73396    1.000000    
     38 O2    s    0.731260 *  0.279030 *  0.553900 *  -2.87073    1.000000    
     39 O2    s    0.731260 *  0.720970 *  0.553900 *  -2.87073    1.000000    
     40 O2    s    0.268740 *  0.720970 *  0.446100 *  -2.87073    1.000000    
     41 O3    s    0.295480 *  0.500000 *  0.260860 *  -3.33043    1.000000    
     42 O2    s    0.704520 *  0.500000 *  0.739140 *  -2.87073    1.000000    
     43 O3    s    0.490600 *  0.234690 *  0.337530 *  -3.33043    1.000000    
     44 O3    s    0.509400 *  0.234690 *  0.662470 *  -3.33043    1.000000    
     45 O2    s    0.509400 *  0.765310 *  0.662470 *  -2.87073    1.000000    
     46 O2    s    0.490600 *  0.765310 *  0.337530 *  -2.87073    1.000000    
     47 O3    s    0.200440 *  0.174000 *  0.194980 *  -3.33043    1.000000    
     48 O2    s    0.799560 *  0.174000 *  0.805020 *  -2.87073    1.000000    
     49 O2    s    0.799560 *  0.826000 *  0.805020 *  -2.87073    1.000000    
     50 O2    s    0.200440 *  0.826000 *  0.194980 *  -2.87073    1.000000    
     51 O3    s    0.317860 *  0.500000 *  0.649090 *  -3.33043    1.000000    
     52 O2    s    0.682140 *  0.500000 *  0.350910 *  -2.87073    1.000000    
     53 O1    s    0.227920 *  0.173870 *  0.671620 *  -3.73396    1.000000    
     54 O3    s    0.772080 *  0.173870 *  0.328380 *  -3.33043    1.000000    
     55 O3    s    0.772080 *  0.826130 *  0.328380 *  -3.33043    1.000000    
     56 O3    s    0.227920 *  0.826130 *  0.671620 *  -3.33043    1.000000    
     57 O1    s    0.000000 *  0.000000 *  0.500000 *  -3.73396    1.000000    
     58 O3    s    0.971960 *  0.000000 *  0.241930 *  -3.33043    1.000000    
     59 O3    s    0.028040 *  0.000000 *  0.758070 *  -3.33043    1.000000    
     60 O2    s    0.000000 *  0.000000 *  0.000000 *  -2.87073    1.000000    
--------------------------------------------------------------------------------



********************************************************************************
*  General input information                                                   *
********************************************************************************

  Species output for all configurations : 

--------------------------------------------------------------------------------
  Species    Type    Atomic    Atomic    Charge       Radii (Angs)     Library
                     Number     Mass       (e)     Cova   Ionic  VDW   Symbol
--------------------------------------------------------------------------------
    Ge       Core       32      72.61   4.000000   1.170  0.000  1.750 Ge       
    Si       Core       14      28.09   4.000000   1.200  0.000  2.100 Si       
    O1       Core        8      16.00   1.733957   0.730  0.000  1.360 O1       
    O2       Core        8      16.00   0.870733   0.730  0.000  1.360 O2       
    O3       Core        8      16.00   1.330431   0.730  0.000  1.360 O3       
    O1       Shell       8       0.00  -3.733957   0.730  0.000  0.000 O1       
    O2       Shell       8       0.00  -2.870733   0.730  0.000  0.000 O2       
    O3       Shell       8       0.00  -3.330431   0.730  0.000  0.000 O3       
--------------------------------------------------------------------------------


  Lattice summation method               =    Ewald          (3-D)
                                         =    Parry          (2-D)
                                         =    Saunders et al (1-D)
  Accuracy factor for lattice sums       =   12.000


  Analytic derivatives to be used

  Time limit = Infinity

  Maximum range for interatomic potentials =    100000.000000 Angstroms

  General interatomic potentials :

--------------------------------------------------------------------------------
Atom  Types   Potential      Parameter       Value         Units   Cutoffs(Ang)
  1     2                                                            Min /  Max 
--------------------------------------------------------------------------------
Si   c O1   s Buckingham    Buckingham A     1315.2478    eV        0.000 16.000
                            Buckingham rho  0.31775900    Ang       
                            Buckingham C     10.141118    eV*Ang^6  
--------------------------------------------------------------------------------
Si   c O2   s Buckingham    Buckingham A     1315.2478    eV        0.000 16.000
                            Buckingham rho  0.31775900    Ang       
                            Buckingham C     10.141118    eV*Ang^6  
--------------------------------------------------------------------------------
Si   c O3   s Buckingham    Buckingham A     1315.2478    eV        0.000 16.000
                            Buckingham rho  0.31775900    Ang       
                            Buckingham C     10.141118    eV*Ang^6  
--------------------------------------------------------------------------------
Ge   c O1   s Buckingham    Buckingham A     1497.3996    eV        0.000 16.000
                            Buckingham rho  0.32564600    Ang       
                            Buckingham C     16.808599    eV*Ang^6  
--------------------------------------------------------------------------------
Ge   c O2   s Buckingham    Buckingham A     1497.3996    eV        0.000 16.000
                            Buckingham rho  0.32564600    Ang       
                            Buckingham C     16.808599    eV*Ang^6  
--------------------------------------------------------------------------------
Ge   c O3   s Buckingham    Buckingham A     1497.3996    eV        0.000 16.000
                            Buckingham rho  0.32564600    Ang       
                            Buckingham C     16.808599    eV*Ang^6  
--------------------------------------------------------------------------------
O1   s O1   s Buckingham    Buckingham A     22764.000    eV        0.000 16.000
                            Buckingham rho  0.14900000    Ang       
                            Buckingham C     10.937044    eV*Ang^6  
--------------------------------------------------------------------------------
O1   s O2   s Buckingham    Buckingham A     22764.000    eV        0.000 16.000
                            Buckingham rho  0.14900000    Ang       
                            Buckingham C     10.937044    eV*Ang^6  
--------------------------------------------------------------------------------
O1   s O3   s Buckingham    Buckingham A     22764.000    eV        0.000 16.000
                            Buckingham rho  0.14900000    Ang       
                            Buckingham C     10.937044    eV*Ang^6  
--------------------------------------------------------------------------------
O2   s O2   s Buckingham    Buckingham A     22764.000    eV        0.000 16.000
                            Buckingham rho  0.14900000    Ang       
                            Buckingham C     10.937044    eV*Ang^6  
--------------------------------------------------------------------------------
O2   s O3   s Buckingham    Buckingham A     22764.000    eV        0.000 16.000
                            Buckingham rho  0.14900000    Ang       
                            Buckingham C     10.937044    eV*Ang^6  
--------------------------------------------------------------------------------
O3   s O3   s Buckingham    Buckingham A     22764.000    eV        0.000 16.000
                            Buckingham rho  0.14900000    Ang       
                            Buckingham C     10.937044    eV*Ang^6  
--------------------------------------------------------------------------------
O1   c O1   s Spring (c-s)  Spring k 2       180.31577    eV*Ang^-2 0.000  0.800
                            Spring k 4       0.0000000    eV*Ang^-4 
--------------------------------------------------------------------------------
O2   c O2   s Spring (c-s)  Spring k 2       75.969800    eV*Ang^-2 0.000  0.800
                            Spring k 4       0.0000000    eV*Ang^-4 
--------------------------------------------------------------------------------
O3   c O3   s Spring (c-s)  Spring k 2       128.14270    eV*Ang^-2 0.000  0.800
                            Spring k 4       0.0000000    eV*Ang^-4 
--------------------------------------------------------------------------------

  General Three-body potentials :

--------------------------------------------------------------------------------
  Atoms       Potential      Parameter       Value         Units   Cutoffs(Ang)
  1 / 2 / 3                                                          Min /  Max 
--------------------------------------------------------------------------------
Si    core    Harmonic      Three-body cnst  1.2614000    eV*rad^-2 0.000  1.900
O1    shel                  Three-body angl  109.47000    degrees   0.000  1.900
O1    shel                  Three-body k4    0.0000000    eV*rad^-4 0.000  3.500
                            Three-body k3    0.0000000    eV*rad^-3 
--------------------------------------------------------------------------------
Si    core    Harmonic      Three-body cnst  1.2614000    eV*rad^-2 0.000  1.900
O1    shel                  Three-body angl  109.47000    degrees   0.000  1.900
õ(1   shel                  Three-body k4    0.0000000    eV*rad^-4 0.000  3.500
                            Three-body k3    0.0000000    eV*rad^-3 
--------------------------------------------------------------------------------
Si    core    Harmonic      Three-body cnst  1.2614000    eV*rad^-2 0.000  1.900
õ(1   shel                  Three-body angl  109.47000    degrees   0.000  1.900
õ(1   shel                  Three-body k4    0.0000000    eV*rad^-4 0.000  3.500
                            Three-body k3    0.0000000    eV*rad^-3 
--------------------------------------------------------------------------------
Si    core    Harmonic      Three-body cnst  1.2614000    eV*rad^-2 0.000  1.900
O1    shel                  Three-body angl  109.47000    degrees   0.000  1.900
O2    shel                  Three-body k4    0.0000000    eV*rad^-4 0.000  3.500
                            Three-body k3    0.0000000    eV*rad^-3 
--------------------------------------------------------------------------------
Si    core    Harmonic      Three-body cnst  1.2614000    eV*rad^-2 0.000  1.900
O1    shel                  Three-body angl  109.47000    degrees   0.000  1.900
õ(2   shel                  Three-body k4    0.0000000    eV*rad^-4 0.000  3.500
                            Three-body k3    0.0000000    eV*rad^-3 
--------------------------------------------------------------------------------
Si    core    Harmonic      Three-body cnst  1.2614000    eV*rad^-2 0.000  1.900
O2    shel                  Three-body angl  109.47000    degrees   0.000  1.900
õ(1   shel                  Three-body k4    0.0000000    eV*rad^-4 0.000  3.500
                            Three-body k3    0.0000000    eV*rad^-3 
--------------------------------------------------------------------------------
Si    core    Harmonic      Three-body cnst  1.2614000    eV*rad^-2 0.000  1.900
õ(1   shel                  Three-body angl  109.47000    degrees   0.000  1.900
õ(2   shel                  Three-body k4    0.0000000    eV*rad^-4 0.000  3.500
                            Three-body k3    0.0000000    eV*rad^-3 
--------------------------------------------------------------------------------
Si    core    Harmonic      Three-body cnst  1.2614000    eV*rad^-2 0.000  1.900
O2    shel                  Three-body angl  109.47000    degrees   0.000  1.900
O2    shel                  Three-body k4    0.0000000    eV*rad^-4 0.000  3.500
                            Three-body k3    0.0000000    eV*rad^-3 
--------------------------------------------------------------------------------
Si    core    Harmonic      Three-body cnst  1.2614000    eV*rad^-2 0.000  1.900
O2    shel                  Three-body angl  109.47000    degrees   0.000  1.900
õ(2   shel                  Three-body k4    0.0000000    eV*rad^-4 0.000  3.500
                            Three-body k3    0.0000000    eV*rad^-3 
--------------------------------------------------------------------------------
Si    core    Harmonic      Three-body cnst  1.2614000    eV*rad^-2 0.000  1.900
õ(2   shel                  Three-body angl  109.47000    degrees   0.000  1.900
õ(2   shel                  Three-body k4    0.0000000    eV*rad^-4 0.000  3.500
                            Three-body k3    0.0000000    eV*rad^-3 
--------------------------------------------------------------------------------

********************************************************************************
*  Output for configuration   1 : c00075.vasp                                  *
********************************************************************************


  Components of energy : 

--------------------------------------------------------------------------------
  Interatomic potentials     =         400.32338886 eV    
  Three-body potentials      =           0.00003408 eV    
  Monopole - monopole (real) =       -1236.99964305 eV    
  Monopole - monopole (recip)=        -659.26603192 eV    
  Monopole - monopole (total)=       -1896.26567496 eV    
--------------------------------------------------------------------------------
  Total lattice energy       =       -1495.94225202 eV    
--------------------------------------------------------------------------------
  Total lattice energy       =         -144335.5597 kJ/(mole unit cells)
--------------------------------------------------------------------------------


  Number of variables =      183

  Maximum number of calculations  =          1000
  Maximum Hessian update interval =            10
  Maximum step size               =   0.100000000
  Maximum parameter tolerance     =   0.000010000
  Maximum function  tolerance     =   0.000010000
  Maximum gradient  tolerance     =   0.001000000
  Maximum gradient  component     =   0.010000000

  Symmetry not applied to optimisation

  Cell parameters to be optimised using strains

  Newton-Raphson optimiser to be used

  BFGS hessian update to be used

  Lower half triangular hessian to be used

  Minimiser to switch to RFO
  When gradient norm is less than     0.050000

  Dumpfile to be written after every cycle

  Start of bulk optimisation :

  Cycle:      0 Energy:     -1495.942252  Gnorm:      5.564701  CPU:    0.031
  ** Hessian calculated **
  Cycle:      1 Energy:     -1511.969181  Gnorm:      1.369030  CPU:    0.068
  ** Hessian calculated **
  Cycle:      2 Energy:     -1513.510823  Gnorm:      1.070368  CPU:    0.135
  ** Hessian calculated **
  Cycle:      3 Energy:     -1514.454913  Gnorm:      0.596059  CPU:    0.196
  Cycle:      4 Energy:     -1514.878161  Gnorm:      0.376857  CPU:    0.233
  Cycle:      5 Energy:     -1515.262336  Gnorm:      0.304538  CPU:    0.276
  Cycle:      6 Energy:     -1515.633049  Gnorm:      0.261102  CPU:    0.320
  Cycle:      7 Energy:     -1515.852447  Gnorm:      0.211277  CPU:    0.356
  Cycle:      8 Energy:     -1515.988926  Gnorm:      0.168748  CPU:    0.392
  Cycle:      9 Energy:     -1516.060013  Gnorm:      0.134964  CPU:    0.429
  Cycle:     10 Energy:     -1516.097372  Gnorm:      0.101297  CPU:    0.465
  Cycle:     11 Energy:     -1516.121841  Gnorm:      0.085630  CPU:    0.502
  Cycle:     12 Energy:     -1516.148768  Gnorm:      0.089235  CPU:    0.545
  ** Hessian calculated **
  Cycle:     13 Energy:     -1516.176275  Gnorm:      0.087130  CPU:    0.611
  Cycle:     14 Energy:     -1516.221275  Gnorm:      0.083582  CPU:    0.662
  Cycle:     15 Energy:     -1516.276378  Gnorm:      0.078964  CPU:    0.705
  Cycle:     16 Energy:     -1516.363882  Gnorm:      0.070859  CPU:    0.756
  Cycle:     17 Energy:     -1516.462364  Gnorm:      0.059870  CPU:    0.799
  Cycle:     18 Energy:     -1516.566059  Gnorm:      0.045850  CPU:    0.844
  ** Hessian has wrong structure
  ** Imaginary eigenvectors =   3
  Cycle:     19 Energy:     -1516.567863  Gnorm:      0.046450  CPU:    0.913
  ** Hessian has wrong structure
  ** Imaginary eigenvectors =   2
  ** Hessian has wrong structure
  ** Imaginary eigenvectors =   2
  Cycle:     20 Energy:     -1516.591600  Gnorm:      0.071304  CPU:    1.071
  ** Hessian has wrong structure
  ** Imaginary eigenvectors =   1
  ** Hessian has required structure
  Cycle:     21 Energy:     -1516.707007  Gnorm:      0.071037  CPU:    1.219
  ** Hessian has required structure
  Cycle:     22 Energy:     -1516.766600  Gnorm:      0.029783  CPU:    1.264
  ** Hessian has required structure
  Cycle:     23 Energy:     -1516.795971  Gnorm:      0.036810  CPU:    1.309
  ** Hessian has required structure
  Cycle:     24 Energy:     -1516.809193  Gnorm:      0.039044  CPU:    1.346
  ** Hessian has required structure
  Cycle:     25 Energy:     -1516.819762  Gnorm:      0.032059  CPU:    1.399
  ** Hessian has required structure
  Cycle:     26 Energy:     -1516.828393  Gnorm:      0.022185  CPU:    1.443
  ** Hessian has required structure
  Cycle:     27 Energy:     -1516.835015  Gnorm:      0.019751  CPU:    1.487
  ** Hessian has required structure
  Cycle:     28 Energy:     -1516.838284  Gnorm:      0.020351  CPU:    1.531
  ** Hessian has required structure
  Cycle:     29 Energy:     -1516.841425  Gnorm:      0.013700  CPU:    1.574
  ** Hessian has required structure
  Cycle:     30 Energy:     -1516.843126  Gnorm:      0.010754  CPU:    1.618
  ** Hessian has required structure
  Cycle:     31 Energy:     -1516.843996  Gnorm:      0.009733  CPU:    1.690
  ** Hessian has required structure
  Cycle:     32 Energy:     -1516.845434  Gnorm:      0.007742  CPU:    1.740
  ** Hessian has required structure
  Cycle:     33 Energy:     -1516.846579  Gnorm:      0.003135  CPU:    1.784
  ** Hessian has required structure
  Cycle:     34 Energy:     -1516.846925  Gnorm:      0.002764  CPU:    1.835
  ** Hessian has required structure
  Cycle:     35 Energy:     -1516.847139  Gnorm:      0.003150  CPU:    1.880
  ** Hessian has required structure
  Cycle:     36 Energy:     -1516.847243  Gnorm:      0.002710  CPU:    1.932
  ** Hessian has required structure
  Cycle:     37 Energy:     -1516.847302  Gnorm:      0.002101  CPU:    1.984
  ** Hessian has required structure
  Cycle:     38 Energy:     -1516.847333  Gnorm:      0.001580  CPU:    2.028
  ** Hessian has required structure
  Cycle:     39 Energy:     -1516.847355  Gnorm:      0.000949  CPU:    2.080
  ** Hessian has required structure
  Cycle:     40 Energy:     -1516.847359  Gnorm:      0.000741  CPU:    2.117
  ** Hessian has required structure
  Cycle:     41 Energy:     -1516.847365  Gnorm:      0.000449  CPU:    2.184
  ** Hessian has required structure
  Cycle:     42 Energy:     -1516.847366  Gnorm:      0.000357  CPU:    2.222
  ** Hessian has required structure
  Cycle:     43 Energy:     -1516.847367  Gnorm:      0.000276  CPU:    2.259
  ** Hessian has required structure
  Cycle:     44 Energy:     -1516.847367  Gnorm:      0.000208  CPU:    2.296
  ** Hessian has required structure
  Cycle:     45 Energy:     -1516.847367  Gnorm:      0.000154  CPU:    2.334
  ** Hessian has required structure


  **** Optimisation achieved ****


  Final energy =   -1516.84736754 eV      
  Final Gnorm  =       0.00011171

  Components of energy : 

--------------------------------------------------------------------------------
  Interatomic potentials     =         403.10229337 eV    
  Three-body potentials      =           0.04317726 eV    
  Monopole - monopole (real) =        -840.39748587 eV    
  Monopole - monopole (recip)=       -1079.59535230 eV    
  Monopole - monopole (total)=       -1919.99283817 eV    
--------------------------------------------------------------------------------
  Total lattice energy       =       -1516.84736754 eV    
--------------------------------------------------------------------------------
  Total lattice energy       =         -146352.5838 kJ/(mole unit cells)
--------------------------------------------------------------------------------

  Final fractional coordinates of atoms :

--------------------------------------------------------------------------------
   No.  Atomic        x           y          z          Radius
        Label       (Frac)      (Frac)     (Frac)       (Angs) 
--------------------------------------------------------------------------------
     1  Ge    c     0.313820    0.296860    0.309830    0.000000
     2  Ge    c     0.360108    0.290845    0.638717    0.000000
     3  Ge    c     0.901454    0.964633    0.383468    0.000000
     4  Ge    c     0.163223    0.985454    0.698331    0.000000
     5  Si    c     0.714684    0.260718    0.703963    0.000000
     6  Si    c     0.739277    0.656093    0.708317    0.000000
     7  Si    c     0.337382    0.702600    0.323022    0.000000
     8  Si    c     0.669335    0.270409    0.383944    0.000000
     9  Si    c     0.694728    0.663218    0.395004    0.000000
    10  Si    c     0.382613    0.697198    0.636891    0.000000
    11  Si    c     0.104181    0.995240    0.180745    0.000000
    12  Si    c     0.944603    0.953208    0.867121    0.000000
    13  O1    c     0.314319    0.230824    0.469384    0.000000
    14  O2    c     0.676418    0.228446    0.540791    0.000000
    15  O2    c     0.745536    0.707988    0.558349    0.000000
    16  O2    c     0.337027    0.753839    0.475317    0.000000
    17  O3    c     0.266160    0.515974    0.285486    0.000000
    18  O2    c     0.784551    0.452509    0.742452    0.000000
    19  O3    c     0.491331    0.261386    0.290464    0.000000
    20  O3    c     0.554963    0.247685    0.730820    0.000000
    21  O2    c     0.567825    0.690642    0.710759    0.000000
    22  O2    c     0.511786    0.699683    0.322133    0.000000
    23  O3    c     0.176778    0.181884    0.186414    0.000000
    24  O2    c     0.840004    0.119019    0.790118    0.000000
    25  O2    c     0.857766    0.773444    0.820957    0.000000
    26  O2    c     0.241833    0.848291    0.212981    0.000000
    27  O3    c     0.318466    0.509392    0.645452    0.000000
    28  O2    c     0.732739    0.462402    0.376850    0.000000
    29  O1    c     0.242940    0.184105    0.706993    0.000000
    30  O3    c     0.774447    0.141346    0.334406    0.000000
    31  O3    c     0.792388    0.781443    0.332232    0.000000
    32  O3    c     0.310933    0.836333    0.711136    0.000000
    33  O1    c     0.001140    0.962175    0.556540    0.000000
    34  O3    c     0.028938    0.975131    0.297818    0.000000
    35  O3    c     0.103702    0.953489    0.839002    0.000000
    36  O2    c     0.977280    0.967862    0.030618    0.000000
    37  O1    s     0.317713    0.240341    0.470046    0.000000
    38  O2    s     0.679693    0.236235    0.541812    0.000000
    39  O2    s     0.739702    0.698036    0.557618    0.000000
    40  O2    s     0.341735    0.742842    0.476197    0.000000
    41  O3    s     0.277100    0.517303    0.291171    0.000000
    42  O2    s     0.772783    0.454259    0.734982    0.000000
    43  O3    s     0.495057    0.265088    0.301322    0.000000
    44  O3    s     0.555940    0.252256    0.721088    0.000000
    45  O2    s     0.566786    0.687529    0.702593    0.000000
    46  O2    s     0.512861    0.696017    0.330115    0.000000
    47  O3    s     0.180686    0.172765    0.195838    0.000000
    48  O2    s     0.836886    0.117285    0.788499    0.000000
    49  O2    s     0.853743    0.779514    0.813187    0.000000
    50  O2    s     0.238231    0.847293    0.221822    0.000000
    51  O3    s     0.328258    0.510797    0.644061    0.000000
    52  O2    s     0.722075    0.464168    0.379573    0.000000
    53  O1    s     0.245991    0.177094    0.700956    0.000000
    54  O3    s     0.773491    0.140837    0.343706    0.000000
    55  O3    s     0.790679    0.783331    0.342877    0.000000
    56  O3    s     0.306583    0.833595    0.702157    0.000000
    57  O1    s     0.005934    0.964246    0.553729    0.000000
    58  O3    s     0.025318    0.976292    0.293277    0.000000
    59  O3    s     0.092266    0.956008    0.830748    0.000000
    60  O2    s     0.987615    0.969325    0.029368    0.000000
--------------------------------------------------------------------------------

  Final Cartesian lattice vectors (Angstroms) :

        9.219229    0.127467   -0.089046
        0.104599    7.718356    0.065494
       -3.440346    0.042242    9.682087


  Final cell parameters and derivatives :

--------------------------------------------------------------------------------
       a            9.220541 Angstrom     dE/de1(xx)     0.005950 eV/strain
       b            7.719343 Angstrom     dE/de2(yy)     0.007591 eV/strain
       c           10.275240 Angstrom     dE/de3(zz)     0.002384 eV/strain
       alpha       89.566363 Degrees      dE/de4(yz)    -0.000271 eV/strain
       beta       110.109442 Degrees      dE/de5(xz)     0.000237 eV/strain
       gamma       88.436271 Degrees      dE/de6(xy)    -0.000688 eV/strain
--------------------------------------------------------------------------------

  Primitive cell volume =           686.402916 Angs**3

  Density of cell =      2.175273 g/cm**3

  Non-primitive cell volume =           686.402916 Angs**3


  Final internal derivatives :

--------------------------------------------------------------------------------
   No.  Atomic          a             b             c           Radius
        Label          (eV)          (eV)          (eV)        (eV/Angs)
--------------------------------------------------------------------------------
      1 Ge    c       0.000000      0.000000      0.000000      0.000000
      2 Ge    c      -0.000863     -0.000914     -0.000138      0.000000
      3 Ge    c       0.003236     -0.000532     -0.000343      0.000000
      4 Ge    c      -0.001880      0.000780      0.001032      0.000000
      5 Si    c       0.000417     -0.000552     -0.000855      0.000000
      6 Si    c       0.000541      0.001131     -0.001069      0.000000
      7 Si    c      -0.000414      0.000440      0.001605      0.000000
      8 Si    c      -0.001372      0.000196      0.001962      0.000000
      9 Si    c      -0.000522      0.000295      0.002050      0.000000
     10 Si    c       0.001512      0.000457     -0.002269      0.000000
     11 Si    c      -0.000705     -0.000379     -0.002767      0.000000
     12 Si    c      -0.002194      0.000187      0.003084      0.000000
     13 O1    c       0.000198     -0.000246      0.000534      0.000000
     14 O2    c       0.000342     -0.000124     -0.000302      0.000000
     15 O2    c      -0.000118     -0.000040     -0.000541      0.000000
     16 O2    c       0.000171     -0.000174     -0.000465      0.000000
     17 O3    c      -0.001381      0.002146     -0.000150      0.000000
     18 O2    c       0.000636     -0.000886      0.000336      0.000000
     19 O3    c       0.000290      0.000089     -0.000716      0.000000
     20 O3    c       0.000504     -0.000264      0.000483      0.000000
     21 O2    c      -0.001060      0.000073      0.000443      0.000000
     22 O2    c      -0.000499      0.000100     -0.000247      0.000000
     23 O3    c       0.002363      0.003803     -0.001618      0.000000
     24 O2    c       0.000313      0.001220     -0.000785      0.000000
     25 O2    c      -0.000279     -0.001056      0.000336      0.000000
     26 O2    c       0.002520     -0.001657     -0.001352      0.000000
     27 O3    c      -0.001930     -0.001175      0.000851      0.000000
     28 O2    c       0.000801     -0.000207     -0.000376      0.000000
     29 O1    c       0.001454      0.002789      0.000022      0.000000
     30 O3    c      -0.000724      0.003197     -0.002395      0.000000
     31 O3    c      -0.001516     -0.002779     -0.002476      0.000000
     32 O3    c       0.001958     -0.001291      0.001557      0.000000
     33 O1    c      -0.001069      0.000010      0.000795      0.000000
     34 O3    c      -0.004339     -0.000148      0.006088      0.000000
     35 O3    c       0.006203     -0.000112     -0.003200      0.000000
     36 O2    c      -0.000133     -0.000075     -0.000116      0.000000
     37 O1    s      -0.000459      0.000191      0.000292      0.000000
     38 O2    s      -0.000716      0.001020      0.000039      0.000000
     39 O2    s      -0.000628     -0.000623     -0.000152      0.000000
     40 O2    s       0.001770     -0.000026     -0.000554      0.000000
     41 O3    s       0.001223     -0.000728      0.000359      0.000000
     42 O2    s      -0.000710      0.000007     -0.000595      0.000000
     43 O3    s       0.000011      0.000056      0.000556      0.000000
     44 O3    s      -0.000458      0.000407     -0.000437      0.000000
     45 O2    s       0.000214     -0.000525     -0.001197      0.000000
     46 O2    s      -0.000498     -0.000837      0.001371      0.000000
     47 O3    s       0.000120      0.000190      0.000180      0.000000
     48 O2    s      -0.001135      0.000553      0.000445      0.000000
     49 O2    s      -0.000683     -0.000563      0.000175      0.000000
     50 O2    s       0.001381     -0.001048     -0.000434      0.000000
     51 O3    s       0.001723      0.000081     -0.000887      0.000000
     52 O2    s      -0.001133     -0.000006      0.001260      0.000000
     53 O1    s      -0.000474     -0.000494     -0.000331      0.000000
     54 O3    s       0.000104     -0.000733      0.000297      0.000000
     55 O3    s       0.000288      0.000659      0.000474      0.000000
     56 O3    s      -0.000323      0.000513     -0.000181      0.000000
     57 O1    s       0.000676     -0.000206      0.000289      0.000000
     58 O3    s       0.000887      0.000068     -0.001730      0.000000
     59 O3    s      -0.001628     -0.000449      0.001066      0.000000
     60 O2    s      -0.001731     -0.000280      0.000037      0.000000
--------------------------------------------------------------------------------
  Maximum abs         0.006203      0.003803      0.006088      0.000000
--------------------------------------------------------------------------------


  Born effective charge tensors : 

-------------------------------------------------------------------------------
  Atom             x           y             z
-------------------------------------------------------------------------------
    1 Ge    x       3.7871      0.3212      0.1522
            y       0.2810      4.2092      0.3377
            z       0.2920      0.1174      3.5702
-------------------------------------------------------------------------------
    2 Ge    x       4.1541      0.3432     -0.0501
            y       0.4113      4.1496     -0.1470
            z      -0.1229      0.0456      3.4162
-------------------------------------------------------------------------------
    3 Ge    x       4.5123      0.0945      0.1826
            y      -0.0245      3.9507     -0.0038
            z      -0.4972     -0.0547      3.6413
-------------------------------------------------------------------------------
    4 Ge    x       4.6829      0.3023     -0.1839
            y      -0.0623      3.9566      0.0239
            z      -0.2066      0.0260      3.6561
-------------------------------------------------------------------------------
    5 Si    x       3.4159     -0.2452      0.0156
            y      -0.1373      3.5447     -0.1860
            z       0.2586     -0.2008      2.9009
-------------------------------------------------------------------------------
    6 Si    x       3.0431      0.2199      0.1485
            y       0.1801      3.4193      0.2593
            z       0.1973      0.1373      2.8979
-------------------------------------------------------------------------------
    7 Si    x       3.1431     -0.2345      0.2252
            y       0.0452      3.6948     -0.1100
            z       0.2276     -0.0719      2.9482
-------------------------------------------------------------------------------
    8 Si    x       3.7244     -0.4756      0.1061
            y      -0.3681      3.6169      0.2233
            z      -0.0018      0.0674      2.9286
-------------------------------------------------------------------------------
    9 Si    x       3.4894      0.4400     -0.1277
            y       0.4309      3.5021     -0.2029
            z      -0.0712     -0.0403      2.8171
-------------------------------------------------------------------------------
   10 Si    x       3.5179     -0.4171     -0.1903
            y      -0.1630      3.8908      0.2694
            z      -0.1055      0.0651      2.9067
-------------------------------------------------------------------------------
   11 Si    x       3.5530      0.3135     -0.3712
            y       0.0758      3.5520     -0.0679
            z       0.2820      0.1101      4.0631
-------------------------------------------------------------------------------
   12 Si    x       3.5663      0.0845      0.2430
            y      -0.0004      3.3488     -0.0525
            z      -0.1756      0.1144      3.8937
-------------------------------------------------------------------------------
   13 O1    x      -1.4622     -0.1523      0.2784
            y      -0.1315     -1.5603     -0.0572
            z       0.2798     -0.0355     -2.6751
-------------------------------------------------------------------------------
   14 O2    x      -1.2218      0.0823      0.1854
            y       0.0441     -1.3122      0.0386
            z       0.1771      0.0493     -2.0597
-------------------------------------------------------------------------------
   15 O2    x      -1.2317     -0.1358      0.1972
            y      -0.1136     -1.2829     -0.0261
            z       0.1788     -0.0242     -2.0226
-------------------------------------------------------------------------------
   16 O2    x      -1.2508      0.1242      0.1834
            y       0.0800     -1.2719      0.0308
            z       0.1701      0.0543     -2.0346
-------------------------------------------------------------------------------
   17 O3    x      -1.3190     -0.1431     -0.1221
            y      -0.1987     -3.1433     -0.1514
            z      -0.1568     -0.1563     -1.2266
-------------------------------------------------------------------------------
   18 O2    x      -1.1343     -0.0295     -0.0649
            y      -0.0776     -2.5631     -0.0311
            z      -0.0986      0.0072     -1.1073
-------------------------------------------------------------------------------
   19 O3    x      -2.7396      0.0497     -0.4652
            y       0.0014     -1.3573     -0.0952
            z      -0.5427     -0.0374     -1.4379
-------------------------------------------------------------------------------
   20 O3    x      -2.8891      0.0624     -0.2023
            y       0.0112     -1.3697      0.0959
            z      -0.2107      0.0739     -1.2832
-------------------------------------------------------------------------------
   21 O2    x      -2.3106      0.1247     -0.2800
            y       0.0927     -1.2327     -0.0434
            z      -0.2843     -0.0044     -1.1535
-------------------------------------------------------------------------------
   22 O2    x      -2.3109      0.1428     -0.2830
            y       0.1022     -1.2342      0.0793
            z      -0.3158      0.0625     -1.1561
-------------------------------------------------------------------------------
   23 O3    x      -1.6902     -0.8042     -0.3681
            y      -0.7587     -2.5473     -0.5422
            z      -0.4847     -0.5547     -1.7061
-------------------------------------------------------------------------------
   24 O2    x      -1.4439      0.5809     -0.3955
            y       0.5568     -2.0637      0.6011
            z      -0.3691      0.5914     -1.5574
-------------------------------------------------------------------------------
   25 O2    x      -1.3947     -0.5700     -0.4151
            y      -0.5128     -2.0310     -0.5815
            z      -0.3620     -0.5970     -1.6006
-------------------------------------------------------------------------------
   26 O2    x      -1.5428      0.5618     -0.3401
            y       0.5491     -1.8615      0.4996
            z      -0.3971      0.4651     -1.5640
-------------------------------------------------------------------------------
   27 O3    x      -1.4539     -0.2050      0.0265
            y      -0.2363     -3.0681      0.0220
            z       0.0494      0.0547     -1.1223
-------------------------------------------------------------------------------
   28 O2    x      -1.2519     -0.0097      0.0306
            y      -0.0697     -2.4035     -0.0450
            z       0.0525     -0.0396     -1.0420
-------------------------------------------------------------------------------
   29 O1    x      -2.4030     -1.0499      0.3420
            y      -1.0122     -2.5828      0.2566
            z       0.3337      0.1906     -1.3330
-------------------------------------------------------------------------------
   30 O3    x      -2.2476      1.0504      0.1247
            y       1.0624     -2.3968     -0.1094
            z       0.2595     -0.1421     -1.2317
-------------------------------------------------------------------------------
   31 O3    x      -2.2389     -1.0495      0.1919
            y      -1.0000     -2.3524      0.1296
            z       0.2978      0.1688     -1.2834
-------------------------------------------------------------------------------
   32 O3    x      -2.3328      1.0316      0.4022
            y       1.0142     -2.2485     -0.3802
            z       0.3691     -0.3350     -1.3508
-------------------------------------------------------------------------------
   33 O1    x      -1.9654     -0.0856     -0.7461
            y      -0.0217     -1.3336     -0.0775
            z      -0.5054     -0.0885     -2.7027
-------------------------------------------------------------------------------
   34 O3    x      -2.7333     -0.1342      1.0709
            y      -0.0332     -1.2630      0.0708
            z       1.0002      0.0997     -2.1188
-------------------------------------------------------------------------------
   35 O3    x      -2.8142     -0.1399      0.7436
            y      -0.0131     -1.2291      0.0594
            z       0.7649      0.0746     -1.9296
-------------------------------------------------------------------------------
   36 O2    x      -1.2069     -0.0487     -0.2444
            y      -0.0035     -1.1265     -0.0870
            z      -0.2824     -0.1928     -2.9411
-------------------------------------------------------------------------------




  Elastic Constant Matrix: (Units=GPa)

-------------------------------------------------------------------------------
  Indices      1         2         3         4         5         6    
-------------------------------------------------------------------------------
       1     45.0343   25.7585    8.2216   -1.8194    1.4697   14.7160
       2     25.7585   71.5286   15.2305    0.0978    5.9681   22.1278
       3      8.2216   15.2305   28.4772    5.7728    9.8192    8.5346
       4     -1.8194    0.0978    5.7728   12.6046    3.3746    6.6457
       5      1.4697    5.9681    9.8192    3.3746    9.5626    5.1400
       6     14.7160   22.1278    8.5346    6.6457    5.1400   19.9193
-------------------------------------------------------------------------------


  Elastic Compliance Matrix: (Units=1/GPa)

-------------------------------------------------------------------------------
  Indices      1         2         3         4         5         6    
-------------------------------------------------------------------------------
       1    0.035742 -0.002814 -0.008986  0.021446  0.014178 -0.030242
       2   -0.002814  0.025756 -0.008768  0.018257  0.002827 -0.029596
       3   -0.008986 -0.008768  0.062646 -0.020660 -0.056036  0.010890
       4    0.021446  0.018257 -0.020660  0.129011 -0.001403 -0.069953
       5    0.014178  0.002827 -0.056036 -0.001403  0.177437 -0.034923
       6   -0.030242 -0.029596  0.010890 -0.069953 -0.034923  0.133106
-------------------------------------------------------------------------------

  Mechanical properties :

-------------------------------------------------------------------------------
  Convention :                    Reuss         Voigt         Hill
-------------------------------------------------------------------------------
  Bulk  Modulus (GPa)     =      12.04739      27.05125      19.54932
  Shear Modulus (GPa)     =       7.90509      14.80593      11.35551
-------------------------------------------------------------------------------
  Velocity S-wave (km/s)  =       1.90632       2.60892       2.28479
  Velocity P-wave (km/s)  =       3.22238       4.63800       3.99342
-------------------------------------------------------------------------------
  Compressibility (1/GPa) =    0.08300553
-------------------------------------------------------------------------------
  Stress axis :                     x             y             z
-------------------------------------------------------------------------------
  Youngs Moduli (GPa)     =      27.97851      38.82627      15.96270
-------------------------------------------------------------------------------
  Poissons Ratio (x)      =                     0.10927       0.14344
  Poissons Ratio (y)      =       0.07874                     0.13997
  Poissons Ratio (z)      =       0.25142       0.34044
-------------------------------------------------------------------------------


  Piezoelectric Strain Matrix: (Units=C/m**2)

-------------------------------------------------------------------------------
  Indices      1         2         3         4         5         6    
-------------------------------------------------------------------------------
       x     1.38602   1.20527  -0.42829   0.69151  -0.58930  -0.16405
       y    -1.81523  -0.52869   0.03732  -0.69072  -0.31245  -0.10704
       z     0.43950   0.22212  -0.02527   0.05895  -1.46613   0.05649
-------------------------------------------------------------------------------


  Piezoelectric Stress Matrix: (Units=10**-11 C/N)

-------------------------------------------------------------------------------
  Indices      1         2         3         4         5         6    
-------------------------------------------------------------------------------
       x     6.14321   4.67117  -3.29054  16.20937  -5.27470 -13.18815
       y    -7.97330  -1.91613   5.38991 -13.05377  -8.00546  11.59323
       z    -0.59199  -0.00346   7.40742   1.97145 -25.39276   3.44556
-------------------------------------------------------------------------------


  Static dielectric constant tensor : 

-------------------------------------------------------------------------------
              x         y         z
-------------------------------------------------------------------------------
       x     4.81903   0.06634   0.01206
       y     0.06634   4.83754  -0.01296
       z     0.01206  -0.01296   3.53468
--------------------------------------------------------------------------------

  High frequency dielectric constant tensor : 

-------------------------------------------------------------------------------
              x         y         z
-------------------------------------------------------------------------------
       x     1.62734   0.00106   0.00821
       y     0.00106   1.64106   0.00179
       z     0.00821   0.00179   1.58315
-------------------------------------------------------------------------------

  Static refractive indices : 

-------------------------------------------------------------------------------
    1 =    1.88001      2 =    2.18210      3 =    2.21253
-------------------------------------------------------------------------------

  High frequency refractive indices : 

-------------------------------------------------------------------------------
    1 =    1.25763      2 =    1.27619      3 =    1.28111
-------------------------------------------------------------------------------


  Time to end of optimisation =       2.4191 seconds


  Peak dynamic memory used =       2.76 MB 


  Timing analysis for GULP :

--------------------------------------------------------------------------------
  Task / Subroutine                                          Time (Seconds)
--------------------------------------------------------------------------------
  Calculation of reciprocal space energy and derivatives          0.1570
  Calculation of real space energy and derivatives                1.9300
  Calculation of three-body energy and derivatives                0.1051
  Calculation and manipulation of Hessian matrix                  0.3357
  Calculation of matrix inversion                                 0.0031
--------------------------------------------------------------------------------
  Total CPU time                                                  2.4191
--------------------------------------------------------------------------------


  Dump file written as c00075.vasp.grs
  CIF file written as c00075.vasp.cif


  Job Finished at 22:40.49  6th October    2025                               

