********************************************************************************
*                       GENERAL UTILITY LATTICE PROGRAM                        *
*                                 Julian Gale                                  *
*                       Curtin Institute for Computation                       *
*                    School of Molecular and Life Sciences                     *
*                    Curtin University, Western Australia                      *
********************************************************************************
* Version = 6.1.2 * Last modified =   3rd November 2022                        *
********************************************************************************
*  optimise     - perform optimisation run                                     *
*  conp         - constant pressure calculation                                *
*  property     - calculate properties for final geometry                      *
********************************************************************************

  Job Started  at 22:39.58  6th October    2025                               

  Number of CPUs =     1


  Total number of configurations input =      1

********************************************************************************
*  Input for Configuration =   1 : c00062.vasp                                 *
********************************************************************************

  Formula = Ge4Si8O24                                                   

  Number of irreducible atoms/shells =      60


  Total number atoms/shells =      60

  Dimensionality = 3               :  Bulk   



  Cartesian lattice vectors (Angstroms) :

        9.086940    0.000000    0.000000
        0.000000    7.554810    0.000000
       -3.295144    0.000000    9.944380

  Cell parameters (Angstroms/Degrees):

  a =       9.0869    alpha =  90.0000
  b =       7.5548    beta  = 108.3330
  c =      10.4761    gamma =  90.0000

  Initial cell volume =         682.682735 Angs**3

  Temperature of configuration =   0.00     K 

  Pressure of configuration =         0.000 GPa 

  Fractional coordinates of asymmetric unit :

--------------------------------------------------------------------------------
   No.  Atomic       x           y          z         Charge      Occupancy
        Label      (Frac)      (Frac)     (Frac)        (e)         (Frac)  
--------------------------------------------------------------------------------
      1 Ge    c    0.313820    0.296860    0.309830     4.00000    1.000000    
      2 Ge    c    0.331050 *  0.296920 *  0.607380 *   4.00000    1.000000    
      3 Ge    c    0.668950 *  0.296920 *  0.392620 *   4.00000    1.000000    
      4 Ge    c    0.879680 *  0.000000 *  0.350160 *   4.00000    1.000000    
      5 Si    c    0.686180 *  0.296860 *  0.690170 *   4.00000    1.000000    
      6 Si    c    0.686180 *  0.703140 *  0.690170 *   4.00000    1.000000    
      7 Si    c    0.313820 *  0.703140 *  0.309830 *   4.00000    1.000000    
      8 Si    c    0.668950 *  0.703080 *  0.392620 *   4.00000    1.000000    
      9 Si    c    0.331050 *  0.703080 *  0.607380 *   4.00000    1.000000    
     10 Si    c    0.120320 *  0.000000 *  0.649840 *   4.00000    1.000000    
     11 Si    c    0.093070 *  0.000000 *  0.158230 *   4.00000    1.000000    
     12 Si    c    0.906930 *  0.000000 *  0.841770 *   4.00000    1.000000    
     13 O1    c    0.268740 *  0.279030 *  0.446100 *   1.73396    1.000000    
     14 O3    c    0.731260 *  0.279030 *  0.553900 *   1.33043    1.000000    
     15 O2    c    0.731260 *  0.720970 *  0.553900 *   0.87073    1.000000    
     16 O2    c    0.268740 *  0.720970 *  0.446100 *   0.87073    1.000000    
     17 O3    c    0.295480 *  0.500000 *  0.260860 *   1.33043    1.000000    
     18 O2    c    0.704520 *  0.500000 *  0.739140 *   0.87073    1.000000    
     19 O1    c    0.490600 *  0.234690 *  0.337530 *   1.73396    1.000000    
     20 O3    c    0.509400 *  0.234690 *  0.662470 *   1.33043    1.000000    
     21 O2    c    0.509400 *  0.765310 *  0.662470 *   0.87073    1.000000    
     22 O2    c    0.490600 *  0.765310 *  0.337530 *   0.87073    1.000000    
     23 O3    c    0.200440 *  0.174000 *  0.194980 *   1.33043    1.000000    
     24 O2    c    0.799560 *  0.174000 *  0.805020 *   0.87073    1.000000    
     25 O2    c    0.799560 *  0.826000 *  0.805020 *   0.87073    1.000000    
     26 O2    c    0.200440 *  0.826000 *  0.194980 *   0.87073    1.000000    
     27 O3    c    0.317860 *  0.500000 *  0.649090 *   1.33043    1.000000    
     28 O3    c    0.682140 *  0.500000 *  0.350910 *   1.33043    1.000000    
     29 O3    c    0.227920 *  0.173870 *  0.671620 *   1.33043    1.000000    
     30 O1    c    0.772080 *  0.173870 *  0.328380 *   1.73396    1.000000    
     31 O3    c    0.772080 *  0.826130 *  0.328380 *   1.33043    1.000000    
     32 O2    c    0.227920 *  0.826130 *  0.671620 *   0.87073    1.000000    
     33 O3    c    0.000000 *  0.000000 *  0.500000 *   1.33043    1.000000    
     34 O3    c    0.971960 *  0.000000 *  0.241930 *   1.33043    1.000000    
     35 O2    c    0.028040 *  0.000000 *  0.758070 *   0.87073    1.000000    
     36 O2    c    0.000000 *  0.000000 *  0.000000 *   0.87073    1.000000    
     37 O1    s    0.268740 *  0.279030 *  0.446100 *  -3.73396    1.000000    
     38 O3    s    0.731260 *  0.279030 *  0.553900 *  -3.33043    1.000000    
     39 O2    s    0.731260 *  0.720970 *  0.553900 *  -2.87073    1.000000    
     40 O2    s    0.268740 *  0.720970 *  0.446100 *  -2.87073    1.000000    
     41 O3    s    0.295480 *  0.500000 *  0.260860 *  -3.33043    1.000000    
     42 O2    s    0.704520 *  0.500000 *  0.739140 *  -2.87073    1.000000    
     43 O1    s    0.490600 *  0.234690 *  0.337530 *  -3.73396    1.000000    
     44 O3    s    0.509400 *  0.234690 *  0.662470 *  -3.33043    1.000000    
     45 O2    s    0.509400 *  0.765310 *  0.662470 *  -2.87073    1.000000    
     46 O2    s    0.490600 *  0.765310 *  0.337530 *  -2.87073    1.000000    
     47 O3    s    0.200440 *  0.174000 *  0.194980 *  -3.33043    1.000000    
     48 O2    s    0.799560 *  0.174000 *  0.805020 *  -2.87073    1.000000    
     49 O2    s    0.799560 *  0.826000 *  0.805020 *  -2.87073    1.000000    
     50 O2    s    0.200440 *  0.826000 *  0.194980 *  -2.87073    1.000000    
     51 O3    s    0.317860 *  0.500000 *  0.649090 *  -3.33043    1.000000    
     52 O3    s    0.682140 *  0.500000 *  0.350910 *  -3.33043    1.000000    
     53 O3    s    0.227920 *  0.173870 *  0.671620 *  -3.33043    1.000000    
     54 O1    s    0.772080 *  0.173870 *  0.328380 *  -3.73396    1.000000    
     55 O3    s    0.772080 *  0.826130 *  0.328380 *  -3.33043    1.000000    
     56 O2    s    0.227920 *  0.826130 *  0.671620 *  -2.87073    1.000000    
     57 O3    s    0.000000 *  0.000000 *  0.500000 *  -3.33043    1.000000    
     58 O3    s    0.971960 *  0.000000 *  0.241930 *  -3.33043    1.000000    
     59 O2    s    0.028040 *  0.000000 *  0.758070 *  -2.87073    1.000000    
     60 O2    s    0.000000 *  0.000000 *  0.000000 *  -2.87073    1.000000    
--------------------------------------------------------------------------------



********************************************************************************
*  General input information                                                   *
********************************************************************************

  Species output for all configurations : 

--------------------------------------------------------------------------------
  Species    Type    Atomic    Atomic    Charge       Radii (Angs)     Library
                     Number     Mass       (e)     Cova   Ionic  VDW   Symbol
--------------------------------------------------------------------------------
    Ge       Core       32      72.61   4.000000   1.170  0.000  1.750 Ge       
    Si       Core       14      28.09   4.000000   1.200  0.000  2.100 Si       
    O1       Core        8      16.00   1.733957   0.730  0.000  1.360 O1       
    O2       Core        8      16.00   0.870733   0.730  0.000  1.360 O2       
    O3       Core        8      16.00   1.330431   0.730  0.000  1.360 O3       
    O1       Shell       8       0.00  -3.733957   0.730  0.000  0.000 O1       
    O2       Shell       8       0.00  -2.870733   0.730  0.000  0.000 O2       
    O3       Shell       8       0.00  -3.330431   0.730  0.000  0.000 O3       
--------------------------------------------------------------------------------


  Lattice summation method               =    Ewald          (3-D)
                                         =    Parry          (2-D)
                                         =    Saunders et al (1-D)
  Accuracy factor for lattice sums       =   12.000


  Analytic derivatives to be used

  Time limit = Infinity

  Maximum range for interatomic potentials =    100000.000000 Angstroms

  General interatomic potentials :

--------------------------------------------------------------------------------
Atom  Types   Potential      Parameter       Value         Units   Cutoffs(Ang)
  1     2                                                            Min /  Max 
--------------------------------------------------------------------------------
Si   c O1   s Buckingham    Buckingham A     1315.2478    eV        0.000 16.000
                            Buckingham rho  0.31775900    Ang       
                            Buckingham C     10.141118    eV*Ang^6  
--------------------------------------------------------------------------------
Si   c O2   s Buckingham    Buckingham A     1315.2478    eV        0.000 16.000
                            Buckingham rho  0.31775900    Ang       
                            Buckingham C     10.141118    eV*Ang^6  
--------------------------------------------------------------------------------
Si   c O3   s Buckingham    Buckingham A     1315.2478    eV        0.000 16.000
                            Buckingham rho  0.31775900    Ang       
                            Buckingham C     10.141118    eV*Ang^6  
--------------------------------------------------------------------------------
Ge   c O1   s Buckingham    Buckingham A     1497.3996    eV        0.000 16.000
                            Buckingham rho  0.32564600    Ang       
                            Buckingham C     16.808599    eV*Ang^6  
--------------------------------------------------------------------------------
Ge   c O2   s Buckingham    Buckingham A     1497.3996    eV        0.000 16.000
                            Buckingham rho  0.32564600    Ang       
                            Buckingham C     16.808599    eV*Ang^6  
--------------------------------------------------------------------------------
Ge   c O3   s Buckingham    Buckingham A     1497.3996    eV        0.000 16.000
                            Buckingham rho  0.32564600    Ang       
                            Buckingham C     16.808599    eV*Ang^6  
--------------------------------------------------------------------------------
O1   s O1   s Buckingham    Buckingham A     22764.000    eV        0.000 16.000
                            Buckingham rho  0.14900000    Ang       
                            Buckingham C     10.937044    eV*Ang^6  
--------------------------------------------------------------------------------
O1   s O2   s Buckingham    Buckingham A     22764.000    eV        0.000 16.000
                            Buckingham rho  0.14900000    Ang       
                            Buckingham C     10.937044    eV*Ang^6  
--------------------------------------------------------------------------------
O1   s O3   s Buckingham    Buckingham A     22764.000    eV        0.000 16.000
                            Buckingham rho  0.14900000    Ang       
                            Buckingham C     10.937044    eV*Ang^6  
--------------------------------------------------------------------------------
O2   s O2   s Buckingham    Buckingham A     22764.000    eV        0.000 16.000
                            Buckingham rho  0.14900000    Ang       
                            Buckingham C     10.937044    eV*Ang^6  
--------------------------------------------------------------------------------
O2   s O3   s Buckingham    Buckingham A     22764.000    eV        0.000 16.000
                            Buckingham rho  0.14900000    Ang       
                            Buckingham C     10.937044    eV*Ang^6  
--------------------------------------------------------------------------------
O3   s O3   s Buckingham    Buckingham A     22764.000    eV        0.000 16.000
                            Buckingham rho  0.14900000    Ang       
                            Buckingham C     10.937044    eV*Ang^6  
--------------------------------------------------------------------------------
O1   c O1   s Spring (c-s)  Spring k 2       180.31577    eV*Ang^-2 0.000  0.800
                            Spring k 4       0.0000000    eV*Ang^-4 
--------------------------------------------------------------------------------
O2   c O2   s Spring (c-s)  Spring k 2       75.969800    eV*Ang^-2 0.000  0.800
                            Spring k 4       0.0000000    eV*Ang^-4 
--------------------------------------------------------------------------------
O3   c O3   s Spring (c-s)  Spring k 2       128.14270    eV*Ang^-2 0.000  0.800
                            Spring k 4       0.0000000    eV*Ang^-4 
--------------------------------------------------------------------------------

  General Three-body potentials :

--------------------------------------------------------------------------------
  Atoms       Potential      Parameter       Value         Units   Cutoffs(Ang)
  1 / 2 / 3                                                          Min /  Max 
--------------------------------------------------------------------------------
Si    core    Harmonic      Three-body cnst  1.2614000    eV*rad^-2 0.000  1.900
O1    shel                  Three-body angl  109.47000    degrees   0.000  1.900
O1    shel                  Three-body k4    0.0000000    eV*rad^-4 0.000  3.500
                            Three-body k3    0.0000000    eV*rad^-3 
--------------------------------------------------------------------------------
Si    core    Harmonic      Three-body cnst  1.2614000    eV*rad^-2 0.000  1.900
O1    shel                  Three-body angl  109.47000    degrees   0.000  1.900
õ(1   shel                  Three-body k4    0.0000000    eV*rad^-4 0.000  3.500
                            Three-body k3    0.0000000    eV*rad^-3 
--------------------------------------------------------------------------------
Si    core    Harmonic      Three-body cnst  1.2614000    eV*rad^-2 0.000  1.900
õ(1   shel                  Three-body angl  109.47000    degrees   0.000  1.900
õ(1   shel                  Three-body k4    0.0000000    eV*rad^-4 0.000  3.500
                            Three-body k3    0.0000000    eV*rad^-3 
--------------------------------------------------------------------------------
Si    core    Harmonic      Three-body cnst  1.2614000    eV*rad^-2 0.000  1.900
O1    shel                  Three-body angl  109.47000    degrees   0.000  1.900
O2    shel                  Three-body k4    0.0000000    eV*rad^-4 0.000  3.500
                            Three-body k3    0.0000000    eV*rad^-3 
--------------------------------------------------------------------------------
Si    core    Harmonic      Three-body cnst  1.2614000    eV*rad^-2 0.000  1.900
O1    shel                  Three-body angl  109.47000    degrees   0.000  1.900
õ(2   shel                  Three-body k4    0.0000000    eV*rad^-4 0.000  3.500
                            Three-body k3    0.0000000    eV*rad^-3 
--------------------------------------------------------------------------------
Si    core    Harmonic      Three-body cnst  1.2614000    eV*rad^-2 0.000  1.900
O2    shel                  Three-body angl  109.47000    degrees   0.000  1.900
õ(1   shel                  Three-body k4    0.0000000    eV*rad^-4 0.000  3.500
                            Three-body k3    0.0000000    eV*rad^-3 
--------------------------------------------------------------------------------
Si    core    Harmonic      Three-body cnst  1.2614000    eV*rad^-2 0.000  1.900
õ(1   shel                  Three-body angl  109.47000    degrees   0.000  1.900
õ(2   shel                  Three-body k4    0.0000000    eV*rad^-4 0.000  3.500
                            Three-body k3    0.0000000    eV*rad^-3 
--------------------------------------------------------------------------------
Si    core    Harmonic      Three-body cnst  1.2614000    eV*rad^-2 0.000  1.900
O2    shel                  Three-body angl  109.47000    degrees   0.000  1.900
O2    shel                  Three-body k4    0.0000000    eV*rad^-4 0.000  3.500
                            Three-body k3    0.0000000    eV*rad^-3 
--------------------------------------------------------------------------------
Si    core    Harmonic      Three-body cnst  1.2614000    eV*rad^-2 0.000  1.900
O2    shel                  Three-body angl  109.47000    degrees   0.000  1.900
õ(2   shel                  Three-body k4    0.0000000    eV*rad^-4 0.000  3.500
                            Three-body k3    0.0000000    eV*rad^-3 
--------------------------------------------------------------------------------
Si    core    Harmonic      Three-body cnst  1.2614000    eV*rad^-2 0.000  1.900
õ(2   shel                  Three-body angl  109.47000    degrees   0.000  1.900
õ(2   shel                  Three-body k4    0.0000000    eV*rad^-4 0.000  3.500
                            Three-body k3    0.0000000    eV*rad^-3 
--------------------------------------------------------------------------------

********************************************************************************
*  Output for configuration   1 : c00062.vasp                                  *
********************************************************************************


  Components of energy : 

--------------------------------------------------------------------------------
  Interatomic potentials     =         400.30463393 eV    
  Three-body potentials      =           0.00007330 eV    
  Monopole - monopole (real) =       -1236.99964305 eV    
  Monopole - monopole (recip)=        -659.26603192 eV    
  Monopole - monopole (total)=       -1896.26567496 eV    
--------------------------------------------------------------------------------
  Total lattice energy       =       -1495.96096774 eV    
--------------------------------------------------------------------------------
  Total lattice energy       =         -144337.3655 kJ/(mole unit cells)
--------------------------------------------------------------------------------


  Number of variables =      183

  Maximum number of calculations  =          1000
  Maximum Hessian update interval =            10
  Maximum step size               =   0.100000000
  Maximum parameter tolerance     =   0.000010000
  Maximum function  tolerance     =   0.000010000
  Maximum gradient  tolerance     =   0.001000000
  Maximum gradient  component     =   0.010000000

  Symmetry not applied to optimisation

  Cell parameters to be optimised using strains

  Newton-Raphson optimiser to be used

  BFGS hessian update to be used

  Lower half triangular hessian to be used

  Minimiser to switch to RFO
  When gradient norm is less than     0.050000

  Dumpfile to be written after every cycle

  Start of bulk optimisation :

  Cycle:      0 Energy:     -1495.960968  Gnorm:      5.652380  CPU:    0.030
  ** Hessian calculated **
  Cycle:      1 Energy:     -1511.926394  Gnorm:      1.415877  CPU:    0.065
  ** Hessian calculated **
  Cycle:      2 Energy:     -1514.561752  Gnorm:      0.859393  CPU:    0.132
  ** Hessian calculated **
  Cycle:      3 Energy:     -1515.161189  Gnorm:      0.469434  CPU:    0.193
  Cycle:      4 Energy:     -1515.429964  Gnorm:      0.301920  CPU:    0.231
  Cycle:      5 Energy:     -1515.668501  Gnorm:      0.237955  CPU:    0.275
  Cycle:      6 Energy:     -1515.889616  Gnorm:      0.208030  CPU:    0.320
  Cycle:      7 Energy:     -1516.020375  Gnorm:      0.166322  CPU:    0.357
  Cycle:      8 Energy:     -1516.104701  Gnorm:      0.137965  CPU:    0.394
  Cycle:      9 Energy:     -1516.150263  Gnorm:      0.108028  CPU:    0.431
  Cycle:     10 Energy:     -1516.173358  Gnorm:      0.080880  CPU:    0.468
  Cycle:     11 Energy:     -1516.188489  Gnorm:      0.067657  CPU:    0.505
  Cycle:     12 Energy:     -1516.204015  Gnorm:      0.064761  CPU:    0.549
  ** Hessian calculated **
  Cycle:     13 Energy:     -1516.214105  Gnorm:      0.063959  CPU:    0.616
  Cycle:     14 Energy:     -1516.231267  Gnorm:      0.062544  CPU:    0.667
  Cycle:     15 Energy:     -1516.259474  Gnorm:      0.060054  CPU:    0.718
  Cycle:     16 Energy:     -1516.299364  Gnorm:      0.056116  CPU:    0.762
  Cycle:     17 Energy:     -1516.363742  Gnorm:      0.048602  CPU:    0.812
  ** Hessian has wrong structure
  ** Imaginary eigenvectors =   3
  Cycle:     18 Energy:     -1516.364827  Gnorm:      0.075128  CPU:    0.884
  ** Hessian has wrong structure
  ** Imaginary eigenvectors =   3
  ** Hessian has wrong structure
  ** Imaginary eigenvectors =   3
  Cycle:     19 Energy:     -1516.411993  Gnorm:      0.077684  CPU:    1.041
  ** Hessian has wrong structure
  ** Imaginary eigenvectors =   2
  ** Hessian has wrong structure
  ** Imaginary eigenvectors =   1
  Cycle:     20 Energy:     -1516.422111  Gnorm:      0.085163  CPU:    1.169
  ** Hessian has required structure
  Cycle:     21 Energy:     -1516.561520  Gnorm:      0.063253  CPU:    1.235
  ** Hessian has required structure
  Cycle:     22 Energy:     -1516.622312  Gnorm:      0.039624  CPU:    1.279
  ** Hessian has required structure
  Cycle:     23 Energy:     -1516.648783  Gnorm:      0.046362  CPU:    1.322
  ** Hessian has required structure
  Cycle:     24 Energy:     -1516.660278  Gnorm:      0.035019  CPU:    1.359
  ** Hessian has required structure
  Cycle:     25 Energy:     -1516.674964  Gnorm:      0.026803  CPU:    1.402
  ** Hessian has required structure
  Cycle:     26 Energy:     -1516.680233  Gnorm:      0.025778  CPU:    1.446
  ** Hessian has required structure
  Cycle:     27 Energy:     -1516.687585  Gnorm:      0.029464  CPU:    1.496
  ** Hessian has required structure
  Cycle:     28 Energy:     -1516.693344  Gnorm:      0.017206  CPU:    1.540
  ** Hessian has required structure
  Cycle:     29 Energy:     -1516.696060  Gnorm:      0.018410  CPU:    1.584
  ** Hessian has required structure
  Cycle:     30 Energy:     -1516.698731  Gnorm:      0.010761  CPU:    1.628
  ** Hessian has required structure
  Cycle:     31 Energy:     -1516.702785  Gnorm:      0.006680  CPU:    1.701
  ** Hessian has required structure
  Cycle:     32 Energy:     -1516.704378  Gnorm:      0.004851  CPU:    1.752
  ** Hessian has required structure
  Cycle:     33 Energy:     -1516.704966  Gnorm:      0.002868  CPU:    1.803
  ** Hessian has required structure
  Cycle:     34 Energy:     -1516.705193  Gnorm:      0.002029  CPU:    1.854
  ** Hessian has required structure
  Cycle:     35 Energy:     -1516.705269  Gnorm:      0.001117  CPU:    1.897
  ** Hessian has required structure
  Cycle:     36 Energy:     -1516.705310  Gnorm:      0.000812  CPU:    1.948
  ** Hessian has required structure
  Cycle:     37 Energy:     -1516.705317  Gnorm:      0.000485  CPU:    1.985
  ** Hessian has required structure
  Cycle:     38 Energy:     -1516.705320  Gnorm:      0.000371  CPU:    2.022
  ** Hessian has required structure
  Cycle:     39 Energy:     -1516.705320  Gnorm:      0.000293  CPU:    2.059
  ** Hessian has required structure
  Cycle:     40 Energy:     -1516.705320  Gnorm:      0.000293  CPU:    2.117
  ** Hessian has required structure
  Cycle:     41 Energy:     -1516.705320  Gnorm:      0.000293  CPU:    2.242
  ** Hessian calculated **
  Cycle:     42 Energy:     -1516.705320  Gnorm:      0.000193  CPU:    2.296
  ** Hessian has required structure
  Cycle:     43 Energy:     -1516.705321  Gnorm:      0.000317  CPU:    2.334
  ** Hessian has required structure
  Cycle:     44 Energy:     -1516.705321  Gnorm:      0.000280  CPU:    2.372
  ** Hessian has required structure
  Cycle:     45 Energy:     -1516.705321  Gnorm:      0.000264  CPU:    2.409
  ** Hessian has required structure
  Cycle:     46 Energy:     -1516.705321  Gnorm:      0.000228  CPU:    2.447
  ** Hessian has required structure
  Cycle:     47 Energy:     -1516.705321  Gnorm:      0.000214  CPU:    2.485
  ** Hessian has required structure
  Cycle:     48 Energy:     -1516.705321  Gnorm:      0.000192  CPU:    2.523
  ** Hessian has required structure
  Cycle:     49 Energy:     -1516.705321  Gnorm:      0.000183  CPU:    2.560
  ** Hessian has required structure
  Cycle:     50 Energy:     -1516.705321  Gnorm:      0.000188  CPU:    2.598
  ** Hessian has required structure
  Cycle:     51 Energy:     -1516.705321  Gnorm:      0.000193  CPU:    2.636
  ** Hessian has required structure
  Cycle:     52 Energy:     -1516.705321  Gnorm:      0.000192  CPU:    2.701
  ** Hessian has required structure
  Cycle:     53 Energy:     -1516.705321  Gnorm:      0.000192  CPU:    2.740
  ** Hessian has required structure
  Cycle:     54 Energy:     -1516.705321  Gnorm:      0.000192  CPU:    2.780
  ** Hessian has required structure
  Cycle:     55 Energy:     -1516.705321  Gnorm:      0.000192  CPU:    2.820
  ** Hessian has required structure
  Cycle:     56 Energy:     -1516.705321  Gnorm:      0.000192  CPU:    2.860
  ** Hessian has required structure
  Cycle:     57 Energy:     -1516.705321  Gnorm:      0.000192  CPU:    2.900
  ** Hessian has required structure
  Cycle:     58 Energy:     -1516.705321  Gnorm:      0.000192  CPU:    2.941
  ** Hessian has required structure
  Cycle:     59 Energy:     -1516.705321  Gnorm:      0.000192  CPU:    2.982
  ** Hessian has required structure
  Cycle:     60 Energy:     -1516.705321  Gnorm:      0.000191  CPU:    3.029
  ** Hessian has required structure
  Cycle:     61 Energy:     -1516.705321  Gnorm:      0.000191  CPU:    3.069
  ** Hessian has required structure


  **** Too many failed attempts to optimise ****

  Final energy =   -1516.70532076 eV      
  Final Gnorm  =       0.00019188

  Components of energy : 

--------------------------------------------------------------------------------
  Interatomic potentials     =         403.74027205 eV    
  Three-body potentials      =           0.05360727 eV    
  Monopole - monopole (real) =        -834.60325739 eV    
  Monopole - monopole (recip)=       -1085.89594270 eV    
  Monopole - monopole (total)=       -1920.49920009 eV    
--------------------------------------------------------------------------------
  Total lattice energy       =       -1516.70532076 eV    
--------------------------------------------------------------------------------
  Total lattice energy       =         -146338.8785 kJ/(mole unit cells)
--------------------------------------------------------------------------------

  Final fractional coordinates of atoms :

--------------------------------------------------------------------------------
   No.  Atomic        x           y          z          Radius
        Label       (Frac)      (Frac)     (Frac)       (Angs) 
--------------------------------------------------------------------------------
     1  Ge    c     0.313820    0.296860    0.309830    0.000000
     2  Ge    c     0.347802    0.250122    0.634152    0.000000
     3  Ge    c     0.691127    0.352260    0.397433    0.000000
     4  Ge    c     0.884605    0.045671    0.353086    0.000000
     5  Si    c     0.717374    0.290424    0.711320    0.000000
     6  Si    c     0.682745    0.687805    0.723656    0.000000
     7  Si    c     0.298150    0.690471    0.331313    0.000000
     8  Si    c     0.647877    0.754177    0.405789    0.000000
     9  Si    c     0.333603    0.640531    0.650778    0.000000
    10  Si    c     0.128641    0.950050    0.661051    0.000000
    11  Si    c     0.085345    0.002459    0.166206    0.000000
    12  Si    c     0.919815    0.968592    0.852468    0.000000
    13  O1    c     0.269493    0.239776    0.457727    0.000000
    14  O3    c     0.764926    0.301772    0.575375    0.000000
    15  O2    c     0.697709    0.740913    0.573471    0.000000
    16  O2    c     0.305889    0.623873    0.487354    0.000000
    17  O3    c     0.269486    0.515844    0.252204    0.000000
    18  O2    c     0.727761    0.484054    0.768682    0.000000
    19  O1    c     0.506192    0.272293    0.334088    0.000000
    20  O3    c     0.544117    0.217307    0.675516    0.000000
    21  O2    c     0.507088    0.717790    0.720622    0.000000
    22  O2    c     0.462283    0.779832    0.338032    0.000000
    23  O3    c     0.198697    0.167287    0.184685    0.000000
    24  O2    c     0.835851    0.156880    0.825082    0.000000
    25  O2    c     0.794202    0.811970    0.834311    0.000000
    26  O2    c     0.167372    0.834739    0.266793    0.000000
    27  O3    c     0.319583    0.441997    0.702876    0.000000
    28  O3    c     0.695366    0.575304    0.359957    0.000000
    29  O3    c     0.262098    0.092040    0.713642    0.000000
    30  O1    c     0.819286    0.255803    0.338287    0.000000
    31  O3    c     0.725976    0.917090    0.351644    0.000000
    32  O2    c     0.208878    0.759722    0.679612    0.000000
    33  O3    c     0.039159    0.993106    0.499233    0.000000
    34  O3    c     0.934800    0.035411    0.206477    0.000000
    35  O2    c     0.012749    0.944282    0.747734    0.000000
    36  O2    c     0.037660    0.951861    0.008047    0.000000
    37  O1    s     0.278620    0.244800    0.459947    0.000000
    38  O3    s     0.754300    0.304476    0.575382    0.000000
    39  O2    s     0.690923    0.736657    0.572092    0.000000
    40  O2    s     0.308206    0.632066    0.487985    0.000000
    41  O3    s     0.275671    0.517104    0.264494    0.000000
    42  O2    s     0.721949    0.485667    0.758174    0.000000
    43  O1    s     0.505387    0.280438    0.337053    0.000000
    44  O3    s     0.545340    0.227319    0.675704    0.000000
    45  O2    s     0.507515    0.706764    0.713730    0.000000
    46  O2    s     0.464507    0.767870    0.344455    0.000000
    47  O3    s     0.196610    0.161181    0.192988    0.000000
    48  O2    s     0.832211    0.151083    0.815998    0.000000
    49  O2    s     0.795193    0.814839    0.824009    0.000000
    50  O2    s     0.173860    0.835812    0.263638    0.000000
    51  O3    s     0.323163    0.447507    0.692352    0.000000
    52  O3    s     0.690371    0.575011    0.367475    0.000000
    53  O3    s     0.255704    0.090630    0.701918    0.000000
    54  O1    s     0.814097    0.247480    0.344145    0.000000
    55  O3    s     0.730520    0.910016    0.357640    0.000000
    56  O2    s     0.214522    0.766091    0.674472    0.000000
    57  O3    s     0.034987    0.993293    0.503135    0.000000
    58  O3    s     0.945768    0.032858    0.214479    0.000000
    59  O2    s     0.015579    0.947684    0.749477    0.000000
    60  O2    s     0.029546    0.959295    0.007669    0.000000
--------------------------------------------------------------------------------

  Final Cartesian lattice vectors (Angstroms) :

        9.144474   -0.124693   -0.051700
       -0.103190    7.659156    0.276387
       -3.369293    0.405987    9.664302


  Final cell parameters and derivatives :

--------------------------------------------------------------------------------
       a            9.145470 Angstrom     dE/de1(xx)     0.008022 eV/strain
       b            7.664836 Angstrom     dE/de2(yy)     0.007924 eV/strain
       c           10.242836 Angstrom     dE/de3(zz)     0.011825 eV/strain
       alpha       85.523067 Degrees      dE/de4(yz)    -0.001460 eV/strain
       beta       109.559141 Degrees      dE/de5(xz)     0.001080 eV/strain
       gamma       91.563765 Degrees      dE/de6(xy)    -0.001271 eV/strain
--------------------------------------------------------------------------------

  Primitive cell volume =           674.511303 Angs**3

  Density of cell =      2.213623 g/cm**3

  Non-primitive cell volume =           674.511303 Angs**3


  Final internal derivatives :

--------------------------------------------------------------------------------
   No.  Atomic          a             b             c           Radius
        Label          (eV)          (eV)          (eV)        (eV/Angs)
--------------------------------------------------------------------------------
      1 Ge    c       0.000000      0.000000      0.000000      0.000000
      2 Ge    c      -0.001386      0.000342      0.002514      0.000000
      3 Ge    c       0.001367     -0.003352     -0.003108      0.000000
      4 Ge    c      -0.001115      0.000896     -0.000852      0.000000
      5 Si    c       0.000871      0.000221      0.000533      0.000000
      6 Si    c       0.000675      0.001013      0.002927      0.000000
      7 Si    c       0.004907     -0.002882     -0.001527      0.000000
      8 Si    c      -0.000332      0.001059     -0.002898      0.000000
      9 Si    c      -0.000632     -0.000551      0.001155      0.000000
     10 Si    c       0.001339      0.001197      0.003149      0.000000
     11 Si    c      -0.000015      0.001669      0.003093      0.000000
     12 Si    c      -0.000513     -0.000934     -0.002536      0.000000
     13 O1    c      -0.002070     -0.001581     -0.004049      0.000000
     14 O3    c       0.002840     -0.001019     -0.001622      0.000000
     15 O2    c       0.003418      0.000910      0.000517      0.000000
     16 O2    c       0.002118     -0.005907     -0.000197      0.000000
     17 O3    c      -0.000680     -0.002687     -0.000698      0.000000
     18 O2    c       0.000087     -0.001515      0.002083      0.000000
     19 O1    c       0.005330     -0.002488     -0.004737      0.000000
     20 O3    c      -0.001666     -0.001565      0.000546      0.000000
     21 O2    c      -0.002081      0.000397      0.003475      0.000000
     22 O2    c      -0.002305      0.000911      0.001786      0.000000
     23 O3    c       0.001573      0.000148     -0.001867      0.000000
     24 O2    c       0.000584     -0.001179      0.000731      0.000000
     25 O2    c       0.001469      0.001515     -0.000066      0.000000
     26 O2    c      -0.007981      0.004746     -0.000152      0.000000
     27 O3    c       0.000074     -0.000339      0.000782      0.000000
     28 O3    c       0.002574      0.005286     -0.002942      0.000000
     29 O3    c      -0.002311     -0.001215      0.001176      0.000000
     30 O1    c      -0.000603      0.001496      0.000723      0.000000
     31 O3    c      -0.000098     -0.000113      0.001417      0.000000
     32 O2    c       0.001735     -0.003468      0.002118      0.000000
     33 O3    c       0.003152     -0.000928     -0.005189      0.000000
     34 O3    c       0.001759      0.000802     -0.002160      0.000000
     35 O2    c      -0.003227      0.000612      0.001682      0.000000
     36 O2    c       0.002742     -0.001392     -0.004489      0.000000
     37 O1    s       0.001354      0.000686      0.003294      0.000000
     38 O3    s      -0.001454      0.001550      0.001813      0.000000
     39 O2    s      -0.002578     -0.001621     -0.000350      0.000000
     40 O2    s      -0.004743      0.006194      0.003877      0.000000
     41 O3    s       0.001875      0.004340     -0.001198      0.000000
     42 O2    s       0.000433      0.000921     -0.000938      0.000000
     43 O1    s      -0.003779      0.000785      0.006262      0.000000
     44 O3    s       0.001364      0.000642     -0.001333      0.000000
     45 O2    s       0.000991      0.001041     -0.003099      0.000000
     46 O2    s       0.001221     -0.000356     -0.000889      0.000000
     47 O3    s      -0.002144     -0.000260      0.000037      0.000000
     48 O2    s      -0.001151      0.001446      0.000638      0.000000
     49 O2    s      -0.002227     -0.001134      0.001183      0.000000
     50 O2    s       0.004745     -0.005322     -0.001625      0.000000
     51 O3    s      -0.000989      0.000265      0.002579      0.000000
     52 O3    s      -0.001919     -0.003892      0.001909      0.000000
     53 O3    s       0.001838      0.000811     -0.001155      0.000000
     54 O1    s       0.002243     -0.000691     -0.001117      0.000000
     55 O3    s       0.000664      0.000123     -0.001062      0.000000
     56 O2    s      -0.000055      0.000744     -0.001997      0.000000
     57 O3    s      -0.000950     -0.000049      0.003248      0.000000
     58 O3    s      -0.003384      0.000820     -0.000372      0.000000
     59 O2    s       0.000765      0.000409     -0.002663      0.000000
     60 O2    s      -0.003663      0.002222      0.002996      0.000000
--------------------------------------------------------------------------------
  Maximum abs         0.007981      0.006194      0.006262      0.000000
--------------------------------------------------------------------------------


  Born effective charge tensors : 

-------------------------------------------------------------------------------
  Atom             x           y             z
-------------------------------------------------------------------------------
    1 Ge    x       3.9269      0.2333      0.2581
            y       0.2542      4.2324      0.2513
            z       0.1106      0.2859      3.6211
-------------------------------------------------------------------------------
    2 Ge    x       4.0078      0.3771     -0.1143
            y       0.2962      4.1883      0.1007
            z       0.1587     -0.0022      3.3537
-------------------------------------------------------------------------------
    3 Ge    x       4.1858     -0.2009     -0.1040
            y      -0.4557      4.1901      0.1237
            z       0.0481      0.1565      3.3559
-------------------------------------------------------------------------------
    4 Ge    x       4.5078     -0.3241     -0.2859
            y       0.0994      3.9474      0.0008
            z      -0.2415     -0.0210      3.6989
-------------------------------------------------------------------------------
    5 Si    x       3.5806     -0.0517      0.1815
            y      -0.2307      3.6554     -0.1598
            z       0.0397     -0.1843      3.1099
-------------------------------------------------------------------------------
    6 Si    x       3.1516      0.2014      0.2311
            y       0.2047      3.3957      0.1965
            z       0.1697      0.1626      2.8627
-------------------------------------------------------------------------------
    7 Si    x       3.0980     -0.0576      0.1340
            y      -0.2935      3.6462      0.1723
            z       0.2910     -0.1275      2.9712
-------------------------------------------------------------------------------
    8 Si    x       3.5044      0.4187     -0.1519
            y       0.2065      3.9194      0.0121
            z      -0.0299     -0.0494      2.9229
-------------------------------------------------------------------------------
    9 Si    x       3.3944     -0.1115     -0.0149
            y      -0.2641      3.6734     -0.1072
            z      -0.0725      0.1144      2.7499
-------------------------------------------------------------------------------
   10 Si    x       3.9407     -0.0518      0.2033
            y       0.1831      3.4755      0.1362
            z      -0.3022     -0.0162      3.2871
-------------------------------------------------------------------------------
   11 Si    x       3.6534      0.0199      0.2103
            y       0.2273      3.4698     -0.0981
            z      -0.1249      0.3648      4.0177
-------------------------------------------------------------------------------
   12 Si    x       3.2401     -0.1056     -0.1351
            y       0.0920      3.2395      0.1179
            z       0.3627      0.0673      3.7339
-------------------------------------------------------------------------------
   13 O1    x      -1.5572     -0.1837      0.2533
            y      -0.1935     -1.5198      0.0118
            z       0.2948      0.0427     -2.6368
-------------------------------------------------------------------------------
   14 O3    x      -1.5091      0.0610      0.4336
            y       0.1161     -1.4221      0.1353
            z       0.3824      0.1601     -2.4156
-------------------------------------------------------------------------------
   15 O2    x      -1.2631     -0.1357      0.1977
            y      -0.1176     -1.2592      0.0705
            z       0.1829      0.0938     -2.0587
-------------------------------------------------------------------------------
   16 O2    x      -1.2533      0.0178      0.2204
            y       0.0674     -1.3214      0.0893
            z       0.2100      0.0966     -2.0355
-------------------------------------------------------------------------------
   17 O3    x      -1.2093      0.0473     -0.0672
            y       0.1371     -2.9966     -0.3251
            z      -0.0589     -0.3171     -1.4453
-------------------------------------------------------------------------------
   18 O2    x      -1.1499      0.1470     -0.0675
            y       0.1967     -2.5472     -0.0588
            z      -0.0481     -0.0347     -1.1357
-------------------------------------------------------------------------------
   19 O1    x      -3.0442     -0.1939     -0.4826
            y      -0.1308     -1.5480     -0.1211
            z      -0.5218     -0.1475     -1.3743
-------------------------------------------------------------------------------
   20 O3    x      -2.9466     -0.2157     -0.4573
            y      -0.1603     -1.5011     -0.0372
            z      -0.4832     -0.0168     -1.2141
-------------------------------------------------------------------------------
   21 O2    x      -2.3255     -0.0864     -0.2968
            y      -0.0428     -1.2433     -0.0686
            z      -0.2915     -0.1019     -1.1449
-------------------------------------------------------------------------------
   22 O2    x      -2.2483     -0.1787     -0.3065
            y      -0.1022     -1.2701      0.0072
            z      -0.3389      0.0326     -1.1687
-------------------------------------------------------------------------------
   23 O3    x      -1.7207     -0.7519     -0.4632
            y      -0.8097     -2.4007     -0.6029
            z      -0.4460     -0.7043     -1.8089
-------------------------------------------------------------------------------
   24 O2    x      -1.4402      0.5983     -0.2932
            y       0.5482     -2.0892      0.4417
            z      -0.3359      0.4813     -1.4753
-------------------------------------------------------------------------------
   25 O2    x      -1.5717     -0.6072     -0.3343
            y      -0.6403     -1.8968     -0.4816
            z      -0.4036     -0.4963     -1.5185
-------------------------------------------------------------------------------
   26 O2    x      -1.4743      0.5420     -0.3895
            y       0.5055     -1.9095      0.5307
            z      -0.3457      0.5173     -1.5648
-------------------------------------------------------------------------------
   27 O3    x      -1.3609     -0.0621      0.1171
            y       0.0462     -3.0458     -0.0125
            z       0.0949      0.0669     -1.2459
-------------------------------------------------------------------------------
   28 O3    x      -1.4191      0.2759      0.1238
            y       0.3232     -2.9829     -0.1807
            z       0.0991     -0.1837     -1.2322
-------------------------------------------------------------------------------
   29 O3    x      -2.2208     -0.9664      0.0220
            y      -0.9898     -2.3363     -0.0003
            z       0.0563      0.0166     -1.2652
-------------------------------------------------------------------------------
   30 O1    x      -2.3542      0.9868      0.3492
            y       0.9290     -2.6192     -0.2150
            z       0.3373     -0.2281     -1.3537
-------------------------------------------------------------------------------
   31 O3    x      -2.3972     -1.0411      0.2764
            y      -1.0500     -2.3058      0.2521
            z       0.2200      0.2334     -1.2489
-------------------------------------------------------------------------------
   32 O2    x      -1.9010      0.7547      0.0877
            y       0.7371     -1.9793     -0.0812
            z       0.1704     -0.0978     -1.0557
-------------------------------------------------------------------------------
   33 O3    x      -1.7513      0.1678     -0.6292
            y       0.0442     -1.3082      0.2248
            z      -0.3954      0.2978     -2.5700
-------------------------------------------------------------------------------
   34 O3    x      -2.6459      0.2971      0.8201
            y       0.2218     -1.2609     -0.1036
            z       0.8289     -0.1579     -2.0672
-------------------------------------------------------------------------------
   35 O2    x      -2.2586      0.1505      0.7419
            y       0.0590     -1.1365     -0.1042
            z       0.7002     -0.1003     -1.6764
-------------------------------------------------------------------------------
   36 O2    x      -1.1690      0.0290     -0.2681
            y      -0.0138     -1.1333     -0.1171
            z      -0.3179     -0.2036     -2.9726
-------------------------------------------------------------------------------




  Elastic Constant Matrix: (Units=GPa)

-------------------------------------------------------------------------------
  Indices      1         2         3         4         5         6    
-------------------------------------------------------------------------------
       1     43.2100   23.3069   16.7171    4.2556    1.5342  -14.6179
       2     23.3069   55.3377   17.7809    9.2971    6.3977  -11.2583
       3     16.7171   17.7809   36.9032   11.1006    8.0498    2.2360
       4      4.2556    9.2971   11.1006   11.9509    5.2032    2.0564
       5      1.5342    6.3977    8.0498    5.2032   12.1976    4.3740
       6    -14.6179  -11.2583    2.2360    2.0564    4.3740   24.7471
-------------------------------------------------------------------------------


  Elastic Compliance Matrix: (Units=1/GPa)

-------------------------------------------------------------------------------
  Indices      1         2         3         4         5         6    
-------------------------------------------------------------------------------
       1    0.041191 -0.008067 -0.017416  0.003497  0.001263  0.021721
       2   -0.008067  0.028592 -0.004962 -0.012626 -0.009410  0.011403
       3   -0.017416 -0.004962  0.049140 -0.028672 -0.010858 -0.012683
       4    0.003497 -0.012626 -0.028672  0.132714 -0.029001 -0.006990
       5    0.001263 -0.009410 -0.010858 -0.029001  0.113546 -0.020213
       6    0.021721  0.011403 -0.012683 -0.006990 -0.020213  0.063726
-------------------------------------------------------------------------------

  Mechanical properties :

-------------------------------------------------------------------------------
  Convention :                    Reuss         Voigt         Hill
-------------------------------------------------------------------------------
  Bulk  Modulus (GPa)     =      17.23185      27.89562      22.56374
  Shear Modulus (GPa)     =       9.82040      14.95551      12.38796
-------------------------------------------------------------------------------
  Velocity S-wave (km/s)  =       2.10626       2.59925       2.36564
  Velocity P-wave (km/s)  =       3.70129       4.64865       4.20176
-------------------------------------------------------------------------------
  Compressibility (1/GPa) =    0.05803207
-------------------------------------------------------------------------------
  Stress axis :                     x             y             z
-------------------------------------------------------------------------------
  Youngs Moduli (GPa)     =      24.27721      34.97461      20.35004
-------------------------------------------------------------------------------
  Poissons Ratio (x)      =                     0.28214       0.35442
  Poissons Ratio (y)      =       0.19585                     0.10098
  Poissons Ratio (z)      =       0.42282       0.17355
-------------------------------------------------------------------------------


  Piezoelectric Strain Matrix: (Units=C/m**2)

-------------------------------------------------------------------------------
  Indices      1         2         3         4         5         6    
-------------------------------------------------------------------------------
       x    -0.90000  -1.66428   0.59476  -0.26180   0.07769  -0.44305
       y     0.04377   0.28111  -0.99760   0.41099  -0.41437  -0.16668
       z    -0.79608  -0.12869  -0.42211  -1.00959   0.74965  -0.23233
-------------------------------------------------------------------------------


  Piezoelectric Stress Matrix: (Units=10**-11 C/N)

-------------------------------------------------------------------------------
  Indices      1         2         3         4         5         6    
-------------------------------------------------------------------------------
       x    -4.44453  -4.57541   6.54416  -3.30872   3.34361  -7.40450
       y     1.42032   0.94440  -5.63499   9.29334  -4.73584   1.16901
       z    -3.20322   0.78810   1.75149 -14.31614  12.38839  -3.63063
-------------------------------------------------------------------------------


  Static dielectric constant tensor : 

-------------------------------------------------------------------------------
              x         y         z
-------------------------------------------------------------------------------
       x     4.46097   0.03628   0.08169
       y     0.03628   4.92796   0.22095
       z     0.08169   0.22095   3.39588
--------------------------------------------------------------------------------

  High frequency dielectric constant tensor : 

-------------------------------------------------------------------------------
              x         y         z
-------------------------------------------------------------------------------
       x     1.64081  -0.00168   0.00854
       y    -0.00168   1.65206   0.00642
       z     0.00854   0.00642   1.59402
-------------------------------------------------------------------------------

  Static refractive indices : 

-------------------------------------------------------------------------------
    1 =    1.83288      2 =    2.11227      3 =    2.22793
-------------------------------------------------------------------------------

  High frequency refractive indices : 

-------------------------------------------------------------------------------
    1 =    1.26166      2 =    1.28152      3 =    1.28562
-------------------------------------------------------------------------------


  Time to end of optimisation =       3.2386 seconds


  Peak dynamic memory used =       2.76 MB 


  Timing analysis for GULP :

--------------------------------------------------------------------------------
  Task / Subroutine                                          Time (Seconds)
--------------------------------------------------------------------------------
  Calculation of reciprocal space energy and derivatives          0.2026
  Calculation of real space energy and derivatives                2.6006
  Calculation of three-body energy and derivatives                0.0853
  Calculation and manipulation of Hessian matrix                  0.4462
  Calculation of matrix inversion                                 0.0037
  Global summation overhead                                       0.0001
--------------------------------------------------------------------------------
  Total CPU time                                                  3.2386
--------------------------------------------------------------------------------


  Dump file written as c00062.vasp.grs
  CIF file written as c00062.vasp.cif


  Job Finished at 22:40.01  6th October    2025                               

