********************************************************************************
*                       GENERAL UTILITY LATTICE PROGRAM                        *
*                                 Julian Gale                                  *
*                       Curtin Institute for Computation                       *
*                    School of Molecular and Life Sciences                     *
*                    Curtin University, Western Australia                      *
********************************************************************************
* Version = 6.1.2 * Last modified =   3rd November 2022                        *
********************************************************************************
*  optimise     - perform optimisation run                                     *
*  conp         - constant pressure calculation                                *
*  property     - calculate properties for final geometry                      *
********************************************************************************

  Job Started  at 22:39.29  6th October    2025                               

  Number of CPUs =     1


  Total number of configurations input =      1

********************************************************************************
*  Input for Configuration =   1 : c00053.vasp                                 *
********************************************************************************

  Formula = Ge4Si8O24                                                   

  Number of irreducible atoms/shells =      60


  Total number atoms/shells =      60

  Dimensionality = 3               :  Bulk   



  Cartesian lattice vectors (Angstroms) :

        9.086940    0.000000    0.000000
        0.000000    7.554810    0.000000
       -3.295144    0.000000    9.944380

  Cell parameters (Angstroms/Degrees):

  a =       9.0869    alpha =  90.0000
  b =       7.5548    beta  = 108.3330
  c =      10.4761    gamma =  90.0000

  Initial cell volume =         682.682735 Angs**3

  Temperature of configuration =   0.00     K 

  Pressure of configuration =         0.000 GPa 

  Fractional coordinates of asymmetric unit :

--------------------------------------------------------------------------------
   No.  Atomic       x           y          z         Charge      Occupancy
        Label      (Frac)      (Frac)     (Frac)        (e)         (Frac)  
--------------------------------------------------------------------------------
      1 Ge    c    0.313820    0.296860    0.309830     4.00000    1.000000    
      2 Ge    c    0.313820 *  0.703140 *  0.309830 *   4.00000    1.000000    
      3 Ge    c    0.668950 *  0.296920 *  0.392620 *   4.00000    1.000000    
      4 Ge    c    0.906930 *  0.000000 *  0.841770 *   4.00000    1.000000    
      5 Si    c    0.686180 *  0.296860 *  0.690170 *   4.00000    1.000000    
      6 Si    c    0.686180 *  0.703140 *  0.690170 *   4.00000    1.000000    
      7 Si    c    0.331050 *  0.296920 *  0.607380 *   4.00000    1.000000    
      8 Si    c    0.668950 *  0.703080 *  0.392620 *   4.00000    1.000000    
      9 Si    c    0.331050 *  0.703080 *  0.607380 *   4.00000    1.000000    
     10 Si    c    0.879680 *  0.000000 *  0.350160 *   4.00000    1.000000    
     11 Si    c    0.120320 *  0.000000 *  0.649840 *   4.00000    1.000000    
     12 Si    c    0.093070 *  0.000000 *  0.158230 *   4.00000    1.000000    
     13 O3    c    0.268740 *  0.279030 *  0.446100 *   1.33043    1.000000    
     14 O3    c    0.731260 *  0.279030 *  0.553900 *   1.33043    1.000000    
     15 O2    c    0.731260 *  0.720970 *  0.553900 *   0.87073    1.000000    
     16 O3    c    0.268740 *  0.720970 *  0.446100 *   1.33043    1.000000    
     17 O1    c    0.295480 *  0.500000 *  0.260860 *   1.73396    1.000000    
     18 O2    c    0.704520 *  0.500000 *  0.739140 *   0.87073    1.000000    
     19 O1    c    0.490600 *  0.234690 *  0.337530 *   1.73396    1.000000    
     20 O2    c    0.509400 *  0.234690 *  0.662470 *   0.87073    1.000000    
     21 O2    c    0.509400 *  0.765310 *  0.662470 *   0.87073    1.000000    
     22 O3    c    0.490600 *  0.765310 *  0.337530 *   1.33043    1.000000    
     23 O3    c    0.200440 *  0.174000 *  0.194980 *   1.33043    1.000000    
     24 O3    c    0.799560 *  0.174000 *  0.805020 *   1.33043    1.000000    
     25 O3    c    0.799560 *  0.826000 *  0.805020 *   1.33043    1.000000    
     26 O3    c    0.200440 *  0.826000 *  0.194980 *   1.33043    1.000000    
     27 O2    c    0.317860 *  0.500000 *  0.649090 *   0.87073    1.000000    
     28 O3    c    0.682140 *  0.500000 *  0.350910 *   1.33043    1.000000    
     29 O2    c    0.227920 *  0.173870 *  0.671620 *   0.87073    1.000000    
     30 O3    c    0.772080 *  0.173870 *  0.328380 *   1.33043    1.000000    
     31 O2    c    0.772080 *  0.826130 *  0.328380 *   0.87073    1.000000    
     32 O2    c    0.227920 *  0.826130 *  0.671620 *   0.87073    1.000000    
     33 O2    c    0.000000 *  0.000000 *  0.500000 *   0.87073    1.000000    
     34 O2    c    0.971960 *  0.000000 *  0.241930 *   0.87073    1.000000    
     35 O3    c    0.028040 *  0.000000 *  0.758070 *   1.33043    1.000000    
     36 O3    c    0.000000 *  0.000000 *  0.000000 *   1.33043    1.000000    
     37 O3    s    0.268740 *  0.279030 *  0.446100 *  -3.33043    1.000000    
     38 O3    s    0.731260 *  0.279030 *  0.553900 *  -3.33043    1.000000    
     39 O2    s    0.731260 *  0.720970 *  0.553900 *  -2.87073    1.000000    
     40 O3    s    0.268740 *  0.720970 *  0.446100 *  -3.33043    1.000000    
     41 O1    s    0.295480 *  0.500000 *  0.260860 *  -3.73396    1.000000    
     42 O2    s    0.704520 *  0.500000 *  0.739140 *  -2.87073    1.000000    
     43 O1    s    0.490600 *  0.234690 *  0.337530 *  -3.73396    1.000000    
     44 O2    s    0.509400 *  0.234690 *  0.662470 *  -2.87073    1.000000    
     45 O2    s    0.509400 *  0.765310 *  0.662470 *  -2.87073    1.000000    
     46 O3    s    0.490600 *  0.765310 *  0.337530 *  -3.33043    1.000000    
     47 O3    s    0.200440 *  0.174000 *  0.194980 *  -3.33043    1.000000    
     48 O3    s    0.799560 *  0.174000 *  0.805020 *  -3.33043    1.000000    
     49 O3    s    0.799560 *  0.826000 *  0.805020 *  -3.33043    1.000000    
     50 O3    s    0.200440 *  0.826000 *  0.194980 *  -3.33043    1.000000    
     51 O2    s    0.317860 *  0.500000 *  0.649090 *  -2.87073    1.000000    
     52 O3    s    0.682140 *  0.500000 *  0.350910 *  -3.33043    1.000000    
     53 O2    s    0.227920 *  0.173870 *  0.671620 *  -2.87073    1.000000    
     54 O3    s    0.772080 *  0.173870 *  0.328380 *  -3.33043    1.000000    
     55 O2    s    0.772080 *  0.826130 *  0.328380 *  -2.87073    1.000000    
     56 O2    s    0.227920 *  0.826130 *  0.671620 *  -2.87073    1.000000    
     57 O2    s    0.000000 *  0.000000 *  0.500000 *  -2.87073    1.000000    
     58 O2    s    0.971960 *  0.000000 *  0.241930 *  -2.87073    1.000000    
     59 O3    s    0.028040 *  0.000000 *  0.758070 *  -3.33043    1.000000    
     60 O3    s    0.000000 *  0.000000 *  0.000000 *  -3.33043    1.000000    
--------------------------------------------------------------------------------



********************************************************************************
*  General input information                                                   *
********************************************************************************

  Species output for all configurations : 

--------------------------------------------------------------------------------
  Species    Type    Atomic    Atomic    Charge       Radii (Angs)     Library
                     Number     Mass       (e)     Cova   Ionic  VDW   Symbol
--------------------------------------------------------------------------------
    Ge       Core       32      72.61   4.000000   1.170  0.000  1.750 Ge       
    Si       Core       14      28.09   4.000000   1.200  0.000  2.100 Si       
    O1       Core        8      16.00   1.733957   0.730  0.000  1.360 O1       
    O2       Core        8      16.00   0.870733   0.730  0.000  1.360 O2       
    O3       Core        8      16.00   1.330431   0.730  0.000  1.360 O3       
    O1       Shell       8       0.00  -3.733957   0.730  0.000  0.000 O1       
    O2       Shell       8       0.00  -2.870733   0.730  0.000  0.000 O2       
    O3       Shell       8       0.00  -3.330431   0.730  0.000  0.000 O3       
--------------------------------------------------------------------------------


  Lattice summation method               =    Ewald          (3-D)
                                         =    Parry          (2-D)
                                         =    Saunders et al (1-D)
  Accuracy factor for lattice sums       =   12.000


  Analytic derivatives to be used

  Time limit = Infinity

  Maximum range for interatomic potentials =    100000.000000 Angstroms

  General interatomic potentials :

--------------------------------------------------------------------------------
Atom  Types   Potential      Parameter       Value         Units   Cutoffs(Ang)
  1     2                                                            Min /  Max 
--------------------------------------------------------------------------------
Si   c O1   s Buckingham    Buckingham A     1315.2478    eV        0.000 16.000
                            Buckingham rho  0.31775900    Ang       
                            Buckingham C     10.141118    eV*Ang^6  
--------------------------------------------------------------------------------
Si   c O2   s Buckingham    Buckingham A     1315.2478    eV        0.000 16.000
                            Buckingham rho  0.31775900    Ang       
                            Buckingham C     10.141118    eV*Ang^6  
--------------------------------------------------------------------------------
Si   c O3   s Buckingham    Buckingham A     1315.2478    eV        0.000 16.000
                            Buckingham rho  0.31775900    Ang       
                            Buckingham C     10.141118    eV*Ang^6  
--------------------------------------------------------------------------------
Ge   c O1   s Buckingham    Buckingham A     1497.3996    eV        0.000 16.000
                            Buckingham rho  0.32564600    Ang       
                            Buckingham C     16.808599    eV*Ang^6  
--------------------------------------------------------------------------------
Ge   c O2   s Buckingham    Buckingham A     1497.3996    eV        0.000 16.000
                            Buckingham rho  0.32564600    Ang       
                            Buckingham C     16.808599    eV*Ang^6  
--------------------------------------------------------------------------------
Ge   c O3   s Buckingham    Buckingham A     1497.3996    eV        0.000 16.000
                            Buckingham rho  0.32564600    Ang       
                            Buckingham C     16.808599    eV*Ang^6  
--------------------------------------------------------------------------------
O1   s O1   s Buckingham    Buckingham A     22764.000    eV        0.000 16.000
                            Buckingham rho  0.14900000    Ang       
                            Buckingham C     10.937044    eV*Ang^6  
--------------------------------------------------------------------------------
O1   s O2   s Buckingham    Buckingham A     22764.000    eV        0.000 16.000
                            Buckingham rho  0.14900000    Ang       
                            Buckingham C     10.937044    eV*Ang^6  
--------------------------------------------------------------------------------
O1   s O3   s Buckingham    Buckingham A     22764.000    eV        0.000 16.000
                            Buckingham rho  0.14900000    Ang       
                            Buckingham C     10.937044    eV*Ang^6  
--------------------------------------------------------------------------------
O2   s O2   s Buckingham    Buckingham A     22764.000    eV        0.000 16.000
                            Buckingham rho  0.14900000    Ang       
                            Buckingham C     10.937044    eV*Ang^6  
--------------------------------------------------------------------------------
O2   s O3   s Buckingham    Buckingham A     22764.000    eV        0.000 16.000
                            Buckingham rho  0.14900000    Ang       
                            Buckingham C     10.937044    eV*Ang^6  
--------------------------------------------------------------------------------
O3   s O3   s Buckingham    Buckingham A     22764.000    eV        0.000 16.000
                            Buckingham rho  0.14900000    Ang       
                            Buckingham C     10.937044    eV*Ang^6  
--------------------------------------------------------------------------------
O1   c O1   s Spring (c-s)  Spring k 2       180.31577    eV*Ang^-2 0.000  0.800
                            Spring k 4       0.0000000    eV*Ang^-4 
--------------------------------------------------------------------------------
O2   c O2   s Spring (c-s)  Spring k 2       75.969800    eV*Ang^-2 0.000  0.800
                            Spring k 4       0.0000000    eV*Ang^-4 
--------------------------------------------------------------------------------
O3   c O3   s Spring (c-s)  Spring k 2       128.14270    eV*Ang^-2 0.000  0.800
                            Spring k 4       0.0000000    eV*Ang^-4 
--------------------------------------------------------------------------------

  General Three-body potentials :

--------------------------------------------------------------------------------
  Atoms       Potential      Parameter       Value         Units   Cutoffs(Ang)
  1 / 2 / 3                                                          Min /  Max 
--------------------------------------------------------------------------------
Si    core    Harmonic      Three-body cnst  1.2614000    eV*rad^-2 0.000  1.900
O1    shel                  Three-body angl  109.47000    degrees   0.000  1.900
O1    shel                  Three-body k4    0.0000000    eV*rad^-4 0.000  3.500
                            Three-body k3    0.0000000    eV*rad^-3 
--------------------------------------------------------------------------------
Si    core    Harmonic      Three-body cnst  1.2614000    eV*rad^-2 0.000  1.900
O1    shel                  Three-body angl  109.47000    degrees   0.000  1.900
õ(1   shel                  Three-body k4    0.0000000    eV*rad^-4 0.000  3.500
                            Three-body k3    0.0000000    eV*rad^-3 
--------------------------------------------------------------------------------
Si    core    Harmonic      Three-body cnst  1.2614000    eV*rad^-2 0.000  1.900
õ(1   shel                  Three-body angl  109.47000    degrees   0.000  1.900
õ(1   shel                  Three-body k4    0.0000000    eV*rad^-4 0.000  3.500
                            Three-body k3    0.0000000    eV*rad^-3 
--------------------------------------------------------------------------------
Si    core    Harmonic      Three-body cnst  1.2614000    eV*rad^-2 0.000  1.900
O1    shel                  Three-body angl  109.47000    degrees   0.000  1.900
O2    shel                  Three-body k4    0.0000000    eV*rad^-4 0.000  3.500
                            Three-body k3    0.0000000    eV*rad^-3 
--------------------------------------------------------------------------------
Si    core    Harmonic      Three-body cnst  1.2614000    eV*rad^-2 0.000  1.900
O1    shel                  Three-body angl  109.47000    degrees   0.000  1.900
õ(2   shel                  Three-body k4    0.0000000    eV*rad^-4 0.000  3.500
                            Three-body k3    0.0000000    eV*rad^-3 
--------------------------------------------------------------------------------
Si    core    Harmonic      Three-body cnst  1.2614000    eV*rad^-2 0.000  1.900
O2    shel                  Three-body angl  109.47000    degrees   0.000  1.900
õ(1   shel                  Three-body k4    0.0000000    eV*rad^-4 0.000  3.500
                            Three-body k3    0.0000000    eV*rad^-3 
--------------------------------------------------------------------------------
Si    core    Harmonic      Three-body cnst  1.2614000    eV*rad^-2 0.000  1.900
õ(1   shel                  Three-body angl  109.47000    degrees   0.000  1.900
õ(2   shel                  Three-body k4    0.0000000    eV*rad^-4 0.000  3.500
                            Three-body k3    0.0000000    eV*rad^-3 
--------------------------------------------------------------------------------
Si    core    Harmonic      Three-body cnst  1.2614000    eV*rad^-2 0.000  1.900
O2    shel                  Three-body angl  109.47000    degrees   0.000  1.900
O2    shel                  Three-body k4    0.0000000    eV*rad^-4 0.000  3.500
                            Three-body k3    0.0000000    eV*rad^-3 
--------------------------------------------------------------------------------
Si    core    Harmonic      Three-body cnst  1.2614000    eV*rad^-2 0.000  1.900
O2    shel                  Three-body angl  109.47000    degrees   0.000  1.900
õ(2   shel                  Three-body k4    0.0000000    eV*rad^-4 0.000  3.500
                            Three-body k3    0.0000000    eV*rad^-3 
--------------------------------------------------------------------------------
Si    core    Harmonic      Three-body cnst  1.2614000    eV*rad^-2 0.000  1.900
õ(2   shel                  Three-body angl  109.47000    degrees   0.000  1.900
õ(2   shel                  Three-body k4    0.0000000    eV*rad^-4 0.000  3.500
                            Three-body k3    0.0000000    eV*rad^-3 
--------------------------------------------------------------------------------

********************************************************************************
*  Output for configuration   1 : c00053.vasp                                  *
********************************************************************************


  Components of energy : 

--------------------------------------------------------------------------------
  Interatomic potentials     =         400.30338260 eV    
  Three-body potentials      =           0.00010618 eV    
  Monopole - monopole (real) =       -1236.99964305 eV    
  Monopole - monopole (recip)=        -659.26603192 eV    
  Monopole - monopole (total)=       -1896.26567496 eV    
--------------------------------------------------------------------------------
  Total lattice energy       =       -1495.96218618 eV    
--------------------------------------------------------------------------------
  Total lattice energy       =         -144337.4831 kJ/(mole unit cells)
--------------------------------------------------------------------------------


  Number of variables =      183

  Maximum number of calculations  =          1000
  Maximum Hessian update interval =            10
  Maximum step size               =   0.100000000
  Maximum parameter tolerance     =   0.000010000
  Maximum function  tolerance     =   0.000010000
  Maximum gradient  tolerance     =   0.001000000
  Maximum gradient  component     =   0.010000000

  Symmetry not applied to optimisation

  Cell parameters to be optimised using strains

  Newton-Raphson optimiser to be used

  BFGS hessian update to be used

  Lower half triangular hessian to be used

  Minimiser to switch to RFO
  When gradient norm is less than     0.050000

  Dumpfile to be written after every cycle

  Start of bulk optimisation :

  Cycle:      0 Energy:     -1495.962186  Gnorm:      5.566869  CPU:    0.033
  ** Hessian calculated **
  Cycle:      1 Energy:     -1506.784537  Gnorm:      3.695881  CPU:    0.105
  ** Hessian calculated **
  Cycle:      2 Energy:     -1513.618593  Gnorm:      1.037665  CPU:    0.172
  Cycle:      3 Energy:     -1514.544356  Gnorm:      0.490759  CPU:    0.214
  Cycle:      4 Energy:     -1514.957728  Gnorm:      0.357602  CPU:    0.264
  Cycle:      5 Energy:     -1515.326394  Gnorm:      0.313758  CPU:    0.313
  Cycle:      6 Energy:     -1515.593346  Gnorm:      0.282682  CPU:    0.355
  Cycle:      7 Energy:     -1515.793737  Gnorm:      0.237956  CPU:    0.395
  Cycle:      8 Energy:     -1515.922943  Gnorm:      0.190113  CPU:    0.435
  Cycle:      9 Energy:     -1515.995643  Gnorm:      0.137563  CPU:    0.475
  Cycle:     10 Energy:     -1516.042001  Gnorm:      0.112772  CPU:    0.516
  Cycle:     11 Energy:     -1516.081475  Gnorm:      0.103860  CPU:    0.556
  ** Hessian calculated **
  Cycle:     12 Energy:     -1516.094935  Gnorm:      0.102273  CPU:    0.629
  Cycle:     13 Energy:     -1516.120545  Gnorm:      0.099234  CPU:    0.684
  Cycle:     14 Energy:     -1516.164359  Gnorm:      0.093918  CPU:    0.739
  Cycle:     15 Energy:     -1516.210354  Gnorm:      0.087677  CPU:    0.786
  Cycle:     16 Energy:     -1516.226624  Gnorm:      0.088543  CPU:    0.834
  ** Hessian calculated **
  Cycle:     17 Energy:     -1516.241586  Gnorm:      0.074919  CPU:    0.906
  Cycle:     18 Energy:     -1516.257582  Gnorm:      0.070743  CPU:    0.953
  Cycle:     19 Energy:     -1516.279988  Gnorm:      0.066058  CPU:    1.001
  Cycle:     20 Energy:     -1516.307569  Gnorm:      0.072588  CPU:    1.048
  Cycle:     21 Energy:     -1516.329032  Gnorm:      0.069214  CPU:    1.088
  Cycle:     22 Energy:     -1516.349615  Gnorm:      0.070028  CPU:    1.136
  Cycle:     23 Energy:     -1516.368056  Gnorm:      0.072781  CPU:    1.183
  Cycle:     24 Energy:     -1516.390876  Gnorm:      0.078576  CPU:    1.231
  Cycle:     25 Energy:     -1516.415346  Gnorm:      0.078236  CPU:    1.279
  Cycle:     26 Energy:     -1516.437794  Gnorm:      0.072402  CPU:    1.327
  ** Hessian calculated **
  Cycle:     27 Energy:     -1516.448331  Gnorm:      0.069702  CPU:    1.400
  Cycle:     28 Energy:     -1516.465712  Gnorm:      0.065473  CPU:    1.455
  Cycle:     29 Energy:     -1516.485957  Gnorm:      0.060836  CPU:    1.502
  Cycle:     30 Energy:     -1516.513476  Gnorm:      0.057262  CPU:    1.557
  Cycle:     31 Energy:     -1516.520653  Gnorm:      0.069282  CPU:    1.597
  ** Hessian calculated **
  Cycle:     32 Energy:     -1516.605894  Gnorm:      0.043173  CPU:    1.669
  ** Hessian has wrong structure
  ** Imaginary eigenvectors =   1
  Cycle:     33 Energy:     -1516.609765  Gnorm:      0.063073  CPU:    1.747
  ** Hessian has wrong structure
  ** Imaginary eigenvectors =   3
  ** Hessian has wrong structure
  ** Imaginary eigenvectors =   2
  Cycle:     34 Energy:     -1516.634305  Gnorm:      0.075318  CPU:    1.904
  ** Hessian has wrong structure
  ** Imaginary eigenvectors =   1
  ** Hessian has required structure
  Cycle:     35 Energy:     -1516.744828  Gnorm:      0.059612  CPU:    2.028
  ** Hessian has required structure
  Cycle:     36 Energy:     -1516.801120  Gnorm:      0.042894  CPU:    2.084
  ** Hessian has required structure
  Cycle:     37 Energy:     -1516.833955  Gnorm:      0.024540  CPU:    2.138
  ** Hessian has required structure
  Cycle:     38 Energy:     -1516.845657  Gnorm:      0.032282  CPU:    2.186
  ** Hessian has required structure
  Cycle:     39 Energy:     -1516.855523  Gnorm:      0.016086  CPU:    2.234
  ** Hessian has required structure
  Cycle:     40 Energy:     -1516.856775  Gnorm:      0.018939  CPU:    2.274
  ** Hessian has required structure
  Cycle:     41 Energy:     -1516.859006  Gnorm:      0.013181  CPU:    2.328
  ** Hessian has required structure
  Cycle:     42 Energy:     -1516.860435  Gnorm:      0.011005  CPU:    2.382
  ** Hessian has required structure
  Cycle:     43 Energy:     -1516.861858  Gnorm:      0.007159  CPU:    2.437
  ** Hessian has required structure
  Cycle:     44 Energy:     -1516.863225  Gnorm:      0.008858  CPU:    2.491
  ** Hessian has wrong structure
  ** Imaginary eigenvectors =   1
  Cycle:     45 Energy:     -1516.867920  Gnorm:      0.023996  CPU:    2.629
  ** Hessian has required structure
  Cycle:     46 Energy:     -1516.875890  Gnorm:      0.024218  CPU:    2.708
  ** Hessian has required structure
  Cycle:     47 Energy:     -1516.885625  Gnorm:      0.034127  CPU:    2.762
  ** Hessian has required structure
  Cycle:     48 Energy:     -1516.898549  Gnorm:      0.021982  CPU:    2.816
  ** Hessian has required structure
  Cycle:     49 Energy:     -1516.904646  Gnorm:      0.022556  CPU:    2.863
  ** Hessian has required structure
  Cycle:     50 Energy:     -1516.911892  Gnorm:      0.005556  CPU:    2.910
  ** Hessian has required structure
  Cycle:     51 Energy:     -1516.914876  Gnorm:      0.014389  CPU:    2.957
  ** Hessian has required structure
  Cycle:     52 Energy:     -1516.916162  Gnorm:      0.010655  CPU:    3.004
  ** Hessian has required structure
  Cycle:     53 Energy:     -1516.917181  Gnorm:      0.006303  CPU:    3.058
  ** Hessian has required structure
  Cycle:     54 Energy:     -1516.917587  Gnorm:      0.004044  CPU:    3.106
  ** Hessian has required structure
  Cycle:     55 Energy:     -1516.917852  Gnorm:      0.002326  CPU:    3.153
  ** Hessian has required structure
  Cycle:     56 Energy:     -1516.918028  Gnorm:      0.001194  CPU:    3.232
  ** Hessian has required structure
  Cycle:     57 Energy:     -1516.918073  Gnorm:      0.000623  CPU:    3.286
  ** Hessian has required structure
  Cycle:     58 Energy:     -1516.918085  Gnorm:      0.000319  CPU:    3.341
  ** Hessian has required structure
  Cycle:     59 Energy:     -1516.918088  Gnorm:      0.000224  CPU:    3.380
  ** Hessian has required structure


  **** Optimisation achieved ****


  Final energy =   -1516.91808880 eV      
  Final Gnorm  =       0.00015725

  Components of energy : 

--------------------------------------------------------------------------------
  Interatomic potentials     =         404.29502381 eV    
  Three-body potentials      =           0.04416382 eV    
  Monopole - monopole (real) =        -838.92428996 eV    
  Monopole - monopole (recip)=       -1082.33298647 eV    
  Monopole - monopole (total)=       -1921.25727644 eV    
--------------------------------------------------------------------------------
  Total lattice energy       =       -1516.91808880 eV    
--------------------------------------------------------------------------------
  Total lattice energy       =         -146359.4074 kJ/(mole unit cells)
--------------------------------------------------------------------------------

  Final fractional coordinates of atoms :

--------------------------------------------------------------------------------
   No.  Atomic        x           y          z          Radius
        Label       (Frac)      (Frac)     (Frac)       (Angs) 
--------------------------------------------------------------------------------
     1  Ge    c     0.313820    0.296860    0.309830    0.000000
     2  Ge    c     0.354874    0.704650    0.323854    0.000000
     3  Ge    c     0.689835    0.244499    0.404126    0.000000
     4  Ge    c     0.922473    0.960155    0.871620    0.000000
     5  Si    c     0.690998    0.253469    0.712889    0.000000
     6  Si    c     0.717582    0.651992    0.717314    0.000000
     7  Si    c     0.333500    0.299318    0.625793    0.000000
     8  Si    c     0.718616    0.646152    0.413579    0.000000
     9  Si    c     0.363972    0.698560    0.637248    0.000000
    10  Si    c     0.923802    0.947216    0.391462    0.000000
    11  Si    c     0.146812    0.997925    0.687395    0.000000
    12  Si    c     0.115936    0.986707    0.184007    0.000000
    13  O3    c     0.307498    0.243067    0.471428    0.000000
    14  O3    c     0.702482    0.182653    0.568541    0.000000
    15  O2    c     0.718889    0.702881    0.566117    0.000000
    16  O3    c     0.351330    0.759328    0.486653    0.000000
    17  O1    c     0.268132    0.510337    0.276948    0.000000
    18  O2    c     0.758207    0.447298    0.739734    0.000000
    19  O1    c     0.500566    0.248404    0.306377    0.000000
    20  O2    c     0.511517    0.261673    0.711894    0.000000
    21  O2    c     0.544015    0.694835    0.728636    0.000000
    22  O3    c     0.544884    0.678535    0.318483    0.000000
    23  O3    c     0.173618    0.181911    0.192974    0.000000
    24  O3    c     0.785770    0.126374    0.829761    0.000000
    25  O3    c     0.843079    0.759867    0.825249    0.000000
    26  O3    c     0.269068    0.862989    0.208633    0.000000
    27  O2    c     0.293754    0.505717    0.633753    0.000000
    28  O3    c     0.768385    0.447043    0.406719    0.000000
    29  O2    c     0.225051    0.184401    0.689000    0.000000
    30  O3    c     0.797206    0.099382    0.336847    0.000000
    31  O2    c     0.840010    0.762763    0.368627    0.000000
    32  O2    c     0.269122    0.836463    0.703314    0.000000
    33  O2    c     0.003701    0.979944    0.551644    0.000000
    34  O2    c     0.051273    0.939358    0.310989    0.000000
    35  O3    c     0.081073    0.996242    0.815345    0.000000
    36  O3    c     0.985501    0.951652    0.046429    0.000000
    37  O3    s     0.310646    0.253056    0.474415    0.000000
    38  O3    s     0.700398    0.194373    0.569679    0.000000
    39  O2    s     0.718701    0.691687    0.566468    0.000000
    40  O3    s     0.352912    0.748769    0.488776    0.000000
    41  O1    s     0.278498    0.508447    0.283175    0.000000
    42  O2    s     0.746918    0.448779    0.734580    0.000000
    43  O1    s     0.501263    0.251711    0.314222    0.000000
    44  O2    s     0.511568    0.264941    0.702790    0.000000
    45  O2    s     0.543119    0.690793    0.718021    0.000000
    46  O3    s     0.547092    0.677382    0.328352    0.000000
    47  O3    s     0.179213    0.171866    0.201431    0.000000
    48  O3    s     0.787283    0.125777    0.821000    0.000000
    49  O3    s     0.836262    0.764942    0.817532    0.000000
    50  O3    s     0.261631    0.861664    0.215834    0.000000
    51  O2    s     0.304895    0.504204    0.633316    0.000000
    52  O3    s     0.757094    0.451051    0.407180    0.000000
    53  O2    s     0.228512    0.177249    0.681997    0.000000
    54  O3    s     0.801016    0.096170    0.347748    0.000000
    55  O2    s     0.835701    0.769692    0.375991    0.000000
    56  O2    s     0.266484    0.838539    0.694366    0.000000
    57  O2    s     0.010592    0.978440    0.549278    0.000000
    58  O2    s     0.043680    0.944957    0.307091    0.000000
    59  O3    s     0.074612    0.993398    0.806812    0.000000
    60  O3    s     0.994262    0.956182    0.046573    0.000000
--------------------------------------------------------------------------------

  Final Cartesian lattice vectors (Angstroms) :

        8.989303    0.132730    0.128819
        0.116518    7.706108   -0.020867
       -3.113924   -0.068453    9.777065


  Final cell parameters and derivatives :

--------------------------------------------------------------------------------
       a            8.991205 Angstrom     dE/de1(xx)     0.005611 eV/strain
       b            7.707017 Angstrom     dE/de2(yy)     0.007147 eV/strain
       c           10.261199 Angstrom     dE/de3(zz)     0.003122 eV/strain
       alpha       90.792881 Degrees      dE/de4(yz)    -0.000183 eV/strain
       beta       106.848908 Degrees      dE/de5(xz)     0.000427 eV/strain
       gamma       88.290214 Degrees      dE/de6(xy)     0.000206 eV/strain
--------------------------------------------------------------------------------

  Primitive cell volume =           680.216852 Angs**3

  Density of cell =      2.195056 g/cm**3

  Non-primitive cell volume =           680.216852 Angs**3


  Final internal derivatives :

--------------------------------------------------------------------------------
   No.  Atomic          a             b             c           Radius
        Label          (eV)          (eV)          (eV)        (eV/Angs)
--------------------------------------------------------------------------------
      1 Ge    c       0.000000      0.000000      0.000000      0.000000
      2 Ge    c      -0.001751      0.004966     -0.002452      0.000000
      3 Ge    c      -0.003424     -0.000507      0.003438      0.000000
      4 Ge    c      -0.001468      0.000391      0.002478      0.000000
      5 Si    c       0.001002     -0.000361     -0.002497      0.000000
      6 Si    c      -0.000738     -0.000423     -0.001033      0.000000
      7 Si    c       0.000122     -0.000883     -0.000055      0.000000
      8 Si    c      -0.000982     -0.001042      0.002665      0.000000
      9 Si    c      -0.000327      0.001370      0.001006      0.000000
     10 Si    c       0.004036      0.000160      0.001249      0.000000
     11 Si    c      -0.000570     -0.000180      0.000046      0.000000
     12 Si    c       0.001882     -0.000620     -0.000198      0.000000
     13 O3    c      -0.000505     -0.000126      0.001003      0.000000
     14 O3    c       0.000270     -0.000352      0.000528      0.000000
     15 O2    c       0.000444      0.001015     -0.000553      0.000000
     16 O3    c       0.000834      0.000130     -0.002444      0.000000
     17 O1    c      -0.004115      0.001382     -0.000168      0.000000
     18 O2    c       0.000917      0.000401      0.000458      0.000000
     19 O1    c      -0.002950     -0.000660     -0.000248      0.000000
     20 O2    c      -0.001289     -0.000228      0.000874      0.000000
     21 O2    c      -0.000348      0.000463      0.000669      0.000000
     22 O3    c      -0.001712     -0.000802     -0.001970      0.000000
     23 O3    c      -0.003059     -0.001514      0.004652      0.000000
     24 O3    c      -0.001408      0.001151      0.002127      0.000000
     25 O3    c       0.000994     -0.001221      0.001721      0.000000
     26 O3    c      -0.002717      0.001244      0.006611      0.000000
     27 O2    c      -0.001039     -0.000448      0.000182      0.000000
     28 O3    c       0.003456      0.002541     -0.001642      0.000000
     29 O2    c      -0.000223      0.000977      0.000250      0.000000
     30 O3    c       0.000014      0.007941     -0.007121      0.000000
     31 O2    c      -0.003225     -0.005167     -0.003909      0.000000
     32 O2    c       0.000634     -0.000947      0.000021      0.000000
     33 O2    c      -0.000498     -0.000162      0.004756      0.000000
     34 O2    c       0.003258      0.000925     -0.006273      0.000000
     35 O3    c       0.005798      0.000197     -0.004094      0.000000
     36 O3    c       0.000672     -0.000622      0.001234      0.000000
     37 O3    s       0.000964     -0.000367     -0.000644      0.000000
     38 O3    s      -0.001096      0.000923      0.000381      0.000000
     39 O2    s       0.000236     -0.000957      0.000388      0.000000
     40 O3    s      -0.000430      0.000392     -0.000208      0.000000
     41 O1    s       0.002411     -0.000600     -0.000566      0.000000
     42 O2    s       0.000051     -0.000336     -0.001186      0.000000
     43 O1    s       0.000090      0.001428     -0.000017      0.000000
     44 O2    s      -0.000451      0.000469     -0.000565      0.000000
     45 O2    s      -0.001100     -0.000588      0.001006      0.000000
     46 O3    s      -0.001331     -0.000229     -0.000247      0.000000
     47 O3    s       0.000681     -0.002216     -0.000658      0.000000
     48 O3    s      -0.000284     -0.000165      0.000499      0.000000
     49 O3    s      -0.000812     -0.000301      0.000385      0.000000
     50 O3    s       0.000067      0.003120     -0.000389      0.000000
     51 O2    s       0.000194     -0.000283      0.000392      0.000000
     52 O3    s      -0.001899     -0.000979      0.002290      0.000000
     53 O2    s       0.000260      0.000046     -0.000171      0.000000
     54 O3    s      -0.000973      0.001210     -0.000156      0.000000
     55 O2    s      -0.001088     -0.002669     -0.001228      0.000000
     56 O2    s      -0.000137      0.000475      0.000036      0.000000
     57 O2    s       0.004290     -0.001122      0.002050      0.000000
     58 O2    s       0.007195     -0.001801     -0.002830      0.000000
     59 O3    s      -0.001215     -0.000003      0.002064      0.000000
     60 O3    s       0.002153      0.000054      0.001159      0.000000
--------------------------------------------------------------------------------
  Maximum abs         0.007195      0.007941      0.007121      0.000000
--------------------------------------------------------------------------------


  Born effective charge tensors : 

-------------------------------------------------------------------------------
  Atom             x           y             z
-------------------------------------------------------------------------------
    1 Ge    x       3.9102      0.1973      0.1838
            y       0.1960      4.2362      0.2895
            z       0.2989      0.0685      3.5720
-------------------------------------------------------------------------------
    2 Ge    x       3.8399     -0.4081      0.2184
            y       0.0176      4.1605     -0.2019
            z       0.2610     -0.1474      3.5571
-------------------------------------------------------------------------------
    3 Ge    x       4.0870     -0.3993      0.0849
            y      -0.2061      4.1374      0.2252
            z       0.0906     -0.0972      3.3216
-------------------------------------------------------------------------------
    4 Ge    x       3.9973      0.2049      0.1881
            y      -0.1052      3.9396      0.0368
            z       0.0299     -0.0432      4.6689
-------------------------------------------------------------------------------
    5 Si    x       3.2692     -0.4423      0.1523
            y      -0.1550      3.6725     -0.3500
            z       0.1837     -0.2415      3.3463
-------------------------------------------------------------------------------
    6 Si    x       3.2802      0.3365      0.2503
            y       0.3167      3.5440      0.4297
            z       0.4193      0.2555      3.0693
-------------------------------------------------------------------------------
    7 Si    x       3.2842      0.2670      0.0214
            y       0.3032      3.5527     -0.0491
            z      -0.0267      0.1245      2.9776
-------------------------------------------------------------------------------
    8 Si    x       3.6355      0.1065      0.1953
            y       0.1079      3.7781     -0.1646
            z       0.0864      0.0315      2.8461
-------------------------------------------------------------------------------
    9 Si    x       3.3296     -0.3179     -0.0032
            y      -0.1667      3.5401      0.0314
            z      -0.0676     -0.1692      2.9484
-------------------------------------------------------------------------------
   10 Si    x       3.7127     -0.0492      0.2817
            y      -0.1955      3.4365     -0.1283
            z      -0.3415     -0.0074      2.9181
-------------------------------------------------------------------------------
   11 Si    x       3.8342      0.1032     -0.3769
            y      -0.0385      3.3371     -0.0568
            z      -0.3796      0.0004      3.2510
-------------------------------------------------------------------------------
   12 Si    x       3.5448      0.2411      0.0287
            y      -0.1567      3.6153     -0.0445
            z       0.8072      0.1984      4.3218
-------------------------------------------------------------------------------
   13 O3    x      -1.3782     -0.1186      0.2886
            y      -0.0877     -1.4412     -0.1635
            z       0.3100     -0.1111     -2.5506
-------------------------------------------------------------------------------
   14 O3    x      -1.4882      0.1828      0.4930
            y       0.1218     -1.5004     -0.1301
            z       0.4012     -0.0647     -2.3704
-------------------------------------------------------------------------------
   15 O2    x      -1.3355     -0.1086      0.3330
            y      -0.0947     -1.2975      0.0222
            z       0.3001      0.0032     -1.9129
-------------------------------------------------------------------------------
   16 O3    x      -1.4333      0.1136      0.3413
            y       0.0329     -1.4365      0.1734
            z       0.3541      0.1463     -2.4868
-------------------------------------------------------------------------------
   17 O1    x      -1.3974     -0.1477     -0.1235
            y      -0.2172     -3.2744     -0.0759
            z      -0.1619     -0.0630     -1.3493
-------------------------------------------------------------------------------
   18 O2    x      -1.1971     -0.0700     -0.0611
            y      -0.1158     -2.4756      0.0117
            z      -0.1005      0.0222     -1.0963
-------------------------------------------------------------------------------
   19 O1    x      -3.0255      0.1900     -0.5360
            y       0.1187     -1.4385     -0.0638
            z      -0.5240      0.0173     -1.5066
-------------------------------------------------------------------------------
   20 O2    x      -2.2740      0.0958     -0.3390
            y       0.0252     -1.2626      0.0786
            z      -0.3483      0.0612     -1.1573
-------------------------------------------------------------------------------
   21 O2    x      -2.2860      0.1383     -0.2908
            y       0.1068     -1.2506     -0.0442
            z      -0.3150      0.0041     -1.1739
-------------------------------------------------------------------------------
   22 O3    x      -2.8128      0.2096     -0.5504
            y       0.1256     -1.3439      0.1219
            z      -0.5608      0.0932     -1.4721
-------------------------------------------------------------------------------
   23 O3    x      -1.6086     -0.7202     -0.3067
            y      -0.6770     -2.4985     -0.5119
            z      -0.4403     -0.5256     -1.7234
-------------------------------------------------------------------------------
   24 O3    x      -1.7103      0.7314     -0.5287
            y       0.7127     -2.3101      0.7984
            z      -0.5193      0.7978     -1.9393
-------------------------------------------------------------------------------
   25 O3    x      -1.7047     -0.7936     -0.5686
            y      -0.7189     -2.3995     -0.7922
            z      -0.5877     -0.7974     -1.9158
-------------------------------------------------------------------------------
   26 O3    x      -1.9739      0.7398     -0.3612
            y       0.7474     -2.1299      0.5793
            z      -0.4509      0.5492     -1.7550
-------------------------------------------------------------------------------
   27 O2    x      -1.2668     -0.0674     -0.0341
            y      -0.1260     -2.5772     -0.0392
            z       0.0034     -0.0225     -0.9893
-------------------------------------------------------------------------------
   28 O3    x      -1.4077      0.0386      0.0189
            y      -0.0590     -3.1489     -0.0621
            z       0.0434     -0.0378     -1.1022
-------------------------------------------------------------------------------
   29 O2    x      -1.8100     -0.7800      0.1815
            y      -0.6960     -2.0567      0.1704
            z       0.1742      0.1240     -1.0973
-------------------------------------------------------------------------------
   30 O3    x      -2.2162      0.9905     -0.0304
            y       0.9986     -2.3361      0.0250
            z       0.0723      0.0381     -1.2842
-------------------------------------------------------------------------------
   31 O2    x      -1.8508     -0.7342      0.0632
            y      -0.7006     -1.9559      0.0751
            z       0.1609      0.0513     -1.0762
-------------------------------------------------------------------------------
   32 O2    x      -1.8586      0.7931      0.1328
            y       0.7414     -1.9878     -0.1206
            z       0.1513     -0.1135     -1.1064
-------------------------------------------------------------------------------
   33 O2    x      -1.5605     -0.0836     -0.5257
            y      -0.0168     -1.1908     -0.1214
            z      -0.2662     -0.1571     -1.9909
-------------------------------------------------------------------------------
   34 O2    x      -2.0497     -0.1317      0.6591
            y      -0.0327     -1.1859      0.1128
            z       0.6289      0.1137     -1.7682
-------------------------------------------------------------------------------
   35 O3    x      -2.6713     -0.1912      0.9795
            y      -0.0778     -1.2386      0.0608
            z       0.9943      0.0960     -2.1682
-------------------------------------------------------------------------------
   36 O3    x      -1.4080     -0.1165     -0.4596
            y      -0.0286     -1.2132     -0.1221
            z      -0.6808     -0.1977     -3.8053
-------------------------------------------------------------------------------




  Elastic Constant Matrix: (Units=GPa)

-------------------------------------------------------------------------------
  Indices      1         2         3         4         5         6    
-------------------------------------------------------------------------------
       1     43.3029   23.9765   10.2443    2.1272    0.4490   14.5639
       2     23.9765   71.2250   13.5791    2.5725    4.3062   19.0109
       3     10.2443   13.5791   34.6967    1.0755    9.0014    5.1578
       4      2.1272    2.5725    1.0755   11.8867    1.2175    6.1338
       5      0.4490    4.3062    9.0014    1.2175   11.9495    2.8592
       6     14.5639   19.0109    5.1578    6.1338    2.8592   24.8208
-------------------------------------------------------------------------------


  Elastic Compliance Matrix: (Units=1/GPa)

-------------------------------------------------------------------------------
  Indices      1         2         3         4         5         6    
-------------------------------------------------------------------------------
       1    0.033264 -0.006476 -0.007830  0.002739  0.010241 -0.014787
       2   -0.006476  0.019956 -0.003895  0.003177 -0.001641 -0.011271
       3   -0.007830 -0.003895  0.039764  0.000277 -0.028900  0.002576
       4    0.002739  0.003177  0.000277  0.097704 -0.004785 -0.027691
       5    0.010241 -0.001641 -0.028900 -0.004785  0.108559 -0.010070
       6   -0.014787 -0.011271  0.002576 -0.027691 -0.010070  0.065066
-------------------------------------------------------------------------------

  Mechanical properties :

-------------------------------------------------------------------------------
  Convention :                    Reuss         Voigt         Hill
-------------------------------------------------------------------------------
  Bulk  Modulus (GPa)     =      17.67411      27.20270      22.43841
  Shear Modulus (GPa)     =      11.91680      16.49305      14.20493
-------------------------------------------------------------------------------
  Velocity S-wave (km/s)  =       2.33001       2.74112       2.54388
  Velocity P-wave (km/s)  =       3.91029       4.73403       4.34174
-------------------------------------------------------------------------------
  Compressibility (1/GPa) =    0.05657994
-------------------------------------------------------------------------------
  Stress axis :                     x             y             z
-------------------------------------------------------------------------------
  Youngs Moduli (GPa)     =      30.06262      50.11130      25.14853
-------------------------------------------------------------------------------
  Poissons Ratio (x)      =                     0.32452       0.19692
  Poissons Ratio (y)      =       0.19469                     0.09796
  Poissons Ratio (z)      =       0.23540       0.19519
-------------------------------------------------------------------------------


  Piezoelectric Strain Matrix: (Units=C/m**2)

-------------------------------------------------------------------------------
  Indices      1         2         3         4         5         6    
-------------------------------------------------------------------------------
       x     0.71185   0.32459  -0.69758  -0.03847  -0.36842   0.19805
       y    -0.84579   0.09005  -0.44605  -0.60006  -0.21154  -0.37454
       z     0.21568   0.12827   1.31087  -0.53343  -0.42118  -0.13977
-------------------------------------------------------------------------------


  Piezoelectric Stress Matrix: (Units=10**-11 C/N)

-------------------------------------------------------------------------------
  Indices      1         2         3         4         5         6    
-------------------------------------------------------------------------------
       x     2.02321   0.28346  -2.34301  -0.46930  -1.48873   0.16802
       y    -2.34962   1.16742  -0.64821  -4.93979  -1.22405   0.47195
       z    -0.76287  -0.33714   6.16011  -4.48701  -7.76490   0.86595
-------------------------------------------------------------------------------


  Static dielectric constant tensor : 

-------------------------------------------------------------------------------
              x         y         z
-------------------------------------------------------------------------------
       x     4.43835  -0.00359   0.34428
       y    -0.00359   4.79683   0.06047
       z     0.34428   0.06047   3.81583
--------------------------------------------------------------------------------

  High frequency dielectric constant tensor : 

-------------------------------------------------------------------------------
              x         y         z
-------------------------------------------------------------------------------
       x     1.63531   0.00317   0.01072
       y     0.00317   1.64478  -0.00059
       z     0.01072  -0.00059   1.58443
-------------------------------------------------------------------------------

  Static refractive indices : 

-------------------------------------------------------------------------------
    1 =    1.91315      2 =    2.14221      3 =    2.19130
-------------------------------------------------------------------------------

  High frequency refractive indices : 

-------------------------------------------------------------------------------
    1 =    1.25787      2 =    1.27922      3 =    1.28292
-------------------------------------------------------------------------------


  Time to end of optimisation =       3.4691 seconds


  Peak dynamic memory used =       2.76 MB 


  Timing analysis for GULP :

--------------------------------------------------------------------------------
  Task / Subroutine                                          Time (Seconds)
--------------------------------------------------------------------------------
  Calculation of reciprocal space energy and derivatives          0.2261
  Calculation of real space energy and derivatives                2.8996
  Calculation of three-body energy and derivatives                0.0918
  Calculation and manipulation of Hessian matrix                  0.3958
  Calculation of matrix inversion                                 0.0050
  Global summation overhead                                       0.0001
--------------------------------------------------------------------------------
  Total CPU time                                                  3.4691
--------------------------------------------------------------------------------


  Dump file written as c00053.vasp.grs
  CIF file written as c00053.vasp.cif


  Job Finished at 22:39.32  6th October    2025                               

