********************************************************************************
*                       GENERAL UTILITY LATTICE PROGRAM                        *
*                                 Julian Gale                                  *
*                       Curtin Institute for Computation                       *
*                    School of Molecular and Life Sciences                     *
*                    Curtin University, Western Australia                      *
********************************************************************************
* Version = 6.1.2 * Last modified =   3rd November 2022                        *
********************************************************************************
*  optimise     - perform optimisation run                                     *
*  conp         - constant pressure calculation                                *
*  property     - calculate properties for final geometry                      *
********************************************************************************

  Job Started  at 22:41.36  6th October    2025                               

  Number of CPUs =     1


  Total number of configurations input =      1

********************************************************************************
*  Input for Configuration =   1 : c00091.vasp                                 *
********************************************************************************

  Formula = Ge4Si8O24                                                   

  Number of irreducible atoms/shells =      60


  Total number atoms/shells =      60

  Dimensionality = 3               :  Bulk   



  Cartesian lattice vectors (Angstroms) :

        9.086940    0.000000    0.000000
        0.000000    7.554810    0.000000
       -3.295144    0.000000    9.944380

  Cell parameters (Angstroms/Degrees):

  a =       9.0869    alpha =  90.0000
  b =       7.5548    beta  = 108.3330
  c =      10.4761    gamma =  90.0000

  Initial cell volume =         682.682735 Angs**3

  Temperature of configuration =   0.00     K 

  Pressure of configuration =         0.000 GPa 

  Fractional coordinates of asymmetric unit :

--------------------------------------------------------------------------------
   No.  Atomic       x           y          z         Charge      Occupancy
        Label      (Frac)      (Frac)     (Frac)        (e)         (Frac)  
--------------------------------------------------------------------------------
      1 Ge    c    0.313820    0.296860    0.309830     4.00000    1.000000    
      2 Ge    c    0.668950 *  0.296920 *  0.392620 *   4.00000    1.000000    
      3 Ge    c    0.879680 *  0.000000 *  0.350160 *   4.00000    1.000000    
      4 Ge    c    0.093070 *  0.000000 *  0.158230 *   4.00000    1.000000    
      5 Si    c    0.686180 *  0.296860 *  0.690170 *   4.00000    1.000000    
      6 Si    c    0.686180 *  0.703140 *  0.690170 *   4.00000    1.000000    
      7 Si    c    0.313820 *  0.703140 *  0.309830 *   4.00000    1.000000    
      8 Si    c    0.331050 *  0.296920 *  0.607380 *   4.00000    1.000000    
      9 Si    c    0.668950 *  0.703080 *  0.392620 *   4.00000    1.000000    
     10 Si    c    0.331050 *  0.703080 *  0.607380 *   4.00000    1.000000    
     11 Si    c    0.120320 *  0.000000 *  0.649840 *   4.00000    1.000000    
     12 Si    c    0.906930 *  0.000000 *  0.841770 *   4.00000    1.000000    
     13 O3    c    0.268740 *  0.279030 *  0.446100 *   1.33043    1.000000    
     14 O3    c    0.731260 *  0.279030 *  0.553900 *   1.33043    1.000000    
     15 O2    c    0.731260 *  0.720970 *  0.553900 *   0.87073    1.000000    
     16 O2    c    0.268740 *  0.720970 *  0.446100 *   0.87073    1.000000    
     17 O3    c    0.295480 *  0.500000 *  0.260860 *   1.33043    1.000000    
     18 O2    c    0.704520 *  0.500000 *  0.739140 *   0.87073    1.000000    
     19 O1    c    0.490600 *  0.234690 *  0.337530 *   1.73396    1.000000    
     20 O2    c    0.509400 *  0.234690 *  0.662470 *   0.87073    1.000000    
     21 O2    c    0.509400 *  0.765310 *  0.662470 *   0.87073    1.000000    
     22 O2    c    0.490600 *  0.765310 *  0.337530 *   0.87073    1.000000    
     23 O1    c    0.200440 *  0.174000 *  0.194980 *   1.73396    1.000000    
     24 O2    c    0.799560 *  0.174000 *  0.805020 *   0.87073    1.000000    
     25 O2    c    0.799560 *  0.826000 *  0.805020 *   0.87073    1.000000    
     26 O3    c    0.200440 *  0.826000 *  0.194980 *   1.33043    1.000000    
     27 O2    c    0.317860 *  0.500000 *  0.649090 *   0.87073    1.000000    
     28 O3    c    0.682140 *  0.500000 *  0.350910 *   1.33043    1.000000    
     29 O2    c    0.227920 *  0.173870 *  0.671620 *   0.87073    1.000000    
     30 O1    c    0.772080 *  0.173870 *  0.328380 *   1.73396    1.000000    
     31 O3    c    0.772080 *  0.826130 *  0.328380 *   1.33043    1.000000    
     32 O2    c    0.227920 *  0.826130 *  0.671620 *   0.87073    1.000000    
     33 O3    c    0.000000 *  0.000000 *  0.500000 *   1.33043    1.000000    
     34 O1    c    0.971960 *  0.000000 *  0.241930 *   1.73396    1.000000    
     35 O2    c    0.028040 *  0.000000 *  0.758070 *   0.87073    1.000000    
     36 O3    c    0.000000 *  0.000000 *  0.000000 *   1.33043    1.000000    
     37 O3    s    0.268740 *  0.279030 *  0.446100 *  -3.33043    1.000000    
     38 O3    s    0.731260 *  0.279030 *  0.553900 *  -3.33043    1.000000    
     39 O2    s    0.731260 *  0.720970 *  0.553900 *  -2.87073    1.000000    
     40 O2    s    0.268740 *  0.720970 *  0.446100 *  -2.87073    1.000000    
     41 O3    s    0.295480 *  0.500000 *  0.260860 *  -3.33043    1.000000    
     42 O2    s    0.704520 *  0.500000 *  0.739140 *  -2.87073    1.000000    
     43 O1    s    0.490600 *  0.234690 *  0.337530 *  -3.73396    1.000000    
     44 O2    s    0.509400 *  0.234690 *  0.662470 *  -2.87073    1.000000    
     45 O2    s    0.509400 *  0.765310 *  0.662470 *  -2.87073    1.000000    
     46 O2    s    0.490600 *  0.765310 *  0.337530 *  -2.87073    1.000000    
     47 O1    s    0.200440 *  0.174000 *  0.194980 *  -3.73396    1.000000    
     48 O2    s    0.799560 *  0.174000 *  0.805020 *  -2.87073    1.000000    
     49 O2    s    0.799560 *  0.826000 *  0.805020 *  -2.87073    1.000000    
     50 O3    s    0.200440 *  0.826000 *  0.194980 *  -3.33043    1.000000    
     51 O2    s    0.317860 *  0.500000 *  0.649090 *  -2.87073    1.000000    
     52 O3    s    0.682140 *  0.500000 *  0.350910 *  -3.33043    1.000000    
     53 O2    s    0.227920 *  0.173870 *  0.671620 *  -2.87073    1.000000    
     54 O1    s    0.772080 *  0.173870 *  0.328380 *  -3.73396    1.000000    
     55 O3    s    0.772080 *  0.826130 *  0.328380 *  -3.33043    1.000000    
     56 O2    s    0.227920 *  0.826130 *  0.671620 *  -2.87073    1.000000    
     57 O3    s    0.000000 *  0.000000 *  0.500000 *  -3.33043    1.000000    
     58 O1    s    0.971960 *  0.000000 *  0.241930 *  -3.73396    1.000000    
     59 O2    s    0.028040 *  0.000000 *  0.758070 *  -2.87073    1.000000    
     60 O3    s    0.000000 *  0.000000 *  0.000000 *  -3.33043    1.000000    
--------------------------------------------------------------------------------



********************************************************************************
*  General input information                                                   *
********************************************************************************

  Species output for all configurations : 

--------------------------------------------------------------------------------
  Species    Type    Atomic    Atomic    Charge       Radii (Angs)     Library
                     Number     Mass       (e)     Cova   Ionic  VDW   Symbol
--------------------------------------------------------------------------------
    Ge       Core       32      72.61   4.000000   1.170  0.000  1.750 Ge       
    Si       Core       14      28.09   4.000000   1.200  0.000  2.100 Si       
    O1       Core        8      16.00   1.733957   0.730  0.000  1.360 O1       
    O2       Core        8      16.00   0.870733   0.730  0.000  1.360 O2       
    O3       Core        8      16.00   1.330431   0.730  0.000  1.360 O3       
    O1       Shell       8       0.00  -3.733957   0.730  0.000  0.000 O1       
    O2       Shell       8       0.00  -2.870733   0.730  0.000  0.000 O2       
    O3       Shell       8       0.00  -3.330431   0.730  0.000  0.000 O3       
--------------------------------------------------------------------------------


  Lattice summation method               =    Ewald          (3-D)
                                         =    Parry          (2-D)
                                         =    Saunders et al (1-D)
  Accuracy factor for lattice sums       =   12.000


  Analytic derivatives to be used

  Time limit = Infinity

  Maximum range for interatomic potentials =    100000.000000 Angstroms

  General interatomic potentials :

--------------------------------------------------------------------------------
Atom  Types   Potential      Parameter       Value         Units   Cutoffs(Ang)
  1     2                                                            Min /  Max 
--------------------------------------------------------------------------------
Si   c O1   s Buckingham    Buckingham A     1315.2478    eV        0.000 16.000
                            Buckingham rho  0.31775900    Ang       
                            Buckingham C     10.141118    eV*Ang^6  
--------------------------------------------------------------------------------
Si   c O2   s Buckingham    Buckingham A     1315.2478    eV        0.000 16.000
                            Buckingham rho  0.31775900    Ang       
                            Buckingham C     10.141118    eV*Ang^6  
--------------------------------------------------------------------------------
Si   c O3   s Buckingham    Buckingham A     1315.2478    eV        0.000 16.000
                            Buckingham rho  0.31775900    Ang       
                            Buckingham C     10.141118    eV*Ang^6  
--------------------------------------------------------------------------------
Ge   c O1   s Buckingham    Buckingham A     1497.3996    eV        0.000 16.000
                            Buckingham rho  0.32564600    Ang       
                            Buckingham C     16.808599    eV*Ang^6  
--------------------------------------------------------------------------------
Ge   c O2   s Buckingham    Buckingham A     1497.3996    eV        0.000 16.000
                            Buckingham rho  0.32564600    Ang       
                            Buckingham C     16.808599    eV*Ang^6  
--------------------------------------------------------------------------------
Ge   c O3   s Buckingham    Buckingham A     1497.3996    eV        0.000 16.000
                            Buckingham rho  0.32564600    Ang       
                            Buckingham C     16.808599    eV*Ang^6  
--------------------------------------------------------------------------------
O1   s O1   s Buckingham    Buckingham A     22764.000    eV        0.000 16.000
                            Buckingham rho  0.14900000    Ang       
                            Buckingham C     10.937044    eV*Ang^6  
--------------------------------------------------------------------------------
O1   s O2   s Buckingham    Buckingham A     22764.000    eV        0.000 16.000
                            Buckingham rho  0.14900000    Ang       
                            Buckingham C     10.937044    eV*Ang^6  
--------------------------------------------------------------------------------
O1   s O3   s Buckingham    Buckingham A     22764.000    eV        0.000 16.000
                            Buckingham rho  0.14900000    Ang       
                            Buckingham C     10.937044    eV*Ang^6  
--------------------------------------------------------------------------------
O2   s O2   s Buckingham    Buckingham A     22764.000    eV        0.000 16.000
                            Buckingham rho  0.14900000    Ang       
                            Buckingham C     10.937044    eV*Ang^6  
--------------------------------------------------------------------------------
O2   s O3   s Buckingham    Buckingham A     22764.000    eV        0.000 16.000
                            Buckingham rho  0.14900000    Ang       
                            Buckingham C     10.937044    eV*Ang^6  
--------------------------------------------------------------------------------
O3   s O3   s Buckingham    Buckingham A     22764.000    eV        0.000 16.000
                            Buckingham rho  0.14900000    Ang       
                            Buckingham C     10.937044    eV*Ang^6  
--------------------------------------------------------------------------------
O1   c O1   s Spring (c-s)  Spring k 2       180.31577    eV*Ang^-2 0.000  0.800
                            Spring k 4       0.0000000    eV*Ang^-4 
--------------------------------------------------------------------------------
O2   c O2   s Spring (c-s)  Spring k 2       75.969800    eV*Ang^-2 0.000  0.800
                            Spring k 4       0.0000000    eV*Ang^-4 
--------------------------------------------------------------------------------
O3   c O3   s Spring (c-s)  Spring k 2       128.14270    eV*Ang^-2 0.000  0.800
                            Spring k 4       0.0000000    eV*Ang^-4 
--------------------------------------------------------------------------------

  General Three-body potentials :

--------------------------------------------------------------------------------
  Atoms       Potential      Parameter       Value         Units   Cutoffs(Ang)
  1 / 2 / 3                                                          Min /  Max 
--------------------------------------------------------------------------------
Si    core    Harmonic      Three-body cnst  1.2614000    eV*rad^-2 0.000  1.900
O1    shel                  Three-body angl  109.47000    degrees   0.000  1.900
O1    shel                  Three-body k4    0.0000000    eV*rad^-4 0.000  3.500
                            Three-body k3    0.0000000    eV*rad^-3 
--------------------------------------------------------------------------------
Si    core    Harmonic      Three-body cnst  1.2614000    eV*rad^-2 0.000  1.900
O1    shel                  Three-body angl  109.47000    degrees   0.000  1.900
õ(1   shel                  Three-body k4    0.0000000    eV*rad^-4 0.000  3.500
                            Three-body k3    0.0000000    eV*rad^-3 
--------------------------------------------------------------------------------
Si    core    Harmonic      Three-body cnst  1.2614000    eV*rad^-2 0.000  1.900
õ(1   shel                  Three-body angl  109.47000    degrees   0.000  1.900
õ(1   shel                  Three-body k4    0.0000000    eV*rad^-4 0.000  3.500
                            Three-body k3    0.0000000    eV*rad^-3 
--------------------------------------------------------------------------------
Si    core    Harmonic      Three-body cnst  1.2614000    eV*rad^-2 0.000  1.900
O1    shel                  Three-body angl  109.47000    degrees   0.000  1.900
O2    shel                  Three-body k4    0.0000000    eV*rad^-4 0.000  3.500
                            Three-body k3    0.0000000    eV*rad^-3 
--------------------------------------------------------------------------------
Si    core    Harmonic      Three-body cnst  1.2614000    eV*rad^-2 0.000  1.900
O1    shel                  Three-body angl  109.47000    degrees   0.000  1.900
õ(2   shel                  Three-body k4    0.0000000    eV*rad^-4 0.000  3.500
                            Three-body k3    0.0000000    eV*rad^-3 
--------------------------------------------------------------------------------
Si    core    Harmonic      Three-body cnst  1.2614000    eV*rad^-2 0.000  1.900
O2    shel                  Three-body angl  109.47000    degrees   0.000  1.900
õ(1   shel                  Three-body k4    0.0000000    eV*rad^-4 0.000  3.500
                            Three-body k3    0.0000000    eV*rad^-3 
--------------------------------------------------------------------------------
Si    core    Harmonic      Three-body cnst  1.2614000    eV*rad^-2 0.000  1.900
õ(1   shel                  Three-body angl  109.47000    degrees   0.000  1.900
õ(2   shel                  Three-body k4    0.0000000    eV*rad^-4 0.000  3.500
                            Three-body k3    0.0000000    eV*rad^-3 
--------------------------------------------------------------------------------
Si    core    Harmonic      Three-body cnst  1.2614000    eV*rad^-2 0.000  1.900
O2    shel                  Three-body angl  109.47000    degrees   0.000  1.900
O2    shel                  Three-body k4    0.0000000    eV*rad^-4 0.000  3.500
                            Three-body k3    0.0000000    eV*rad^-3 
--------------------------------------------------------------------------------
Si    core    Harmonic      Three-body cnst  1.2614000    eV*rad^-2 0.000  1.900
O2    shel                  Three-body angl  109.47000    degrees   0.000  1.900
õ(2   shel                  Three-body k4    0.0000000    eV*rad^-4 0.000  3.500
                            Three-body k3    0.0000000    eV*rad^-3 
--------------------------------------------------------------------------------
Si    core    Harmonic      Three-body cnst  1.2614000    eV*rad^-2 0.000  1.900
õ(2   shel                  Three-body angl  109.47000    degrees   0.000  1.900
õ(2   shel                  Three-body k4    0.0000000    eV*rad^-4 0.000  3.500
                            Three-body k3    0.0000000    eV*rad^-3 
--------------------------------------------------------------------------------

********************************************************************************
*  Output for configuration   1 : c00091.vasp                                  *
********************************************************************************


  Components of energy : 

--------------------------------------------------------------------------------
  Interatomic potentials     =         400.32124075 eV    
  Three-body potentials      =           0.00006709 eV    
  Monopole - monopole (real) =       -1236.99964305 eV    
  Monopole - monopole (recip)=        -659.26603192 eV    
  Monopole - monopole (total)=       -1896.26567496 eV    
--------------------------------------------------------------------------------
  Total lattice energy       =       -1495.94436712 eV    
--------------------------------------------------------------------------------
  Total lattice energy       =         -144335.7638 kJ/(mole unit cells)
--------------------------------------------------------------------------------


  Number of variables =      183

  Maximum number of calculations  =          1000
  Maximum Hessian update interval =            10
  Maximum step size               =   0.100000000
  Maximum parameter tolerance     =   0.000010000
  Maximum function  tolerance     =   0.000010000
  Maximum gradient  tolerance     =   0.001000000
  Maximum gradient  component     =   0.010000000

  Symmetry not applied to optimisation

  Cell parameters to be optimised using strains

  Newton-Raphson optimiser to be used

  BFGS hessian update to be used

  Lower half triangular hessian to be used

  Minimiser to switch to RFO
  When gradient norm is less than     0.050000

  Dumpfile to be written after every cycle

  Start of bulk optimisation :

  Cycle:      0 Energy:     -1495.944367  Gnorm:      5.518924  CPU:    0.033
  ** Hessian calculated **
  Cycle:      1 Energy:     -1511.681041  Gnorm:      1.384534  CPU:    0.074
  ** Hessian calculated **
  Cycle:      2 Energy:     -1513.256559  Gnorm:      0.756700  CPU:    0.140
  Cycle:      3 Energy:     -1513.881286  Gnorm:      0.466217  CPU:    0.181
  Cycle:      4 Energy:     -1514.399886  Gnorm:      0.379418  CPU:    0.230
  Cycle:      5 Energy:     -1514.956119  Gnorm:      0.333759  CPU:    0.279
  Cycle:      6 Energy:     -1515.328888  Gnorm:      0.274399  CPU:    0.320
  Cycle:      7 Energy:     -1515.561708  Gnorm:      0.232942  CPU:    0.361
  Cycle:      8 Energy:     -1515.684572  Gnorm:      0.165358  CPU:    0.402
  Cycle:      9 Energy:     -1515.739393  Gnorm:      0.115471  CPU:    0.443
  Cycle:     10 Energy:     -1515.773788  Gnorm:      0.094759  CPU:    0.484
  Cycle:     11 Energy:     -1515.810197  Gnorm:      0.091623  CPU:    0.534
  ** Hessian calculated **
  Cycle:     12 Energy:     -1515.821216  Gnorm:      0.090339  CPU:    0.607
  Cycle:     13 Energy:     -1515.839461  Gnorm:      0.088095  CPU:    0.664
  Cycle:     14 Energy:     -1515.866537  Gnorm:      0.084311  CPU:    0.720
  Cycle:     15 Energy:     -1515.896066  Gnorm:      0.079074  CPU:    0.768
  Cycle:     16 Energy:     -1515.916505  Gnorm:      0.073939  CPU:    0.817
  ** Hessian calculated **
  Cycle:     17 Energy:     -1516.044112  Gnorm:      0.067284  CPU:    0.891
  Cycle:     18 Energy:     -1516.172421  Gnorm:      0.099300  CPU:    0.940
  Cycle:     19 Energy:     -1516.220284  Gnorm:      0.042301  CPU:    0.972
  ** Hessian has wrong structure
  ** Imaginary eigenvectors =   2
  Cycle:     20 Energy:     -1516.226227  Gnorm:      0.130136  CPU:    1.052
  ** Hessian has wrong structure
  ** Imaginary eigenvectors =   2
  ** Hessian has wrong structure
  ** Imaginary eigenvectors =   2
  Cycle:     21 Energy:     -1516.265653  Gnorm:      0.103095  CPU:    1.209
  ** Hessian has wrong structure
  ** Imaginary eigenvectors =   1
  ** Hessian has required structure
  Cycle:     22 Energy:     -1516.360825  Gnorm:      0.064166  CPU:    1.336
  ** Hessian has required structure
  Cycle:     23 Energy:     -1516.413215  Gnorm:      0.041156  CPU:    1.392
  ** Hessian has required structure
  Cycle:     24 Energy:     -1516.441182  Gnorm:      0.042025  CPU:    1.440
  ** Hessian has required structure
  Cycle:     25 Energy:     -1516.467857  Gnorm:      0.032866  CPU:    1.496
  ** Hessian has required structure
  Cycle:     26 Energy:     -1516.476749  Gnorm:      0.031741  CPU:    1.544
  ** Hessian has required structure
  Cycle:     27 Energy:     -1516.482027  Gnorm:      0.017901  CPU:    1.584
  ** Hessian has required structure
  Cycle:     28 Energy:     -1516.486054  Gnorm:      0.015295  CPU:    1.639
  ** Hessian has required structure
  Cycle:     29 Energy:     -1516.488272  Gnorm:      0.012473  CPU:    1.687
  ** Hessian has required structure
  Cycle:     30 Energy:     -1516.490222  Gnorm:      0.010980  CPU:    1.743
  ** Hessian has required structure
  Cycle:     31 Energy:     -1516.492127  Gnorm:      0.011306  CPU:    1.799
  ** Hessian has required structure
  Cycle:     32 Energy:     -1516.495167  Gnorm:      0.007861  CPU:    1.878
  ** Hessian has required structure
  Cycle:     33 Energy:     -1516.497191  Gnorm:      0.007100  CPU:    1.935
  ** Hessian has required structure
  Cycle:     34 Energy:     -1516.498787  Gnorm:      0.006774  CPU:    1.993
  ** Hessian has required structure
  Cycle:     35 Energy:     -1516.500358  Gnorm:      0.007564  CPU:    2.051
  ** Hessian has required structure
  Cycle:     36 Energy:     -1516.502463  Gnorm:      0.011224  CPU:    2.109
  ** Hessian has required structure
  Cycle:     37 Energy:     -1516.504728  Gnorm:      0.014366  CPU:    2.158
  ** Hessian has required structure
  Cycle:     38 Energy:     -1516.507373  Gnorm:      0.013942  CPU:    2.216
  ** Hessian has required structure
  Cycle:     39 Energy:     -1516.510328  Gnorm:      0.019124  CPU:    2.265
  ** Hessian has required structure
  Cycle:     40 Energy:     -1516.514631  Gnorm:      0.022714  CPU:    2.315
  ** Hessian has required structure
  Cycle:     41 Energy:     -1516.516616  Gnorm:      0.020809  CPU:    2.364
  ** Hessian has wrong structure
  ** Imaginary eigenvectors =   1
  Cycle:     42 Energy:     -1516.533947  Gnorm:      0.031432  CPU:    2.495
  ** Hessian has required structure
  Cycle:     43 Energy:     -1516.546744  Gnorm:      0.019333  CPU:    2.578
  ** Hessian has required structure
  Cycle:     44 Energy:     -1516.551645  Gnorm:      0.013031  CPU:    2.634
  ** Hessian has required structure
  Cycle:     45 Energy:     -1516.553886  Gnorm:      0.006697  CPU:    2.689
  ** Hessian has required structure
  Cycle:     46 Energy:     -1516.554724  Gnorm:      0.005065  CPU:    2.745
  ** Hessian has required structure
  Cycle:     47 Energy:     -1516.555002  Gnorm:      0.001681  CPU:    2.792
  ** Hessian has required structure
  Cycle:     48 Energy:     -1516.555102  Gnorm:      0.001454  CPU:    2.840
  ** Hessian has required structure
  Cycle:     49 Energy:     -1516.555134  Gnorm:      0.000623  CPU:    2.895
  ** Hessian has required structure
  Cycle:     50 Energy:     -1516.555140  Gnorm:      0.000423  CPU:    2.943
  ** Hessian has required structure
  Cycle:     51 Energy:     -1516.555142  Gnorm:      0.000271  CPU:    2.983
  ** Hessian has required structure
  Cycle:     52 Energy:     -1516.555143  Gnorm:      0.000208  CPU:    3.023
  ** Hessian has required structure
  Cycle:     53 Energy:     -1516.555143  Gnorm:      0.000146  CPU:    3.087
  ** Hessian has required structure


  **** Optimisation achieved ****


  Final energy =   -1516.55514346 eV      
  Final Gnorm  =       0.00010222

  Components of energy : 

--------------------------------------------------------------------------------
  Interatomic potentials     =         403.99722270 eV    
  Three-body potentials      =           0.09444819 eV    
  Monopole - monopole (real) =        -836.65818974 eV    
  Monopole - monopole (recip)=       -1083.98862461 eV    
  Monopole - monopole (total)=       -1920.64681435 eV    
--------------------------------------------------------------------------------
  Total lattice energy       =       -1516.55514346 eV    
--------------------------------------------------------------------------------
  Total lattice energy       =         -146324.3887 kJ/(mole unit cells)
--------------------------------------------------------------------------------

  Final fractional coordinates of atoms :

--------------------------------------------------------------------------------
   No.  Atomic        x           y          z          Radius
        Label       (Frac)      (Frac)     (Frac)       (Angs) 
--------------------------------------------------------------------------------
     1  Ge    c     0.313820    0.296860    0.309830    0.000000
     2  Ge    c     0.682894    0.218723    0.397012    0.000000
     3  Ge    c     0.919120    0.919874    0.349450    0.000000
     4  Ge    c     0.128039    0.972623    0.159671    0.000000
     5  Si    c     0.722580    0.225875    0.713880    0.000000
     6  Si    c     0.752829    0.627682    0.720834    0.000000
     7  Si    c     0.373981    0.688452    0.332444    0.000000
     8  Si    c     0.366513    0.277450    0.635683    0.000000
     9  Si    c     0.733974    0.615916    0.417629    0.000000
    10  Si    c     0.396436    0.671783    0.643455    0.000000
    11  Si    c     0.168556    0.971998    0.649807    0.000000
    12  Si    c     0.963549    0.931136    0.841453    0.000000
    13  O3    c     0.334912    0.245073    0.477538    0.000000
    14  O3    c     0.712057    0.159568    0.565451    0.000000
    15  O2    c     0.758110    0.678299    0.572124    0.000000
    16  O2    c     0.372466    0.714724    0.486380    0.000000
    17  O3    c     0.276003    0.518258    0.275127    0.000000
    18  O2    c     0.790640    0.420448    0.747567    0.000000
    19  O1    c     0.491547    0.236430    0.296345    0.000000
    20  O2    c     0.547968    0.228328    0.722627    0.000000
    21  O2    c     0.581453    0.675255    0.730240    0.000000
    22  O2    c     0.549910    0.651982    0.331480    0.000000
    23  O1    c     0.163914    0.187637    0.199885    0.000000
    24  O2    c     0.835293    0.089648    0.825505    0.000000
    25  O2    c     0.880227    0.744477    0.828502    0.000000
    26  O3    c     0.303210    0.859720    0.246292    0.000000
    27  O2    c     0.331210    0.481445    0.658420    0.000000
    28  O3    c     0.775017    0.414970    0.409776    0.000000
    29  O2    c     0.254735    0.156436    0.687892    0.000000
    30  O1    c     0.771421    0.071983    0.322613    0.000000
    31  O3    c     0.849249    0.717256    0.362107    0.000000
    32  O2    c     0.299217    0.814034    0.698362    0.000000
    33  O3    c     0.080159    0.969293    0.488428    0.000000
    34  O1    c     0.978261    0.907574    0.209448    0.000000
    35  O2    c     0.043828    0.954311    0.726363    0.000000
    36  O3    c     0.092628    0.938157    0.988173    0.000000
    37  O3    s     0.336461    0.252602    0.480326    0.000000
    38  O3    s     0.710840    0.170747    0.566980    0.000000
    39  O2    s     0.755015    0.666556    0.572129    0.000000
    40  O2    s     0.375299    0.707254    0.487468    0.000000
    41  O3    s     0.288300    0.517580    0.283286    0.000000
    42  O2    s     0.779727    0.422360    0.741342    0.000000
    43  O1    s     0.493194    0.239616    0.305343    0.000000
    44  O2    s     0.547445    0.233283    0.712733    0.000000
    45  O2    s     0.579747    0.669871    0.720139    0.000000
    46  O2    s     0.550458    0.652085    0.340510    0.000000
    47  O1    s     0.173057    0.180119    0.205579    0.000000
    48  O2    s     0.836481    0.087914    0.815383    0.000000
    49  O2    s     0.874954    0.750864    0.818197    0.000000
    50  O3    s     0.297119    0.850420    0.248765    0.000000
    51  O2    s     0.341646    0.480098    0.654547    0.000000
    52  O3    s     0.763437    0.420188    0.409559    0.000000
    53  O2    s     0.257649    0.150284    0.678526    0.000000
    54  O1    s     0.776231    0.071621    0.330885    0.000000
    55  O3    s     0.842709    0.723309    0.367055    0.000000
    56  O2    s     0.296326    0.814835    0.687310    0.000000
    57  O3    s     0.076003    0.965548    0.493418    0.000000
    58  O1    s     0.985770    0.913783    0.216199    0.000000
    59  O2    s     0.049114    0.953800    0.730217    0.000000
    60  O3    s     0.081761    0.940288    0.986741    0.000000
--------------------------------------------------------------------------------

  Final Cartesian lattice vectors (Angstroms) :

        9.068577    0.147635   -0.096387
        0.122443    7.670462    0.054502
       -3.395641    0.016508    9.801163


  Final cell parameters and derivatives :

--------------------------------------------------------------------------------
       a            9.070291 Angstrom     dE/de1(xx)     0.002088 eV/strain
       b            7.671633 Angstrom     dE/de2(yy)     0.003844 eV/strain
       c           10.372726 Angstrom     dE/de3(zz)     0.005250 eV/strain
       alpha       89.823574 Degrees      dE/de4(yz)    -0.000046 eV/strain
       beta       109.713426 Degrees      dE/de5(xz)     0.000006 eV/strain
       gamma       88.157262 Degrees      dE/de6(xy)    -0.000607 eV/strain
--------------------------------------------------------------------------------

  Primitive cell volume =           679.047293 Angs**3

  Density of cell =      2.198837 g/cm**3

  Non-primitive cell volume =           679.047293 Angs**3


  Final internal derivatives :

--------------------------------------------------------------------------------
   No.  Atomic          a             b             c           Radius
        Label          (eV)          (eV)          (eV)        (eV/Angs)
--------------------------------------------------------------------------------
      1 Ge    c       0.000000      0.000000      0.000000      0.000000
      2 Ge    c       0.001083     -0.000125     -0.000121      0.000000
      3 Ge    c      -0.000064     -0.000168     -0.000211      0.000000
      4 Ge    c      -0.002639      0.001025      0.004403      0.000000
      5 Si    c       0.000347     -0.000209     -0.000057      0.000000
      6 Si    c       0.000334     -0.000097     -0.000523      0.000000
      7 Si    c       0.002161     -0.003815     -0.000415      0.000000
      8 Si    c      -0.000774     -0.002032      0.002780      0.000000
      9 Si    c      -0.000564      0.000632      0.000265      0.000000
     10 Si    c       0.000148     -0.000314      0.000530      0.000000
     11 Si    c       0.000038      0.000239     -0.000114      0.000000
     12 Si    c      -0.000176      0.000009     -0.001805      0.000000
     13 O3    c      -0.001467     -0.000815     -0.002938      0.000000
     14 O3    c      -0.000061      0.000267     -0.000032      0.000000
     15 O2    c      -0.000250      0.000094      0.000623      0.000000
     16 O2    c      -0.001416      0.000438      0.003720      0.000000
     17 O3    c      -0.001668     -0.000819     -0.000510      0.000000
     18 O2    c       0.000048      0.000354      0.000165      0.000000
     19 O1    c      -0.001508     -0.000019     -0.000480      0.000000
     20 O2    c       0.001884     -0.000082      0.000543      0.000000
     21 O2    c      -0.000680      0.000057      0.000349      0.000000
     22 O2    c       0.000310      0.000115     -0.000232      0.000000
     23 O1    c       0.000364      0.000880     -0.000123      0.000000
     24 O2    c      -0.000003      0.000197     -0.000197      0.000000
     25 O2    c       0.000051     -0.000016      0.000035      0.000000
     26 O3    c       0.000492      0.007077     -0.002366      0.000000
     27 O2    c      -0.000933      0.003763      0.001841      0.000000
     28 O3    c      -0.000004     -0.001114     -0.000201      0.000000
     29 O2    c       0.000260      0.000274     -0.000366      0.000000
     30 O1    c       0.000132     -0.000154      0.000010      0.000000
     31 O3    c       0.000083      0.000044     -0.000181      0.000000
     32 O2    c      -0.000158      0.000075      0.000089      0.000000
     33 O3    c      -0.000037     -0.000029      0.000205      0.000000
     34 O1    c       0.000721     -0.000096     -0.000743      0.000000
     35 O2    c       0.000164      0.000019     -0.000134      0.000000
     36 O3    c       0.002033     -0.001801     -0.007570      0.000000
     37 O3    s       0.000418     -0.000224     -0.000656      0.000000
     38 O3    s      -0.000658     -0.000131     -0.000210      0.000000
     39 O2    s       0.000348     -0.000146      0.000179      0.000000
     40 O2    s      -0.000343      0.000769      0.002156      0.000000
     41 O3    s       0.000842     -0.002011     -0.002182      0.000000
     42 O2    s       0.000386     -0.000263     -0.000251      0.000000
     43 O1    s       0.001445      0.000063      0.000289      0.000000
     44 O2    s       0.001337     -0.001685     -0.000002      0.000000
     45 O2    s       0.000283      0.000426      0.000324      0.000000
     46 O2    s       0.001956     -0.000546     -0.001685      0.000000
     47 O1    s      -0.000483      0.000432      0.000156      0.000000
     48 O2    s      -0.000078     -0.000306     -0.000059      0.000000
     49 O2    s       0.000180      0.000147      0.000131      0.000000
     50 O3    s       0.000550     -0.001060      0.000306      0.000000
     51 O2    s      -0.001593      0.000021      0.001843      0.000000
     52 O3    s       0.000021     -0.000041      0.000134      0.000000
     53 O2    s      -0.000919     -0.001007      0.001179      0.000000
     54 O1    s       0.000092      0.000200      0.000440      0.000000
     55 O3    s       0.000280      0.000357      0.000016      0.000000
     56 O2    s      -0.000039      0.000129      0.000300      0.000000
     57 O3    s      -0.000131     -0.000023     -0.000327      0.000000
     58 O1    s      -0.001487      0.000250      0.001511      0.000000
     59 O2    s      -0.000081     -0.000051      0.000180      0.000000
     60 O3    s      -0.001144      0.000734      0.002499      0.000000
--------------------------------------------------------------------------------
  Maximum abs         0.002639      0.007077      0.007570      0.000000
--------------------------------------------------------------------------------


  Born effective charge tensors : 

-------------------------------------------------------------------------------
  Atom             x           y             z
-------------------------------------------------------------------------------
    1 Ge    x       3.8331      0.2384      0.1678
            y       0.3062      4.2120      0.3369
            z       0.3916      0.2066      3.6641
-------------------------------------------------------------------------------
    2 Ge    x       4.0029     -0.4563      0.0271
            y      -0.1974      4.1576      0.3328
            z       0.0143      0.0302      3.4476
-------------------------------------------------------------------------------
    3 Ge    x       4.5361      0.1304     -0.2509
            y      -0.1675      3.9248     -0.1116
            z      -0.2947      0.0756      3.7880
-------------------------------------------------------------------------------
    4 Ge    x       3.8807      0.3839      0.2306
            y      -0.1998      3.9228     -0.0632
            z      -0.1371      0.1944      4.8369
-------------------------------------------------------------------------------
    5 Si    x       3.1995     -0.3727      0.1078
            y      -0.1448      3.5685     -0.1249
            z       0.1623     -0.0115      3.0486
-------------------------------------------------------------------------------
    6 Si    x       3.1397      0.2368      0.1257
            y       0.2235      3.4454      0.2754
            z       0.2084      0.0987      2.7666
-------------------------------------------------------------------------------
    7 Si    x       3.1800     -0.3429      0.1768
            y       0.0808      3.9094     -0.1809
            z       0.2271     -0.3668      3.1340
-------------------------------------------------------------------------------
    8 Si    x       3.3203      0.2852      0.0225
            y       0.3270      3.5239     -0.0386
            z      -0.0257      0.0552      2.9584
-------------------------------------------------------------------------------
    9 Si    x       3.6529      0.3093     -0.1390
            y       0.3496      3.7869     -0.1851
            z      -0.1815      0.0151      2.7974
-------------------------------------------------------------------------------
   10 Si    x       3.2841     -0.3281      0.0254
            y      -0.1733      3.3878      0.0631
            z      -0.0033     -0.0449      2.6305
-------------------------------------------------------------------------------
   11 Si    x       3.7702      0.1216      0.2365
            y      -0.0526      3.3436      0.0213
            z      -0.3659     -0.0177      3.1199
-------------------------------------------------------------------------------
   12 Si    x       3.3858      0.1717     -0.0963
            y      -0.0439      3.3206     -0.0002
            z       0.6126      0.0860      4.1338
-------------------------------------------------------------------------------
   13 O3    x      -1.3488     -0.1208      0.2900
            y      -0.1095     -1.4302     -0.0264
            z       0.2527      0.0117     -2.5921
-------------------------------------------------------------------------------
   14 O3    x      -1.3769      0.1566      0.3459
            y       0.0826     -1.4927     -0.0587
            z       0.2790     -0.0646     -2.4720
-------------------------------------------------------------------------------
   15 O2    x      -1.2710     -0.1084      0.2414
            y      -0.1019     -1.2851     -0.0326
            z       0.2303     -0.0560     -1.9376
-------------------------------------------------------------------------------
   16 O2    x      -1.2801      0.1114      0.2553
            y       0.0474     -1.2545      0.0464
            z       0.2838      0.0720     -1.9991
-------------------------------------------------------------------------------
   17 O3    x      -1.3691     -0.2553     -0.1463
            y      -0.3422     -2.8862     -0.1766
            z      -0.2008     -0.1827     -1.3296
-------------------------------------------------------------------------------
   18 O2    x      -1.1702     -0.0772     -0.0683
            y      -0.1386     -2.5794     -0.0189
            z      -0.0945      0.0226     -1.0671
-------------------------------------------------------------------------------
   19 O1    x      -2.8839      0.2809     -0.4335
            y       0.2015     -1.4900     -0.0527
            z      -0.4056      0.0104     -1.4871
-------------------------------------------------------------------------------
   20 O2    x      -2.3010      0.1210     -0.3048
            y       0.0558     -1.2673      0.0803
            z      -0.3024      0.0638     -1.1288
-------------------------------------------------------------------------------
   21 O2    x      -2.3040      0.1218     -0.2950
            y       0.0771     -1.2309     -0.0508
            z      -0.3227     -0.0040     -1.1483
-------------------------------------------------------------------------------
   22 O2    x      -2.2327      0.1771     -0.2694
            y       0.1081     -1.2542      0.0722
            z      -0.3100      0.0775     -1.2102
-------------------------------------------------------------------------------
   23 O1    x      -1.6605     -0.6654     -0.4930
            y      -0.5561     -2.6873     -0.7248
            z      -0.4974     -0.7591     -1.9656
-------------------------------------------------------------------------------
   24 O2    x      -1.5710      0.6165     -0.2557
            y       0.6282     -1.9638      0.4099
            z      -0.3633      0.4106     -1.4635
-------------------------------------------------------------------------------
   25 O2    x      -1.4942     -0.6404     -0.2743
            y      -0.5853     -2.0404     -0.4159
            z      -0.3836     -0.4448     -1.4628
-------------------------------------------------------------------------------
   26 O3    x      -1.6798      0.6274     -0.5318
            y       0.6260     -2.3198      0.7830
            z      -0.5369      0.8110     -1.9146
-------------------------------------------------------------------------------
   27 O2    x      -1.2648     -0.0756      0.0107
            y      -0.1383     -2.4982     -0.0082
            z       0.0407     -0.0069     -0.9918
-------------------------------------------------------------------------------
   28 O3    x      -1.4237     -0.0113      0.0035
            y      -0.1026     -3.0340     -0.1284
            z       0.0365     -0.0626     -1.1176
-------------------------------------------------------------------------------
   29 O2    x      -1.8213     -0.7767      0.0500
            y      -0.7155     -2.0742      0.0396
            z       0.1486      0.0431     -1.0616
-------------------------------------------------------------------------------
   30 O1    x      -2.4187      1.0400      0.2573
            y       1.0772     -2.4368     -0.2592
            z       0.2344     -0.2068     -1.3888
-------------------------------------------------------------------------------
   31 O3    x      -2.3039     -0.9949      0.3749
            y      -0.9423     -2.2747      0.3296
            z       0.3646      0.2572     -1.2692
-------------------------------------------------------------------------------
   32 O2    x      -1.8707      0.7760      0.0542
            y       0.7573     -1.9665     -0.0669
            z       0.1518     -0.0773     -1.0778
-------------------------------------------------------------------------------
   33 O3    x      -1.7817     -0.1473     -0.6950
            y      -0.0579     -1.3122     -0.1620
            z      -0.4037     -0.1659     -2.5164
-------------------------------------------------------------------------------
   34 O1    x      -2.6975     -0.2895      0.9246
            y      -0.1565     -1.3423      0.1233
            z       0.9754      0.0957     -2.3122
-------------------------------------------------------------------------------
   35 O2    x      -2.3012     -0.1713      0.7163
            y      -0.0604     -1.1566      0.0637
            z       0.7004      0.0924     -1.6290
-------------------------------------------------------------------------------
   36 O3    x      -1.3587     -0.0721     -0.3906
            y       0.0379     -1.2258     -0.0910
            z      -0.4856     -0.2580     -3.7830
-------------------------------------------------------------------------------




  Elastic Constant Matrix: (Units=GPa)

-------------------------------------------------------------------------------
  Indices      1         2         3         4         5         6    
-------------------------------------------------------------------------------
       1     44.2014   21.7835    7.1857   -0.8416   -0.6896   12.8293
       2     21.7835   70.9878   11.0352    2.4146    3.4713   17.6188
       3      7.1857   11.0352   25.4482    3.2029    5.1952    4.5365
       4     -0.8416    2.4146    3.2029    9.8683    1.9232    4.6116
       5     -0.6896    3.4713    5.1952    1.9232    9.8866    2.0604
       6     12.8293   17.6188    4.5365    4.6116    2.0604   27.2208
-------------------------------------------------------------------------------


  Elastic Compliance Matrix: (Units=1/GPa)

-------------------------------------------------------------------------------
  Indices      1         2         3         4         5         6    
-------------------------------------------------------------------------------
       1    0.030451 -0.006162 -0.006836  0.010106  0.008324 -0.011567
       2   -0.006162  0.018897 -0.004406  0.000867 -0.003146 -0.008502
       3   -0.006836 -0.004406  0.048960 -0.011726 -0.022714  0.001620
       4    0.010106  0.000867 -0.011726  0.118642 -0.011811 -0.022576
       5    0.008324 -0.003146 -0.022714 -0.011811  0.118116 -0.005041
       6   -0.011567 -0.008502  0.001620 -0.022576 -0.005041  0.051627
-------------------------------------------------------------------------------

  Mechanical properties :

-------------------------------------------------------------------------------
  Convention :                    Reuss         Voigt         Hill
-------------------------------------------------------------------------------
  Bulk  Modulus (GPa)     =      15.74759      24.51626      20.13192
  Shear Modulus (GPa)     =      11.29517      16.10400      13.69958
-------------------------------------------------------------------------------
  Velocity S-wave (km/s)  =       2.26647       2.70627       2.49607
  Velocity P-wave (km/s)  =       3.74312       4.57327       4.17886
-------------------------------------------------------------------------------
  Compressibility (1/GPa) =    0.06350177
-------------------------------------------------------------------------------
  Stress axis :                     x             y             z
-------------------------------------------------------------------------------
  Youngs Moduli (GPa)     =      32.83957      52.91825      20.42468
-------------------------------------------------------------------------------
  Poissons Ratio (x)      =                     0.32607       0.13962
  Poissons Ratio (y)      =       0.20235                     0.08999
  Poissons Ratio (z)      =       0.22449       0.23315
-------------------------------------------------------------------------------


  Piezoelectric Strain Matrix: (Units=C/m**2)

-------------------------------------------------------------------------------
  Indices      1         2         3         4         5         6    
-------------------------------------------------------------------------------
       x    -0.83691   0.52684   1.58533   0.37031   0.41577   0.26899
       y    -0.18288   1.42828   0.03028   0.62967  -0.31947   0.38727
       z     0.23569   0.90877   0.28591  -0.17487   0.99310   0.40720
-------------------------------------------------------------------------------


  Piezoelectric Stress Matrix: (Units=10**-11 C/N)

-------------------------------------------------------------------------------
  Indices      1         2         3         4         5         6    
-------------------------------------------------------------------------------
       x    -3.54761   0.48538   6.76677   0.63594  -0.12540   1.12005
       y    -1.53515   2.62422  -0.30596   6.87698  -5.38278  -0.25894
       z     0.14123   0.77231  -1.14639  -4.18517  10.99217   0.99751
-------------------------------------------------------------------------------


  Static dielectric constant tensor : 

-------------------------------------------------------------------------------
              x         y         z
-------------------------------------------------------------------------------
       x     4.71446   0.21308   0.14052
       y     0.21308   4.91175   0.09022
       z     0.14052   0.09022   3.72886
--------------------------------------------------------------------------------

  High frequency dielectric constant tensor : 

-------------------------------------------------------------------------------
              x         y         z
-------------------------------------------------------------------------------
       x     1.63419   0.00445   0.00820
       y     0.00445   1.64974   0.00063
       z     0.00820   0.00063   1.58373
-------------------------------------------------------------------------------

  Static refractive indices : 

-------------------------------------------------------------------------------
    1 =    1.92513      2 =    2.14096      3 =    2.25061
-------------------------------------------------------------------------------

  High frequency refractive indices : 

-------------------------------------------------------------------------------
    1 =    1.25795      2 =    1.27835      3 =    1.28493
-------------------------------------------------------------------------------


  Time to end of optimisation =       3.1779 seconds


  Peak dynamic memory used =       2.76 MB 


  Timing analysis for GULP :

--------------------------------------------------------------------------------
  Task / Subroutine                                          Time (Seconds)
--------------------------------------------------------------------------------
  Calculation of reciprocal space energy and derivatives          0.2037
  Calculation of real space energy and derivatives                2.5479
  Calculation of three-body energy and derivatives                0.1263
  Calculation and manipulation of Hessian matrix                  0.4462
  Calculation of matrix inversion                                 0.0032
  Global summation overhead                                       0.0001
--------------------------------------------------------------------------------
  Total CPU time                                                  3.1779
--------------------------------------------------------------------------------


  Dump file written as c00091.vasp.grs
  CIF file written as c00091.vasp.cif


  Job Finished at 22:41.39  6th October    2025                               

