********************************************************************************
*                       GENERAL UTILITY LATTICE PROGRAM                        *
*                                 Julian Gale                                  *
*                       Curtin Institute for Computation                       *
*                    School of Molecular and Life Sciences                     *
*                    Curtin University, Western Australia                      *
********************************************************************************
* Version = 6.1.2 * Last modified =   3rd November 2022                        *
********************************************************************************
*  optimise     - perform optimisation run                                     *
*  conp         - constant pressure calculation                                *
*  property     - calculate properties for final geometry                      *
********************************************************************************

  Job Started  at 22:41.08  6th October    2025                               

  Number of CPUs =     1


  Total number of configurations input =      1

********************************************************************************
*  Input for Configuration =   1 : c00082.vasp                                 *
********************************************************************************

  Formula = Ge4Si8O24                                                   

  Number of irreducible atoms/shells =      60


  Total number atoms/shells =      60

  Dimensionality = 3               :  Bulk   



  Cartesian lattice vectors (Angstroms) :

        9.086940    0.000000    0.000000
        0.000000    7.554810    0.000000
       -3.295144    0.000000    9.944380

  Cell parameters (Angstroms/Degrees):

  a =       9.0869    alpha =  90.0000
  b =       7.5548    beta  = 108.3330
  c =      10.4761    gamma =  90.0000

  Initial cell volume =         682.682735 Angs**3

  Temperature of configuration =   0.00     K 

  Pressure of configuration =         0.000 GPa 

  Fractional coordinates of asymmetric unit :

--------------------------------------------------------------------------------
   No.  Atomic       x           y          z         Charge      Occupancy
        Label      (Frac)      (Frac)     (Frac)        (e)         (Frac)  
--------------------------------------------------------------------------------
      1 Ge    c    0.313820    0.296860    0.309830     4.00000    1.000000    
      2 Ge    c    0.668950 *  0.296920 *  0.392620 *   4.00000    1.000000    
      3 Ge    c    0.668950 *  0.703080 *  0.392620 *   4.00000    1.000000    
      4 Ge    c    0.879680 *  0.000000 *  0.350160 *   4.00000    1.000000    
      5 Si    c    0.686180 *  0.296860 *  0.690170 *   4.00000    1.000000    
      6 Si    c    0.686180 *  0.703140 *  0.690170 *   4.00000    1.000000    
      7 Si    c    0.313820 *  0.703140 *  0.309830 *   4.00000    1.000000    
      8 Si    c    0.331050 *  0.296920 *  0.607380 *   4.00000    1.000000    
      9 Si    c    0.331050 *  0.703080 *  0.607380 *   4.00000    1.000000    
     10 Si    c    0.120320 *  0.000000 *  0.649840 *   4.00000    1.000000    
     11 Si    c    0.093070 *  0.000000 *  0.158230 *   4.00000    1.000000    
     12 Si    c    0.906930 *  0.000000 *  0.841770 *   4.00000    1.000000    
     13 O3    c    0.268740 *  0.279030 *  0.446100 *   1.33043    1.000000    
     14 O3    c    0.731260 *  0.279030 *  0.553900 *   1.33043    1.000000    
     15 O3    c    0.731260 *  0.720970 *  0.553900 *   1.33043    1.000000    
     16 O2    c    0.268740 *  0.720970 *  0.446100 *   0.87073    1.000000    
     17 O3    c    0.295480 *  0.500000 *  0.260860 *   1.33043    1.000000    
     18 O2    c    0.704520 *  0.500000 *  0.739140 *   0.87073    1.000000    
     19 O1    c    0.490600 *  0.234690 *  0.337530 *   1.73396    1.000000    
     20 O2    c    0.509400 *  0.234690 *  0.662470 *   0.87073    1.000000    
     21 O2    c    0.509400 *  0.765310 *  0.662470 *   0.87073    1.000000    
     22 O3    c    0.490600 *  0.765310 *  0.337530 *   1.33043    1.000000    
     23 O3    c    0.200440 *  0.174000 *  0.194980 *   1.33043    1.000000    
     24 O2    c    0.799560 *  0.174000 *  0.805020 *   0.87073    1.000000    
     25 O2    c    0.799560 *  0.826000 *  0.805020 *   0.87073    1.000000    
     26 O2    c    0.200440 *  0.826000 *  0.194980 *   0.87073    1.000000    
     27 O2    c    0.317860 *  0.500000 *  0.649090 *   0.87073    1.000000    
     28 O1    c    0.682140 *  0.500000 *  0.350910 *   1.73396    1.000000    
     29 O2    c    0.227920 *  0.173870 *  0.671620 *   0.87073    1.000000    
     30 O1    c    0.772080 *  0.173870 *  0.328380 *   1.73396    1.000000    
     31 O1    c    0.772080 *  0.826130 *  0.328380 *   1.73396    1.000000    
     32 O2    c    0.227920 *  0.826130 *  0.671620 *   0.87073    1.000000    
     33 O3    c    0.000000 *  0.000000 *  0.500000 *   1.33043    1.000000    
     34 O3    c    0.971960 *  0.000000 *  0.241930 *   1.33043    1.000000    
     35 O2    c    0.028040 *  0.000000 *  0.758070 *   0.87073    1.000000    
     36 O2    c    0.000000 *  0.000000 *  0.000000 *   0.87073    1.000000    
     37 O3    s    0.268740 *  0.279030 *  0.446100 *  -3.33043    1.000000    
     38 O3    s    0.731260 *  0.279030 *  0.553900 *  -3.33043    1.000000    
     39 O3    s    0.731260 *  0.720970 *  0.553900 *  -3.33043    1.000000    
     40 O2    s    0.268740 *  0.720970 *  0.446100 *  -2.87073    1.000000    
     41 O3    s    0.295480 *  0.500000 *  0.260860 *  -3.33043    1.000000    
     42 O2    s    0.704520 *  0.500000 *  0.739140 *  -2.87073    1.000000    
     43 O1    s    0.490600 *  0.234690 *  0.337530 *  -3.73396    1.000000    
     44 O2    s    0.509400 *  0.234690 *  0.662470 *  -2.87073    1.000000    
     45 O2    s    0.509400 *  0.765310 *  0.662470 *  -2.87073    1.000000    
     46 O3    s    0.490600 *  0.765310 *  0.337530 *  -3.33043    1.000000    
     47 O3    s    0.200440 *  0.174000 *  0.194980 *  -3.33043    1.000000    
     48 O2    s    0.799560 *  0.174000 *  0.805020 *  -2.87073    1.000000    
     49 O2    s    0.799560 *  0.826000 *  0.805020 *  -2.87073    1.000000    
     50 O2    s    0.200440 *  0.826000 *  0.194980 *  -2.87073    1.000000    
     51 O2    s    0.317860 *  0.500000 *  0.649090 *  -2.87073    1.000000    
     52 O1    s    0.682140 *  0.500000 *  0.350910 *  -3.73396    1.000000    
     53 O2    s    0.227920 *  0.173870 *  0.671620 *  -2.87073    1.000000    
     54 O1    s    0.772080 *  0.173870 *  0.328380 *  -3.73396    1.000000    
     55 O1    s    0.772080 *  0.826130 *  0.328380 *  -3.73396    1.000000    
     56 O2    s    0.227920 *  0.826130 *  0.671620 *  -2.87073    1.000000    
     57 O3    s    0.000000 *  0.000000 *  0.500000 *  -3.33043    1.000000    
     58 O3    s    0.971960 *  0.000000 *  0.241930 *  -3.33043    1.000000    
     59 O2    s    0.028040 *  0.000000 *  0.758070 *  -2.87073    1.000000    
     60 O2    s    0.000000 *  0.000000 *  0.000000 *  -2.87073    1.000000    
--------------------------------------------------------------------------------



********************************************************************************
*  General input information                                                   *
********************************************************************************

  Species output for all configurations : 

--------------------------------------------------------------------------------
  Species    Type    Atomic    Atomic    Charge       Radii (Angs)     Library
                     Number     Mass       (e)     Cova   Ionic  VDW   Symbol
--------------------------------------------------------------------------------
    Ge       Core       32      72.61   4.000000   1.170  0.000  1.750 Ge       
    Si       Core       14      28.09   4.000000   1.200  0.000  2.100 Si       
    O1       Core        8      16.00   1.733957   0.730  0.000  1.360 O1       
    O2       Core        8      16.00   0.870733   0.730  0.000  1.360 O2       
    O3       Core        8      16.00   1.330431   0.730  0.000  1.360 O3       
    O1       Shell       8       0.00  -3.733957   0.730  0.000  0.000 O1       
    O2       Shell       8       0.00  -2.870733   0.730  0.000  0.000 O2       
    O3       Shell       8       0.00  -3.330431   0.730  0.000  0.000 O3       
--------------------------------------------------------------------------------


  Lattice summation method               =    Ewald          (3-D)
                                         =    Parry          (2-D)
                                         =    Saunders et al (1-D)
  Accuracy factor for lattice sums       =   12.000


  Analytic derivatives to be used

  Time limit = Infinity

  Maximum range for interatomic potentials =    100000.000000 Angstroms

  General interatomic potentials :

--------------------------------------------------------------------------------
Atom  Types   Potential      Parameter       Value         Units   Cutoffs(Ang)
  1     2                                                            Min /  Max 
--------------------------------------------------------------------------------
Si   c O1   s Buckingham    Buckingham A     1315.2478    eV        0.000 16.000
                            Buckingham rho  0.31775900    Ang       
                            Buckingham C     10.141118    eV*Ang^6  
--------------------------------------------------------------------------------
Si   c O2   s Buckingham    Buckingham A     1315.2478    eV        0.000 16.000
                            Buckingham rho  0.31775900    Ang       
                            Buckingham C     10.141118    eV*Ang^6  
--------------------------------------------------------------------------------
Si   c O3   s Buckingham    Buckingham A     1315.2478    eV        0.000 16.000
                            Buckingham rho  0.31775900    Ang       
                            Buckingham C     10.141118    eV*Ang^6  
--------------------------------------------------------------------------------
Ge   c O1   s Buckingham    Buckingham A     1497.3996    eV        0.000 16.000
                            Buckingham rho  0.32564600    Ang       
                            Buckingham C     16.808599    eV*Ang^6  
--------------------------------------------------------------------------------
Ge   c O2   s Buckingham    Buckingham A     1497.3996    eV        0.000 16.000
                            Buckingham rho  0.32564600    Ang       
                            Buckingham C     16.808599    eV*Ang^6  
--------------------------------------------------------------------------------
Ge   c O3   s Buckingham    Buckingham A     1497.3996    eV        0.000 16.000
                            Buckingham rho  0.32564600    Ang       
                            Buckingham C     16.808599    eV*Ang^6  
--------------------------------------------------------------------------------
O1   s O1   s Buckingham    Buckingham A     22764.000    eV        0.000 16.000
                            Buckingham rho  0.14900000    Ang       
                            Buckingham C     10.937044    eV*Ang^6  
--------------------------------------------------------------------------------
O1   s O2   s Buckingham    Buckingham A     22764.000    eV        0.000 16.000
                            Buckingham rho  0.14900000    Ang       
                            Buckingham C     10.937044    eV*Ang^6  
--------------------------------------------------------------------------------
O1   s O3   s Buckingham    Buckingham A     22764.000    eV        0.000 16.000
                            Buckingham rho  0.14900000    Ang       
                            Buckingham C     10.937044    eV*Ang^6  
--------------------------------------------------------------------------------
O2   s O2   s Buckingham    Buckingham A     22764.000    eV        0.000 16.000
                            Buckingham rho  0.14900000    Ang       
                            Buckingham C     10.937044    eV*Ang^6  
--------------------------------------------------------------------------------
O2   s O3   s Buckingham    Buckingham A     22764.000    eV        0.000 16.000
                            Buckingham rho  0.14900000    Ang       
                            Buckingham C     10.937044    eV*Ang^6  
--------------------------------------------------------------------------------
O3   s O3   s Buckingham    Buckingham A     22764.000    eV        0.000 16.000
                            Buckingham rho  0.14900000    Ang       
                            Buckingham C     10.937044    eV*Ang^6  
--------------------------------------------------------------------------------
O1   c O1   s Spring (c-s)  Spring k 2       180.31577    eV*Ang^-2 0.000  0.800
                            Spring k 4       0.0000000    eV*Ang^-4 
--------------------------------------------------------------------------------
O2   c O2   s Spring (c-s)  Spring k 2       75.969800    eV*Ang^-2 0.000  0.800
                            Spring k 4       0.0000000    eV*Ang^-4 
--------------------------------------------------------------------------------
O3   c O3   s Spring (c-s)  Spring k 2       128.14270    eV*Ang^-2 0.000  0.800
                            Spring k 4       0.0000000    eV*Ang^-4 
--------------------------------------------------------------------------------

  General Three-body potentials :

--------------------------------------------------------------------------------
  Atoms       Potential      Parameter       Value         Units   Cutoffs(Ang)
  1 / 2 / 3                                                          Min /  Max 
--------------------------------------------------------------------------------
Si    core    Harmonic      Three-body cnst  1.2614000    eV*rad^-2 0.000  1.900
O1    shel                  Three-body angl  109.47000    degrees   0.000  1.900
O1    shel                  Three-body k4    0.0000000    eV*rad^-4 0.000  3.500
                            Three-body k3    0.0000000    eV*rad^-3 
--------------------------------------------------------------------------------
Si    core    Harmonic      Three-body cnst  1.2614000    eV*rad^-2 0.000  1.900
O1    shel                  Three-body angl  109.47000    degrees   0.000  1.900
õ(1   shel                  Three-body k4    0.0000000    eV*rad^-4 0.000  3.500
                            Three-body k3    0.0000000    eV*rad^-3 
--------------------------------------------------------------------------------
Si    core    Harmonic      Three-body cnst  1.2614000    eV*rad^-2 0.000  1.900
õ(1   shel                  Three-body angl  109.47000    degrees   0.000  1.900
õ(1   shel                  Three-body k4    0.0000000    eV*rad^-4 0.000  3.500
                            Three-body k3    0.0000000    eV*rad^-3 
--------------------------------------------------------------------------------
Si    core    Harmonic      Three-body cnst  1.2614000    eV*rad^-2 0.000  1.900
O1    shel                  Three-body angl  109.47000    degrees   0.000  1.900
O2    shel                  Three-body k4    0.0000000    eV*rad^-4 0.000  3.500
                            Three-body k3    0.0000000    eV*rad^-3 
--------------------------------------------------------------------------------
Si    core    Harmonic      Three-body cnst  1.2614000    eV*rad^-2 0.000  1.900
O1    shel                  Three-body angl  109.47000    degrees   0.000  1.900
õ(2   shel                  Three-body k4    0.0000000    eV*rad^-4 0.000  3.500
                            Three-body k3    0.0000000    eV*rad^-3 
--------------------------------------------------------------------------------
Si    core    Harmonic      Three-body cnst  1.2614000    eV*rad^-2 0.000  1.900
O2    shel                  Three-body angl  109.47000    degrees   0.000  1.900
õ(1   shel                  Three-body k4    0.0000000    eV*rad^-4 0.000  3.500
                            Three-body k3    0.0000000    eV*rad^-3 
--------------------------------------------------------------------------------
Si    core    Harmonic      Three-body cnst  1.2614000    eV*rad^-2 0.000  1.900
õ(1   shel                  Three-body angl  109.47000    degrees   0.000  1.900
õ(2   shel                  Three-body k4    0.0000000    eV*rad^-4 0.000  3.500
                            Three-body k3    0.0000000    eV*rad^-3 
--------------------------------------------------------------------------------
Si    core    Harmonic      Three-body cnst  1.2614000    eV*rad^-2 0.000  1.900
O2    shel                  Three-body angl  109.47000    degrees   0.000  1.900
O2    shel                  Three-body k4    0.0000000    eV*rad^-4 0.000  3.500
                            Three-body k3    0.0000000    eV*rad^-3 
--------------------------------------------------------------------------------
Si    core    Harmonic      Three-body cnst  1.2614000    eV*rad^-2 0.000  1.900
O2    shel                  Three-body angl  109.47000    degrees   0.000  1.900
õ(2   shel                  Three-body k4    0.0000000    eV*rad^-4 0.000  3.500
                            Three-body k3    0.0000000    eV*rad^-3 
--------------------------------------------------------------------------------
Si    core    Harmonic      Three-body cnst  1.2614000    eV*rad^-2 0.000  1.900
õ(2   shel                  Three-body angl  109.47000    degrees   0.000  1.900
õ(2   shel                  Three-body k4    0.0000000    eV*rad^-4 0.000  3.500
                            Three-body k3    0.0000000    eV*rad^-3 
--------------------------------------------------------------------------------

********************************************************************************
*  Output for configuration   1 : c00082.vasp                                  *
********************************************************************************


  Components of energy : 

--------------------------------------------------------------------------------
  Interatomic potentials     =         400.30463393 eV    
  Three-body potentials      =           0.00009805 eV    
  Monopole - monopole (real) =       -1236.99964305 eV    
  Monopole - monopole (recip)=        -659.26603192 eV    
  Monopole - monopole (total)=       -1896.26567496 eV    
--------------------------------------------------------------------------------
  Total lattice energy       =       -1495.96094299 eV    
--------------------------------------------------------------------------------
  Total lattice energy       =         -144337.3631 kJ/(mole unit cells)
--------------------------------------------------------------------------------


  Number of variables =      183

  Maximum number of calculations  =          1000
  Maximum Hessian update interval =            10
  Maximum step size               =   0.100000000
  Maximum parameter tolerance     =   0.000010000
  Maximum function  tolerance     =   0.000010000
  Maximum gradient  tolerance     =   0.001000000
  Maximum gradient  component     =   0.010000000

  Symmetry not applied to optimisation

  Cell parameters to be optimised using strains

  Newton-Raphson optimiser to be used

  BFGS hessian update to be used

  Lower half triangular hessian to be used

  Minimiser to switch to RFO
  When gradient norm is less than     0.050000

  Dumpfile to be written after every cycle

  Start of bulk optimisation :

  Cycle:      0 Energy:     -1495.960943  Gnorm:      5.659040  CPU:    0.031
  ** Hessian calculated **
  Cycle:      1 Energy:     -1511.774623  Gnorm:      1.415140  CPU:    0.069
  ** Hessian calculated **
  Cycle:      2 Energy:     -1513.368254  Gnorm:      0.782730  CPU:    0.129
  Cycle:      3 Energy:     -1514.026826  Gnorm:      0.497691  CPU:    0.166
  Cycle:      4 Energy:     -1514.554610  Gnorm:      0.390926  CPU:    0.210
  Cycle:      5 Energy:     -1515.070939  Gnorm:      0.336579  CPU:    0.252
  Cycle:      6 Energy:     -1515.393995  Gnorm:      0.262449  CPU:    0.292
  Cycle:      7 Energy:     -1515.601135  Gnorm:      0.234110  CPU:    0.333
  Cycle:      8 Energy:     -1515.709686  Gnorm:      0.151233  CPU:    0.375
  Cycle:      9 Energy:     -1515.756610  Gnorm:      0.103931  CPU:    0.417
  Cycle:     10 Energy:     -1515.785355  Gnorm:      0.081408  CPU:    0.458
  Cycle:     11 Energy:     -1515.812239  Gnorm:      0.073403  CPU:    0.508
  ** Hessian calculated **
  Cycle:     12 Energy:     -1515.824138  Gnorm:      0.072276  CPU:    0.583
  Cycle:     13 Energy:     -1515.848846  Gnorm:      0.069512  CPU:    0.640
  Cycle:     14 Energy:     -1515.879412  Gnorm:      0.065332  CPU:    0.698
  Cycle:     15 Energy:     -1515.924629  Gnorm:      0.058440  CPU:    0.748
  Cycle:     16 Energy:     -1515.959255  Gnorm:      0.051543  CPU:    0.807
  Cycle:     17 Energy:     -1516.019610  Gnorm:      0.040522  CPU:    0.858
  ** Hessian has wrong structure
  ** Imaginary eigenvectors =   3
  Cycle:     18 Energy:     -1516.023200  Gnorm:      0.131850  CPU:    0.939
  ** Hessian has wrong structure
  ** Imaginary eigenvectors =   3
  ** Hessian has wrong structure
  ** Imaginary eigenvectors =   2
  Cycle:     19 Energy:     -1516.056937  Gnorm:      0.131068  CPU:    1.086
  ** Hessian has wrong structure
  ** Imaginary eigenvectors =   1
  ** Hessian has wrong structure
  ** Imaginary eigenvectors =   1
  Cycle:     20 Energy:     -1516.140690  Gnorm:      0.120690  CPU:    1.215
  ** Hessian has wrong structure
  ** Imaginary eigenvectors =   1
  Cycle:     21 Energy:     -1516.149226  Gnorm:      0.100391  CPU:    1.297
  ** Hessian has required structure
  Cycle:     22 Energy:     -1516.263187  Gnorm:      0.060950  CPU:    1.380
  ** Hessian has required structure
  Cycle:     23 Energy:     -1516.312327  Gnorm:      0.043612  CPU:    1.438
  ** Hessian has required structure
  Cycle:     24 Energy:     -1516.340060  Gnorm:      0.020646  CPU:    1.496
  ** Hessian has required structure
  Cycle:     25 Energy:     -1516.350547  Gnorm:      0.028264  CPU:    1.546
  ** Hessian has required structure
  Cycle:     26 Energy:     -1516.358419  Gnorm:      0.013926  CPU:    1.595
  ** Hessian has required structure
  Cycle:     27 Energy:     -1516.361236  Gnorm:      0.010138  CPU:    1.652
  ** Hessian has required structure
  Cycle:     28 Energy:     -1516.362363  Gnorm:      0.006916  CPU:    1.701
  ** Hessian has required structure
  Cycle:     29 Energy:     -1516.363023  Gnorm:      0.003593  CPU:    1.751
  ** Hessian has required structure
  Cycle:     30 Energy:     -1516.363250  Gnorm:      0.002511  CPU:    1.801
  ** Hessian has required structure
  Cycle:     31 Energy:     -1516.363370  Gnorm:      0.001471  CPU:    1.859
  ** Hessian has required structure
  Cycle:     32 Energy:     -1516.363421  Gnorm:      0.000888  CPU:    1.934
  ** Hessian has required structure
  Cycle:     33 Energy:     -1516.363439  Gnorm:      0.000539  CPU:    1.984
  ** Hessian has required structure
  Cycle:     34 Energy:     -1516.363446  Gnorm:      0.000329  CPU:    2.033
  ** Hessian has required structure
  Cycle:     35 Energy:     -1516.363449  Gnorm:      0.000241  CPU:    2.075
  ** Hessian has required structure


  **** Optimisation achieved ****


  Final energy =   -1516.36344986 eV      
  Final Gnorm  =       0.00017418

  Components of energy : 

--------------------------------------------------------------------------------
  Interatomic potentials     =         402.49669573 eV    
  Three-body potentials      =           0.08177910 eV    
  Monopole - monopole (real) =        -835.74286182 eV    
  Monopole - monopole (recip)=       -1083.19906287 eV    
  Monopole - monopole (total)=       -1918.94192469 eV    
--------------------------------------------------------------------------------
  Total lattice energy       =       -1516.36344986 eV    
--------------------------------------------------------------------------------
  Total lattice energy       =         -146305.8932 kJ/(mole unit cells)
--------------------------------------------------------------------------------

  Final fractional coordinates of atoms :

--------------------------------------------------------------------------------
   No.  Atomic        x           y          z          Radius
        Label       (Frac)      (Frac)     (Frac)       (Angs) 
--------------------------------------------------------------------------------
     1  Ge    c     0.313820    0.296860    0.309830    0.000000
     2  Ge    c     0.685568    0.365739    0.395473    0.000000
     3  Ge    c     0.628719    0.777638    0.393755    0.000000
     4  Ge    c     0.879908    0.063008    0.347881    0.000000
     5  Si    c     0.692444    0.316314    0.701850    0.000000
     6  Si    c     0.664300    0.711966    0.709053    0.000000
     7  Si    c     0.271044    0.704250    0.317475    0.000000
     8  Si    c     0.327237    0.270449    0.617090    0.000000
     9  Si    c     0.304493    0.664848    0.627166    0.000000
    10  Si    c     0.109604    0.967757    0.650292    0.000000
    11  Si    c     0.071908    0.010417    0.151700    0.000000
    12  Si    c     0.897399    0.001050    0.839363    0.000000
    13  O3    c     0.260588    0.255199    0.455125    0.000000
    14  O3    c     0.743689    0.329084    0.570431    0.000000
    15  O3    c     0.696989    0.759999    0.569748    0.000000
    16  O2    c     0.247628    0.679102    0.464428    0.000000
    17  O3    c     0.276413    0.516240    0.259898    0.000000
    18  O2    c     0.706864    0.510563    0.761019    0.000000
    19  O1    c     0.504997    0.263752    0.334489    0.000000
    20  O2    c     0.513365    0.244770    0.662459    0.000000
    21  O2    c     0.481644    0.737817    0.688039    0.000000
    22  O3    c     0.430758    0.811724    0.336736    0.000000
    23  O3    c     0.204167    0.160810    0.187537    0.000000
    24  O2    c     0.805559    0.183519    0.812083    0.000000
    25  O2    c     0.771509    0.841237    0.820794    0.000000
    26  O2    c     0.131580    0.820053    0.219957    0.000000
    27  O2    c     0.292418    0.458269    0.666896    0.000000
    28  O1    c     0.669913    0.580583    0.342564    0.000000
    29  O2    c     0.242400    0.122028    0.685128    0.000000
    30  O1    c     0.831818    0.276365    0.353292    0.000000
    31  O1    c     0.708273    0.947784    0.328351    0.000000
    32  O2    c     0.194549    0.778531    0.684086    0.000000
    33  O3    c     0.013955    0.975416    0.492128    0.000000
    34  O3    c     0.932910    0.058523    0.204766    0.000000
    35  O2    c     0.997768    0.985272    0.739049    0.000000
    36  O2    c     0.013898    0.992398    0.990776    0.000000
    37  O3    s     0.270827    0.259694    0.459600    0.000000
    38  O3    s     0.733694    0.330589    0.570528    0.000000
    39  O3    s     0.688348    0.756636    0.569856    0.000000
    40  O2    s     0.256333    0.680119    0.466687    0.000000
    41  O3    s     0.278763    0.518197    0.269579    0.000000
    42  O2    s     0.700856    0.511283    0.749538    0.000000
    43  O1    s     0.502985    0.273977    0.337001    0.000000
    44  O2    s     0.512140    0.254983    0.661696    0.000000
    45  O2    s     0.482071    0.727269    0.683773    0.000000
    46  O3    s     0.430951    0.798364    0.339474    0.000000
    47  O3    s     0.200077    0.157182    0.194276    0.000000
    48  O2    s     0.803026    0.178498    0.803011    0.000000
    49  O2    s     0.773220    0.844169    0.810693    0.000000
    50  O2    s     0.140702    0.827293    0.223559    0.000000
    51  O2    s     0.297285    0.460769    0.657684    0.000000
    52  O1    s     0.668044    0.578464    0.350639    0.000000
    53  O2    s     0.237819    0.122064    0.674140    0.000000
    54  O1    s     0.824087    0.267055    0.356222    0.000000
    55  O1    s     0.714707    0.942303    0.335380    0.000000
    56  O2    s     0.197698    0.785511    0.674645    0.000000
    57  O3    s     0.012493    0.981997    0.496210    0.000000
    58  O3    s     0.942621    0.053931    0.211440    0.000000
    59  O2    s     0.999492    0.985003    0.739870    0.000000
    60  O2    s     0.006850    0.995468    0.991250    0.000000
--------------------------------------------------------------------------------

  Final Cartesian lattice vectors (Angstroms) :

        9.062018   -0.164371   -0.044406
       -0.134570    7.628178    0.165543
       -3.334698    0.278590    9.867695


  Final cell parameters and derivatives :

--------------------------------------------------------------------------------
       a            9.063618 Angstrom     dE/de1(xx)     0.001955 eV/strain
       b            7.631161 Angstrom     dE/de2(yy)     0.000919 eV/strain
       c           10.419656 Angstrom     dE/de3(zz)     0.001571 eV/strain
       alpha       86.966825 Degrees      dE/de4(yz)    -0.000065 eV/strain
       beta       108.972080 Degrees      dE/de5(xz)    -0.000173 eV/strain
       gamma       92.055394 Degrees      dE/de6(xy)     0.001151 eV/strain
--------------------------------------------------------------------------------

  Primitive cell volume =           680.447735 Angs**3

  Density of cell =      2.194311 g/cm**3

  Non-primitive cell volume =           680.447735 Angs**3


  Final internal derivatives :

--------------------------------------------------------------------------------
   No.  Atomic          a             b             c           Radius
        Label          (eV)          (eV)          (eV)        (eV/Angs)
--------------------------------------------------------------------------------
      1 Ge    c       0.000000      0.000000      0.000000      0.000000
      2 Ge    c       0.002541     -0.001242     -0.002110      0.000000
      3 Ge    c      -0.000191      0.000875      0.004831      0.000000
      4 Ge    c       0.001214      0.005105      0.002825      0.000000
      5 Si    c      -0.000185      0.000395     -0.000187      0.000000
      6 Si    c       0.000212      0.000545      0.001921      0.000000
      7 Si    c       0.003058     -0.003138     -0.000886      0.000000
      8 Si    c       0.000365      0.000933     -0.000054      0.000000
      9 Si    c       0.000110     -0.002829      0.000632      0.000000
     10 Si    c      -0.001265     -0.000235      0.000446      0.000000
     11 Si    c      -0.002093      0.000466      0.001606      0.000000
     12 Si    c       0.000669      0.000627     -0.002199      0.000000
     13 O3    c       0.000116      0.000227      0.000472      0.000000
     14 O3    c      -0.000347      0.000536      0.002270      0.000000
     15 O3    c       0.003417     -0.000288     -0.003939      0.000000
     16 O2    c      -0.005161      0.000341      0.002617      0.000000
     17 O3    c      -0.000501      0.006879      0.000322      0.000000
     18 O2    c      -0.000047     -0.001748      0.000128      0.000000
     19 O1    c       0.007738     -0.002797     -0.002465      0.000000
     20 O2    c      -0.000591      0.000588      0.000399      0.000000
     21 O2    c       0.001869      0.001281      0.000474      0.000000
     22 O3    c      -0.007619      0.002410     -0.000086      0.000000
     23 O3    c      -0.000220     -0.000092     -0.000570      0.000000
     24 O2    c       0.001353     -0.001958      0.000415      0.000000
     25 O2    c      -0.000474     -0.000181     -0.001276      0.000000
     26 O2    c      -0.002474      0.004983     -0.004915      0.000000
     27 O2    c       0.000466     -0.000892     -0.000559      0.000000
     28 O1    c       0.000567     -0.007009     -0.003849      0.000000
     29 O2    c       0.000649     -0.000323     -0.000148      0.000000
     30 O1    c       0.002478     -0.006865      0.001876      0.000000
     31 O1    c       0.000617      0.003484     -0.007383      0.000000
     32 O2    c      -0.002295      0.002472      0.002424      0.000000
     33 O3    c      -0.003112      0.002708     -0.005209      0.000000
     34 O3    c       0.007601     -0.002219     -0.007712      0.000000
     35 O2    c      -0.000330     -0.000427     -0.000717      0.000000
     36 O2    c       0.000801     -0.000186      0.000444      0.000000
     37 O3    s      -0.000627     -0.000771      0.000604      0.000000
     38 O3    s      -0.000026     -0.001460     -0.000714      0.000000
     39 O3    s       0.000115      0.002117      0.003009      0.000000
     40 O2    s      -0.001304     -0.000035     -0.000268      0.000000
     41 O3    s       0.002312     -0.003320     -0.002680      0.000000
     42 O2    s       0.001045     -0.000628      0.001632      0.000000
     43 O1    s      -0.003924     -0.000787      0.002057      0.000000
     44 O2    s       0.000412     -0.000292     -0.000289      0.000000
     45 O2    s       0.000687      0.001662     -0.000018      0.000000
     46 O3    s       0.002895      0.000444      0.002617      0.000000
     47 O3    s      -0.003125     -0.001915      0.001151      0.000000
     48 O2    s       0.000807      0.000214     -0.000441      0.000000
     49 O2    s       0.000455      0.000971      0.001858      0.000000
     50 O2    s      -0.002723      0.000778     -0.000112      0.000000
     51 O2    s      -0.001567     -0.001244      0.001246      0.000000
     52 O1    s       0.000213      0.002413     -0.001849      0.000000
     53 O2    s      -0.000080      0.000275      0.001069      0.000000
     54 O1    s      -0.000525      0.001758      0.001112      0.000000
     55 O1    s       0.004396     -0.000070      0.001970      0.000000
     56 O2    s      -0.002186     -0.000635      0.001474      0.000000
     57 O3    s       0.000212     -0.001630      0.001448      0.000000
     58 O3    s      -0.001226     -0.000019      0.003713      0.000000
     59 O2    s      -0.000264      0.000771     -0.000498      0.000000
     60 O2    s      -0.000639     -0.000235      0.000225      0.000000
--------------------------------------------------------------------------------
  Maximum abs         0.007738      0.007009      0.007712      0.000000
--------------------------------------------------------------------------------


  Born effective charge tensors : 

-------------------------------------------------------------------------------
  Atom             x           y             z
-------------------------------------------------------------------------------
    1 Ge    x       3.8852      0.1221      0.3246
            y       0.1497      4.1967      0.2695
            z       0.1114      0.2896      3.6068
-------------------------------------------------------------------------------
    2 Ge    x       4.2883     -0.1148     -0.1109
            y      -0.4620      4.1976     -0.0667
            z      -0.0094      0.0661      3.3248
-------------------------------------------------------------------------------
    3 Ge    x       4.0495      0.3402     -0.1890
            y       0.2131      4.2317     -0.0499
            z       0.0838     -0.1235      3.3791
-------------------------------------------------------------------------------
    4 Ge    x       4.5011     -0.3179     -0.2449
            y       0.1583      3.8916      0.0933
            z      -0.2409     -0.0902      3.7124
-------------------------------------------------------------------------------
    5 Si    x       3.3286     -0.1442      0.1366
            y      -0.2999      3.5068     -0.1723
            z      -0.0147     -0.2091      3.0526
-------------------------------------------------------------------------------
    6 Si    x       3.2908      0.2663      0.1760
            y       0.2580      3.4931      0.1121
            z       0.0460      0.1139      3.0706
-------------------------------------------------------------------------------
    7 Si    x       3.3189      0.1171      0.2091
            y      -0.2589      3.8263      0.0212
            z       0.2197     -0.0706      3.0772
-------------------------------------------------------------------------------
    8 Si    x       3.3249      0.3009     -0.0593
            y       0.2159      3.5046      0.0804
            z       0.1421      0.0149      2.9845
-------------------------------------------------------------------------------
    9 Si    x       3.2624     -0.1894     -0.0187
            y      -0.3524      3.4186      0.0600
            z       0.0773      0.1308      2.6625
-------------------------------------------------------------------------------
   10 Si    x       3.7799     -0.1758      0.0980
            y       0.0500      3.3236     -0.0017
            z      -0.3768      0.0802      3.2100
-------------------------------------------------------------------------------
   11 Si    x       3.5857     -0.0858      0.1431
            y       0.2352      3.4319      0.0460
            z      -0.0344      0.2436      4.1350
-------------------------------------------------------------------------------
   12 Si    x       3.3317     -0.1153     -0.1208
            y       0.0411      3.2239      0.0598
            z       0.3575      0.0249      3.7643
-------------------------------------------------------------------------------
   13 O3    x      -1.4564     -0.1390      0.1940
            y      -0.1446     -1.4090     -0.0528
            z       0.2764     -0.0287     -2.5440
-------------------------------------------------------------------------------
   14 O3    x      -1.5890      0.0260      0.5064
            y       0.1053     -1.3758      0.0887
            z       0.4497      0.1481     -2.4022
-------------------------------------------------------------------------------
   15 O3    x      -1.4976     -0.1780      0.3507
            y      -0.1652     -1.4013      0.1365
            z       0.3082      0.1651     -2.4848
-------------------------------------------------------------------------------
   16 O2    x      -1.2379      0.0277      0.2033
            y       0.0795     -1.2662      0.1226
            z       0.1892      0.0826     -2.0468
-------------------------------------------------------------------------------
   17 O3    x      -1.2294      0.1815     -0.0306
            y       0.3134     -3.1253     -0.1856
            z       0.0029     -0.1659     -1.3520
-------------------------------------------------------------------------------
   18 O2    x      -1.1503      0.1073     -0.0848
            y       0.1414     -2.5102     -0.0532
            z      -0.0548     -0.0503     -1.1268
-------------------------------------------------------------------------------
   19 O1    x      -3.0107     -0.1978     -0.4544
            y      -0.1276     -1.5663     -0.1140
            z      -0.4899     -0.1500     -1.3735
-------------------------------------------------------------------------------
   20 O2    x      -2.3665     -0.1287     -0.3736
            y      -0.0573     -1.3074     -0.0195
            z      -0.3902     -0.0033     -1.1069
-------------------------------------------------------------------------------
   21 O2    x      -2.3287     -0.1100     -0.3771
            y      -0.0507     -1.2774     -0.0582
            z      -0.3701     -0.0920     -1.1217
-------------------------------------------------------------------------------
   22 O3    x      -2.7641     -0.3322     -0.3994
            y      -0.2573     -1.5062     -0.0126
            z      -0.4250      0.0038     -1.2703
-------------------------------------------------------------------------------
   23 O3    x      -1.7683     -0.7362     -0.5253
            y      -0.7789     -2.2857     -0.6803
            z      -0.5048     -0.7396     -1.9034
-------------------------------------------------------------------------------
   24 O2    x      -1.4872      0.6179     -0.3165
            y       0.5980     -2.0577      0.4604
            z      -0.3656      0.4936     -1.4691
-------------------------------------------------------------------------------
   25 O2    x      -1.5619     -0.5877     -0.3182
            y      -0.6312     -1.9232     -0.4572
            z      -0.3869     -0.4843     -1.4984
-------------------------------------------------------------------------------
   26 O2    x      -1.3905      0.4721     -0.3969
            y       0.4172     -1.9251      0.5531
            z      -0.3382      0.5495     -1.6369
-------------------------------------------------------------------------------
   27 O2    x      -1.2193      0.0457      0.0610
            y       0.1287     -2.5098     -0.0536
            z       0.0248     -0.0111     -1.0464
-------------------------------------------------------------------------------
   28 O1    x      -1.4753      0.2430      0.1101
            y       0.3286     -3.1659     -0.0056
            z       0.0718     -0.0580     -1.3161
-------------------------------------------------------------------------------
   29 O2    x      -1.8525     -0.7436      0.1028
            y      -0.7515     -1.9746      0.1017
            z       0.1329      0.1032     -1.0944
-------------------------------------------------------------------------------
   30 O1    x      -2.4158      0.9411      0.3103
            y       0.8657     -2.4972     -0.2298
            z       0.3224     -0.2382     -1.3029
-------------------------------------------------------------------------------
   31 O1    x      -2.6262     -1.0097      0.2299
            y      -1.0070     -2.2791      0.2103
            z       0.1456      0.2048     -1.3461
-------------------------------------------------------------------------------
   32 O2    x      -1.8306      0.7655      0.1442
            y       0.7126     -2.0381     -0.1044
            z       0.1794     -0.1117     -1.0902
-------------------------------------------------------------------------------
   33 O3    x      -1.6949      0.1718     -0.6348
            y       0.0444     -1.3352      0.2020
            z      -0.3662      0.2543     -2.5649
-------------------------------------------------------------------------------
   34 O3    x      -2.5093      0.3463      0.8784
            y       0.2335     -1.2775     -0.1696
            z       0.8322     -0.1650     -2.1181
-------------------------------------------------------------------------------
   35 O2    x      -2.3176      0.1737      0.7672
            y       0.0748     -1.1343     -0.0836
            z       0.7681     -0.1161     -1.6906
-------------------------------------------------------------------------------
   36 O2    x      -1.1669      0.0401     -0.2904
            y      -0.0200     -1.0981     -0.0469
            z      -0.3737     -0.0615     -3.0735
-------------------------------------------------------------------------------




  Elastic Constant Matrix: (Units=GPa)

-------------------------------------------------------------------------------
  Indices      1         2         3         4         5         6    
-------------------------------------------------------------------------------
       1     44.5172   24.5173   16.7443    1.5081   -0.3625  -13.8921
       2     24.5173   64.6370   22.2574    3.5770    7.4391  -12.3985
       3     16.7443   22.2574   40.3659    5.3925   12.3826    0.4014
       4      1.5081    3.5770    5.3925   13.1590    1.5442    4.3596
       5     -0.3625    7.4391   12.3826    1.5442   14.9871    1.5622
       6    -13.8921  -12.3985    0.4014    4.3596    1.5622   26.6603
-------------------------------------------------------------------------------


  Elastic Compliance Matrix: (Units=1/GPa)

-------------------------------------------------------------------------------
  Indices      1         2         3         4         5         6    
-------------------------------------------------------------------------------
       1    0.038099 -0.007399 -0.016728 -0.002842  0.017026  0.016130
       2   -0.007399  0.023354 -0.007450 -0.004458 -0.006011  0.008199
       3   -0.016728 -0.007450  0.047488 -0.008361 -0.034087 -0.009531
       4   -0.002842 -0.004458 -0.008361  0.086591  0.001975 -0.017704
       5    0.017026 -0.006011 -0.034087  0.001975  0.098025  0.000523
       6    0.016130  0.008199 -0.009531 -0.017704  0.000523  0.052735
-------------------------------------------------------------------------------

  Mechanical properties :

-------------------------------------------------------------------------------
  Convention :                    Reuss         Voigt         Hill
-------------------------------------------------------------------------------
  Bulk  Modulus (GPa)     =      21.84003      30.72867      26.28435
  Shear Modulus (GPa)     =      11.77280      16.69468      14.23374
-------------------------------------------------------------------------------
  Velocity S-wave (km/s)  =       2.31628       2.75829       2.54689
  Velocity P-wave (km/s)  =       4.13601       4.91406       4.54173
-------------------------------------------------------------------------------
  Compressibility (1/GPa) =    0.04578749
-------------------------------------------------------------------------------
  Stress axis :                     x             y             z
-------------------------------------------------------------------------------
  Youngs Moduli (GPa)     =      26.24775      42.81888      21.05789
-------------------------------------------------------------------------------
  Poissons Ratio (x)      =                     0.31683       0.35225
  Poissons Ratio (y)      =       0.19421                     0.15688
  Poissons Ratio (z)      =       0.43906       0.31900
-------------------------------------------------------------------------------


  Piezoelectric Strain Matrix: (Units=C/m**2)

-------------------------------------------------------------------------------
  Indices      1         2         3         4         5         6    
-------------------------------------------------------------------------------
       x    -0.74698  -1.03287   0.84410   0.07770  -0.03746  -0.75021
       y    -1.01254  -0.45680  -0.50255   0.10088  -0.37353  -0.44085
       z    -0.51187   0.43692  -0.40423  -0.64389   0.61234  -0.10693
-------------------------------------------------------------------------------


  Piezoelectric Stress Matrix: (Units=10**-11 C/N)

-------------------------------------------------------------------------------
  Indices      1         2         3         4         5         6    
-------------------------------------------------------------------------------
       x    -4.78960  -3.11553   6.80525   1.96067  -3.91928  -6.95205
       y    -4.05473  -0.12510   1.25663   2.49177  -3.40099  -4.05168
       z    -0.54417   1.53159  -2.83594  -4.97666   6.11347   0.52590
-------------------------------------------------------------------------------


  Static dielectric constant tensor : 

-------------------------------------------------------------------------------
              x         y         z
-------------------------------------------------------------------------------
       x     4.59265   0.10343   0.07449
       y     0.10343   5.04095   0.16446
       z     0.07449   0.16446   3.34708
--------------------------------------------------------------------------------

  High frequency dielectric constant tensor : 

-------------------------------------------------------------------------------
              x         y         z
-------------------------------------------------------------------------------
       x     1.63614  -0.00409   0.00925
       y    -0.00409   1.64550   0.00324
       z     0.00925   0.00324   1.59041
-------------------------------------------------------------------------------

  Static refractive indices : 

-------------------------------------------------------------------------------
    1 =    1.82427      2 =    2.13800      3 =    2.25426
-------------------------------------------------------------------------------

  High frequency refractive indices : 

-------------------------------------------------------------------------------
    1 =    1.26029      2 =    1.27933      3 =    1.28337
-------------------------------------------------------------------------------


  Time to end of optimisation =       2.1670 seconds


  Peak dynamic memory used =       2.76 MB 


  Timing analysis for GULP :

--------------------------------------------------------------------------------
  Task / Subroutine                                          Time (Seconds)
--------------------------------------------------------------------------------
  Calculation of reciprocal space energy and derivatives          0.1461
  Calculation of real space energy and derivatives                1.7718
  Calculation of three-body energy and derivatives                0.0678
  Calculation and manipulation of Hessian matrix                  0.3012
  Calculation of matrix inversion                                 0.0024
--------------------------------------------------------------------------------
  Total CPU time                                                  2.1670
--------------------------------------------------------------------------------


  Dump file written as c00082.vasp.grs
  CIF file written as c00082.vasp.cif


  Job Finished at 22:41.10  6th October    2025                               

