********************************************************************************
*                       GENERAL UTILITY LATTICE PROGRAM                        *
*                                 Julian Gale                                  *
*                       Curtin Institute for Computation                       *
*                    School of Molecular and Life Sciences                     *
*                    Curtin University, Western Australia                      *
********************************************************************************
* Version = 6.1.2 * Last modified =   3rd November 2022                        *
********************************************************************************
*  optimise     - perform optimisation run                                     *
*  conp         - constant pressure calculation                                *
*  property     - calculate properties for final geometry                      *
********************************************************************************

  Job Started  at 22:38.05  6th October    2025                               

  Number of CPUs =     1


  Total number of configurations input =      1

********************************************************************************
*  Input for Configuration =   1 : c00029.vasp                                 *
********************************************************************************

  Formula = Ge4Si8O24                                                   

  Number of irreducible atoms/shells =      60


  Total number atoms/shells =      60

  Dimensionality = 3               :  Bulk   



  Cartesian lattice vectors (Angstroms) :

        9.086940    0.000000    0.000000
        0.000000    7.554810    0.000000
       -3.295144    0.000000    9.944380

  Cell parameters (Angstroms/Degrees):

  a =       9.0869    alpha =  90.0000
  b =       7.5548    beta  = 108.3330
  c =      10.4761    gamma =  90.0000

  Initial cell volume =         682.682735 Angs**3

  Temperature of configuration =   0.00     K 

  Pressure of configuration =         0.000 GPa 

  Fractional coordinates of asymmetric unit :

--------------------------------------------------------------------------------
   No.  Atomic       x           y          z         Charge      Occupancy
        Label      (Frac)      (Frac)     (Frac)        (e)         (Frac)  
--------------------------------------------------------------------------------
      1 Ge    c    0.313820    0.296860    0.309830     4.00000    1.000000    
      2 Ge    c    0.686180 *  0.703140 *  0.690170 *   4.00000    1.000000    
      3 Ge    c    0.331050 *  0.296920 *  0.607380 *   4.00000    1.000000    
      4 Ge    c    0.879680 *  0.000000 *  0.350160 *   4.00000    1.000000    
      5 Si    c    0.686180 *  0.296860 *  0.690170 *   4.00000    1.000000    
      6 Si    c    0.313820 *  0.703140 *  0.309830 *   4.00000    1.000000    
      7 Si    c    0.668950 *  0.296920 *  0.392620 *   4.00000    1.000000    
      8 Si    c    0.668950 *  0.703080 *  0.392620 *   4.00000    1.000000    
      9 Si    c    0.331050 *  0.703080 *  0.607380 *   4.00000    1.000000    
     10 Si    c    0.120320 *  0.000000 *  0.649840 *   4.00000    1.000000    
     11 Si    c    0.093070 *  0.000000 *  0.158230 *   4.00000    1.000000    
     12 Si    c    0.906930 *  0.000000 *  0.841770 *   4.00000    1.000000    
     13 O1    c    0.268740 *  0.279030 *  0.446100 *   1.73396    1.000000    
     14 O2    c    0.731260 *  0.279030 *  0.553900 *   0.87073    1.000000    
     15 O3    c    0.731260 *  0.720970 *  0.553900 *   1.33043    1.000000    
     16 O2    c    0.268740 *  0.720970 *  0.446100 *   0.87073    1.000000    
     17 O3    c    0.295480 *  0.500000 *  0.260860 *   1.33043    1.000000    
     18 O3    c    0.704520 *  0.500000 *  0.739140 *   1.33043    1.000000    
     19 O3    c    0.490600 *  0.234690 *  0.337530 *   1.33043    1.000000    
     20 O3    c    0.509400 *  0.234690 *  0.662470 *   1.33043    1.000000    
     21 O3    c    0.509400 *  0.765310 *  0.662470 *   1.33043    1.000000    
     22 O2    c    0.490600 *  0.765310 *  0.337530 *   0.87073    1.000000    
     23 O3    c    0.200440 *  0.174000 *  0.194980 *   1.33043    1.000000    
     24 O2    c    0.799560 *  0.174000 *  0.805020 *   0.87073    1.000000    
     25 O3    c    0.799560 *  0.826000 *  0.805020 *   1.33043    1.000000    
     26 O2    c    0.200440 *  0.826000 *  0.194980 *   0.87073    1.000000    
     27 O3    c    0.317860 *  0.500000 *  0.649090 *   1.33043    1.000000    
     28 O2    c    0.682140 *  0.500000 *  0.350910 *   0.87073    1.000000    
     29 O3    c    0.227920 *  0.173870 *  0.671620 *   1.33043    1.000000    
     30 O3    c    0.772080 *  0.173870 *  0.328380 *   1.33043    1.000000    
     31 O3    c    0.772080 *  0.826130 *  0.328380 *   1.33043    1.000000    
     32 O2    c    0.227920 *  0.826130 *  0.671620 *   0.87073    1.000000    
     33 O3    c    0.000000 *  0.000000 *  0.500000 *   1.33043    1.000000    
     34 O3    c    0.971960 *  0.000000 *  0.241930 *   1.33043    1.000000    
     35 O2    c    0.028040 *  0.000000 *  0.758070 *   0.87073    1.000000    
     36 O2    c    0.000000 *  0.000000 *  0.000000 *   0.87073    1.000000    
     37 O1    s    0.268740 *  0.279030 *  0.446100 *  -3.73396    1.000000    
     38 O2    s    0.731260 *  0.279030 *  0.553900 *  -2.87073    1.000000    
     39 O3    s    0.731260 *  0.720970 *  0.553900 *  -3.33043    1.000000    
     40 O2    s    0.268740 *  0.720970 *  0.446100 *  -2.87073    1.000000    
     41 O3    s    0.295480 *  0.500000 *  0.260860 *  -3.33043    1.000000    
     42 O3    s    0.704520 *  0.500000 *  0.739140 *  -3.33043    1.000000    
     43 O3    s    0.490600 *  0.234690 *  0.337530 *  -3.33043    1.000000    
     44 O3    s    0.509400 *  0.234690 *  0.662470 *  -3.33043    1.000000    
     45 O3    s    0.509400 *  0.765310 *  0.662470 *  -3.33043    1.000000    
     46 O2    s    0.490600 *  0.765310 *  0.337530 *  -2.87073    1.000000    
     47 O3    s    0.200440 *  0.174000 *  0.194980 *  -3.33043    1.000000    
     48 O2    s    0.799560 *  0.174000 *  0.805020 *  -2.87073    1.000000    
     49 O3    s    0.799560 *  0.826000 *  0.805020 *  -3.33043    1.000000    
     50 O2    s    0.200440 *  0.826000 *  0.194980 *  -2.87073    1.000000    
     51 O3    s    0.317860 *  0.500000 *  0.649090 *  -3.33043    1.000000    
     52 O2    s    0.682140 *  0.500000 *  0.350910 *  -2.87073    1.000000    
     53 O3    s    0.227920 *  0.173870 *  0.671620 *  -3.33043    1.000000    
     54 O3    s    0.772080 *  0.173870 *  0.328380 *  -3.33043    1.000000    
     55 O3    s    0.772080 *  0.826130 *  0.328380 *  -3.33043    1.000000    
     56 O2    s    0.227920 *  0.826130 *  0.671620 *  -2.87073    1.000000    
     57 O3    s    0.000000 *  0.000000 *  0.500000 *  -3.33043    1.000000    
     58 O3    s    0.971960 *  0.000000 *  0.241930 *  -3.33043    1.000000    
     59 O2    s    0.028040 *  0.000000 *  0.758070 *  -2.87073    1.000000    
     60 O2    s    0.000000 *  0.000000 *  0.000000 *  -2.87073    1.000000    
--------------------------------------------------------------------------------



********************************************************************************
*  General input information                                                   *
********************************************************************************

  Species output for all configurations : 

--------------------------------------------------------------------------------
  Species    Type    Atomic    Atomic    Charge       Radii (Angs)     Library
                     Number     Mass       (e)     Cova   Ionic  VDW   Symbol
--------------------------------------------------------------------------------
    Ge       Core       32      72.61   4.000000   1.170  0.000  1.750 Ge       
    Si       Core       14      28.09   4.000000   1.200  0.000  2.100 Si       
    O1       Core        8      16.00   1.733957   0.730  0.000  1.360 O1       
    O2       Core        8      16.00   0.870733   0.730  0.000  1.360 O2       
    O3       Core        8      16.00   1.330431   0.730  0.000  1.360 O3       
    O1       Shell       8       0.00  -3.733957   0.730  0.000  0.000 O1       
    O2       Shell       8       0.00  -2.870733   0.730  0.000  0.000 O2       
    O3       Shell       8       0.00  -3.330431   0.730  0.000  0.000 O3       
--------------------------------------------------------------------------------


  Lattice summation method               =    Ewald          (3-D)
                                         =    Parry          (2-D)
                                         =    Saunders et al (1-D)
  Accuracy factor for lattice sums       =   12.000


  Analytic derivatives to be used

  Time limit = Infinity

  Maximum range for interatomic potentials =    100000.000000 Angstroms

  General interatomic potentials :

--------------------------------------------------------------------------------
Atom  Types   Potential      Parameter       Value         Units   Cutoffs(Ang)
  1     2                                                            Min /  Max 
--------------------------------------------------------------------------------
Si   c O1   s Buckingham    Buckingham A     1315.2478    eV        0.000 16.000
                            Buckingham rho  0.31775900    Ang       
                            Buckingham C     10.141118    eV*Ang^6  
--------------------------------------------------------------------------------
Si   c O2   s Buckingham    Buckingham A     1315.2478    eV        0.000 16.000
                            Buckingham rho  0.31775900    Ang       
                            Buckingham C     10.141118    eV*Ang^6  
--------------------------------------------------------------------------------
Si   c O3   s Buckingham    Buckingham A     1315.2478    eV        0.000 16.000
                            Buckingham rho  0.31775900    Ang       
                            Buckingham C     10.141118    eV*Ang^6  
--------------------------------------------------------------------------------
Ge   c O1   s Buckingham    Buckingham A     1497.3996    eV        0.000 16.000
                            Buckingham rho  0.32564600    Ang       
                            Buckingham C     16.808599    eV*Ang^6  
--------------------------------------------------------------------------------
Ge   c O2   s Buckingham    Buckingham A     1497.3996    eV        0.000 16.000
                            Buckingham rho  0.32564600    Ang       
                            Buckingham C     16.808599    eV*Ang^6  
--------------------------------------------------------------------------------
Ge   c O3   s Buckingham    Buckingham A     1497.3996    eV        0.000 16.000
                            Buckingham rho  0.32564600    Ang       
                            Buckingham C     16.808599    eV*Ang^6  
--------------------------------------------------------------------------------
O1   s O1   s Buckingham    Buckingham A     22764.000    eV        0.000 16.000
                            Buckingham rho  0.14900000    Ang       
                            Buckingham C     10.937044    eV*Ang^6  
--------------------------------------------------------------------------------
O1   s O2   s Buckingham    Buckingham A     22764.000    eV        0.000 16.000
                            Buckingham rho  0.14900000    Ang       
                            Buckingham C     10.937044    eV*Ang^6  
--------------------------------------------------------------------------------
O1   s O3   s Buckingham    Buckingham A     22764.000    eV        0.000 16.000
                            Buckingham rho  0.14900000    Ang       
                            Buckingham C     10.937044    eV*Ang^6  
--------------------------------------------------------------------------------
O2   s O2   s Buckingham    Buckingham A     22764.000    eV        0.000 16.000
                            Buckingham rho  0.14900000    Ang       
                            Buckingham C     10.937044    eV*Ang^6  
--------------------------------------------------------------------------------
O2   s O3   s Buckingham    Buckingham A     22764.000    eV        0.000 16.000
                            Buckingham rho  0.14900000    Ang       
                            Buckingham C     10.937044    eV*Ang^6  
--------------------------------------------------------------------------------
O3   s O3   s Buckingham    Buckingham A     22764.000    eV        0.000 16.000
                            Buckingham rho  0.14900000    Ang       
                            Buckingham C     10.937044    eV*Ang^6  
--------------------------------------------------------------------------------
O1   c O1   s Spring (c-s)  Spring k 2       180.31577    eV*Ang^-2 0.000  0.800
                            Spring k 4       0.0000000    eV*Ang^-4 
--------------------------------------------------------------------------------
O2   c O2   s Spring (c-s)  Spring k 2       75.969800    eV*Ang^-2 0.000  0.800
                            Spring k 4       0.0000000    eV*Ang^-4 
--------------------------------------------------------------------------------
O3   c O3   s Spring (c-s)  Spring k 2       128.14270    eV*Ang^-2 0.000  0.800
                            Spring k 4       0.0000000    eV*Ang^-4 
--------------------------------------------------------------------------------

  General Three-body potentials :

--------------------------------------------------------------------------------
  Atoms       Potential      Parameter       Value         Units   Cutoffs(Ang)
  1 / 2 / 3                                                          Min /  Max 
--------------------------------------------------------------------------------
Si    core    Harmonic      Three-body cnst  1.2614000    eV*rad^-2 0.000  1.900
O1    shel                  Three-body angl  109.47000    degrees   0.000  1.900
O1    shel                  Three-body k4    0.0000000    eV*rad^-4 0.000  3.500
                            Three-body k3    0.0000000    eV*rad^-3 
--------------------------------------------------------------------------------
Si    core    Harmonic      Three-body cnst  1.2614000    eV*rad^-2 0.000  1.900
O1    shel                  Three-body angl  109.47000    degrees   0.000  1.900
õ(1   shel                  Three-body k4    0.0000000    eV*rad^-4 0.000  3.500
                            Three-body k3    0.0000000    eV*rad^-3 
--------------------------------------------------------------------------------
Si    core    Harmonic      Three-body cnst  1.2614000    eV*rad^-2 0.000  1.900
õ(1   shel                  Three-body angl  109.47000    degrees   0.000  1.900
õ(1   shel                  Three-body k4    0.0000000    eV*rad^-4 0.000  3.500
                            Three-body k3    0.0000000    eV*rad^-3 
--------------------------------------------------------------------------------
Si    core    Harmonic      Three-body cnst  1.2614000    eV*rad^-2 0.000  1.900
O1    shel                  Three-body angl  109.47000    degrees   0.000  1.900
O2    shel                  Three-body k4    0.0000000    eV*rad^-4 0.000  3.500
                            Three-body k3    0.0000000    eV*rad^-3 
--------------------------------------------------------------------------------
Si    core    Harmonic      Three-body cnst  1.2614000    eV*rad^-2 0.000  1.900
O1    shel                  Three-body angl  109.47000    degrees   0.000  1.900
õ(2   shel                  Three-body k4    0.0000000    eV*rad^-4 0.000  3.500
                            Three-body k3    0.0000000    eV*rad^-3 
--------------------------------------------------------------------------------
Si    core    Harmonic      Three-body cnst  1.2614000    eV*rad^-2 0.000  1.900
O2    shel                  Three-body angl  109.47000    degrees   0.000  1.900
õ(1   shel                  Three-body k4    0.0000000    eV*rad^-4 0.000  3.500
                            Three-body k3    0.0000000    eV*rad^-3 
--------------------------------------------------------------------------------
Si    core    Harmonic      Three-body cnst  1.2614000    eV*rad^-2 0.000  1.900
õ(1   shel                  Three-body angl  109.47000    degrees   0.000  1.900
õ(2   shel                  Three-body k4    0.0000000    eV*rad^-4 0.000  3.500
                            Three-body k3    0.0000000    eV*rad^-3 
--------------------------------------------------------------------------------
Si    core    Harmonic      Three-body cnst  1.2614000    eV*rad^-2 0.000  1.900
O2    shel                  Three-body angl  109.47000    degrees   0.000  1.900
O2    shel                  Three-body k4    0.0000000    eV*rad^-4 0.000  3.500
                            Three-body k3    0.0000000    eV*rad^-3 
--------------------------------------------------------------------------------
Si    core    Harmonic      Three-body cnst  1.2614000    eV*rad^-2 0.000  1.900
O2    shel                  Three-body angl  109.47000    degrees   0.000  1.900
õ(2   shel                  Three-body k4    0.0000000    eV*rad^-4 0.000  3.500
                            Three-body k3    0.0000000    eV*rad^-3 
--------------------------------------------------------------------------------
Si    core    Harmonic      Three-body cnst  1.2614000    eV*rad^-2 0.000  1.900
õ(2   shel                  Three-body angl  109.47000    degrees   0.000  1.900
õ(2   shel                  Three-body k4    0.0000000    eV*rad^-4 0.000  3.500
                            Three-body k3    0.0000000    eV*rad^-3 
--------------------------------------------------------------------------------

********************************************************************************
*  Output for configuration   1 : c00029.vasp                                  *
********************************************************************************


  Components of energy : 

--------------------------------------------------------------------------------
  Interatomic potentials     =         400.30553071 eV    
  Three-body potentials      =           0.00005235 eV    
  Monopole - monopole (real) =       -1236.99964305 eV    
  Monopole - monopole (recip)=        -659.26603192 eV    
  Monopole - monopole (total)=       -1896.26567496 eV    
--------------------------------------------------------------------------------
  Total lattice energy       =       -1495.96009190 eV    
--------------------------------------------------------------------------------
  Total lattice energy       =         -144337.2810 kJ/(mole unit cells)
--------------------------------------------------------------------------------


  Number of variables =      183

  Maximum number of calculations  =          1000
  Maximum Hessian update interval =            10
  Maximum step size               =   0.100000000
  Maximum parameter tolerance     =   0.000010000
  Maximum function  tolerance     =   0.000010000
  Maximum gradient  tolerance     =   0.001000000
  Maximum gradient  component     =   0.010000000

  Symmetry not applied to optimisation

  Cell parameters to be optimised using strains

  Newton-Raphson optimiser to be used

  BFGS hessian update to be used

  Lower half triangular hessian to be used

  Minimiser to switch to RFO
  When gradient norm is less than     0.050000

  Dumpfile to be written after every cycle

  Start of bulk optimisation :

  Cycle:      0 Energy:     -1495.960092  Gnorm:      5.603550  CPU:    0.032
  ** Hessian calculated **
  Cycle:      1 Energy:     -1512.123495  Gnorm:      1.435732  CPU:    0.069
  ** Hessian calculated **
  Cycle:      2 Energy:     -1515.535065  Gnorm:      0.712020  CPU:    0.135
  ** Hessian calculated **
  Cycle:      3 Energy:     -1515.966349  Gnorm:      0.411716  CPU:    0.195
  Cycle:      4 Energy:     -1516.179884  Gnorm:      0.269346  CPU:    0.232
  Cycle:      5 Energy:     -1516.378397  Gnorm:      0.211873  CPU:    0.277
  Cycle:      6 Energy:     -1516.543438  Gnorm:      0.177591  CPU:    0.321
  Cycle:      7 Energy:     -1516.628465  Gnorm:      0.131825  CPU:    0.358
  Cycle:      8 Energy:     -1516.676603  Gnorm:      0.101446  CPU:    0.396
  Cycle:      9 Energy:     -1516.700614  Gnorm:      0.075587  CPU:    0.433
  Cycle:     10 Energy:     -1516.711984  Gnorm:      0.053732  CPU:    0.470
  Cycle:     11 Energy:     -1516.719336  Gnorm:      0.046663  CPU:    0.508
  ** Hessian has required structure
  Cycle:     12 Energy:     -1516.728222  Gnorm:      0.094600  CPU:    0.556
  ** Hessian has wrong structure
  ** Imaginary eigenvectors =   3
  ** Hessian has wrong structure
  ** Imaginary eigenvectors =   3
  Cycle:     13 Energy:     -1516.731579  Gnorm:      0.094597  CPU:    0.748
  ** Hessian has wrong structure
  ** Imaginary eigenvectors =   3
  ** Hessian has wrong structure
  ** Imaginary eigenvectors =   3
  Cycle:     14 Energy:     -1516.737463  Gnorm:      0.094616  CPU:    0.923
  ** Hessian has wrong structure
  ** Imaginary eigenvectors =   3
  ** Hessian has wrong structure
  ** Imaginary eigenvectors =   3
  Cycle:     15 Energy:     -1516.747715  Gnorm:      0.094689  CPU:    1.082
  ** Hessian has wrong structure
  ** Imaginary eigenvectors =   3
  ** Hessian has wrong structure
  ** Imaginary eigenvectors =   3
  Cycle:     16 Energy:     -1516.765262  Gnorm:      0.094971  CPU:    1.238
  ** Hessian has wrong structure
  ** Imaginary eigenvectors =   3
  ** Hessian has wrong structure
  ** Imaginary eigenvectors =   2
  Cycle:     17 Energy:     -1516.786517  Gnorm:      0.095361  CPU:    1.375
  ** Hessian has wrong structure
  ** Imaginary eigenvectors =   2
  ** Hessian has wrong structure
  ** Imaginary eigenvectors =   1
  Cycle:     18 Energy:     -1516.829607  Gnorm:      0.092476  CPU:    1.529
  ** Hessian has wrong structure
  ** Imaginary eigenvectors =   1
  Cycle:     19 Energy:     -1516.914936  Gnorm:      0.050681  CPU:    1.645
  ** Hessian has wrong structure
  ** Imaginary eigenvectors =   1
  Cycle:     20 Energy:     -1516.950453  Gnorm:      0.067800  CPU:    1.790
  ** Hessian has required structure
  Cycle:     21 Energy:     -1517.026183  Gnorm:      0.042931  CPU:    1.870
  ** Hessian has required structure
  Cycle:     22 Energy:     -1517.061597  Gnorm:      0.035130  CPU:    1.925
  ** Hessian has required structure
  Cycle:     23 Energy:     -1517.088138  Gnorm:      0.025266  CPU:    1.980
  ** Hessian has required structure
  Cycle:     24 Energy:     -1517.106150  Gnorm:      0.031464  CPU:    2.035
  ** Hessian has required structure
  Cycle:     25 Energy:     -1517.122189  Gnorm:      0.022168  CPU:    2.081
  ** Hessian has required structure
  Cycle:     26 Energy:     -1517.130520  Gnorm:      0.029599  CPU:    2.128
  ** Hessian has required structure
  Cycle:     27 Energy:     -1517.138095  Gnorm:      0.021027  CPU:    2.200
  ** Hessian has required structure
  Cycle:     28 Energy:     -1517.145323  Gnorm:      0.027177  CPU:    2.280
  ** Hessian has required structure
  Cycle:     29 Energy:     -1517.153657  Gnorm:      0.029527  CPU:    2.349
  ** Hessian has required structure
  Cycle:     30 Energy:     -1517.160452  Gnorm:      0.037687  CPU:    2.431
  ** Hessian has required structure
  Cycle:     31 Energy:     -1517.177022  Gnorm:      0.029111  CPU:    2.542
  ** Hessian has required structure
  Cycle:     32 Energy:     -1517.183266  Gnorm:      0.023342  CPU:    2.612
  ** Hessian has required structure
  Cycle:     33 Energy:     -1517.189261  Gnorm:      0.016788  CPU:    2.696
  ** Hessian has required structure
  Cycle:     34 Energy:     -1517.193954  Gnorm:      0.018156  CPU:    2.776
  ** Hessian has required structure
  Cycle:     35 Energy:     -1517.197868  Gnorm:      0.013385  CPU:    2.845
  ** Hessian has required structure
  Cycle:     36 Energy:     -1517.201074  Gnorm:      0.016832  CPU:    2.914
  ** Hessian has required structure
  Cycle:     37 Energy:     -1517.202363  Gnorm:      0.013683  CPU:    2.984
  ** Hessian has required structure
  Cycle:     38 Energy:     -1517.203755  Gnorm:      0.008933  CPU:    3.065
  ** Hessian has required structure
  Cycle:     39 Energy:     -1517.204479  Gnorm:      0.004233  CPU:    3.134
  ** Hessian has required structure
  Cycle:     40 Energy:     -1517.204880  Gnorm:      0.004108  CPU:    3.215
  ** Hessian has required structure
  Cycle:     41 Energy:     -1517.205015  Gnorm:      0.002077  CPU:    3.324
  ** Hessian has required structure
  Cycle:     42 Energy:     -1517.205050  Gnorm:      0.001058  CPU:    3.406
  ** Hessian has required structure
  Cycle:     43 Energy:     -1517.205060  Gnorm:      0.000535  CPU:    3.486
  ** Hessian has required structure
  Cycle:     44 Energy:     -1517.205063  Gnorm:      0.000322  CPU:    3.555
  ** Hessian has required structure
  Cycle:     45 Energy:     -1517.205064  Gnorm:      0.000226  CPU:    3.611
  ** Hessian has required structure
  Cycle:     46 Energy:     -1517.205064  Gnorm:      0.000158  CPU:    3.667
  ** Hessian has required structure


  **** Optimisation achieved ****


  Final energy =   -1517.20506409 eV      
  Final Gnorm  =       0.00011087

  Components of energy : 

--------------------------------------------------------------------------------
  Interatomic potentials     =         405.57834874 eV    
  Three-body potentials      =           0.02203372 eV    
  Monopole - monopole (real) =        -834.67063153 eV    
  Monopole - monopole (recip)=       -1088.13481503 eV    
  Monopole - monopole (total)=       -1922.80544656 eV    
--------------------------------------------------------------------------------
  Total lattice energy       =       -1517.20506409 eV    
--------------------------------------------------------------------------------
  Total lattice energy       =         -146387.0961 kJ/(mole unit cells)
--------------------------------------------------------------------------------

  Final fractional coordinates of atoms :

--------------------------------------------------------------------------------
   No.  Atomic        x           y          z          Radius
        Label       (Frac)      (Frac)     (Frac)       (Angs) 
--------------------------------------------------------------------------------
     1  Ge    c     0.313820    0.296860    0.309830    0.000000
     2  Ge    c     0.705095    0.657018    0.729778    0.000000
     3  Ge    c     0.362499    0.226777    0.649606    0.000000
     4  Ge    c     0.881589    0.015836    0.353496    0.000000
     5  Si    c     0.721880    0.243094    0.715518    0.000000
     6  Si    c     0.325720    0.683464    0.336346    0.000000
     7  Si    c     0.675942    0.310709    0.394424    0.000000
     8  Si    c     0.668365    0.714861    0.406497    0.000000
     9  Si    c     0.358611    0.619519    0.657921    0.000000
    10  Si    c     0.142477    0.931437    0.664746    0.000000
    11  Si    c     0.102058    0.997940    0.179763    0.000000
    12  Si    c     0.948410    0.925437    0.866622    0.000000
    13  O1    c     0.300095    0.218542    0.469383    0.000000
    14  O2    c     0.710424    0.221581    0.554368    0.000000
    15  O3    c     0.706482    0.754725    0.568554    0.000000
    16  O2    c     0.376266    0.605713    0.502802    0.000000
    17  O3    c     0.256478    0.516927    0.256482    0.000000
    18  O3    c     0.759751    0.438814    0.754245    0.000000
    19  O3    c     0.498427    0.284899    0.306527    0.000000
    20  O3    c     0.559628    0.188901    0.727127    0.000000
    21  O3    c     0.526794    0.677557    0.750947    0.000000
    22  O2    c     0.484945    0.747723    0.316944    0.000000
    23  O3    c     0.193272    0.174394    0.184874    0.000000
    24  O2    c     0.857887    0.112880    0.818931    0.000000
    25  O3    c     0.831908    0.770658    0.857503    0.000000
    26  O2    c     0.208322    0.848654    0.298947    0.000000
    27  O3    c     0.321118    0.425093    0.701567    0.000000
    28  O2    c     0.716022    0.514271    0.401085    0.000000
    29  O3    c     0.273222    0.068619    0.723075    0.000000
    30  O3    c     0.780329    0.213029    0.326635    0.000000
    31  O3    c     0.763865    0.840205    0.336827    0.000000
    32  O2    c     0.220759    0.749144    0.650949    0.000000
    33  O3    c     0.030890    0.010736    0.511762    0.000000
    34  O3    c     0.948077    0.025296    0.213564    0.000000
    35  O2    c     0.048977    0.887659    0.769728    0.000000
    36  O2    c     0.064742    0.927112    0.026832    0.000000
    37  O1    s     0.305907    0.225179    0.470948    0.000000
    38  O2    s     0.708123    0.232954    0.554572    0.000000
    39  O3    s     0.702728    0.743347    0.565623    0.000000
    40  O2    s     0.370223    0.613952    0.501437    0.000000
    41  O3    s     0.267589    0.517362    0.268416    0.000000
    42  O3    s     0.751430    0.437158    0.748346    0.000000
    43  O3    s     0.501138    0.288471    0.315672    0.000000
    44  O3    s     0.559989    0.197315    0.719733    0.000000
    45  O3    s     0.523924    0.670358    0.740280    0.000000
    46  O2    s     0.487108    0.737864    0.327873    0.000000
    47  O3    s     0.193946    0.166660    0.194599    0.000000
    48  O2    s     0.852566    0.107226    0.812629    0.000000
    49  O3    s     0.833243    0.776889    0.847924    0.000000
    50  O2    s     0.210676    0.845325    0.291197    0.000000
    51  O3    s     0.328034    0.429377    0.693225    0.000000
    52  O2    s     0.706696    0.513807    0.400962    0.000000
    53  O3    s     0.267336    0.067679    0.711292    0.000000
    54  O3    s     0.777542    0.207440    0.335900    0.000000
    55  O3    s     0.763654    0.841678    0.345579    0.000000
    56  O2    s     0.228104    0.753799    0.653178    0.000000
    57  O3    s     0.029466    0.003074    0.513782    0.000000
    58  O3    s     0.958314    0.021702    0.221648    0.000000
    59  O2    s     0.048477    0.896691    0.768446    0.000000
    60  O2    s     0.056028    0.934591    0.025862    0.000000
--------------------------------------------------------------------------------

  Final Cartesian lattice vectors (Angstroms) :

        9.238201    0.020190   -0.071482
        0.009695    7.677286    0.362385
       -3.418159    0.472474    9.474162


  Final cell parameters and derivatives :

--------------------------------------------------------------------------------
       a            9.238500 Angstrom     dE/de1(xx)     0.004652 eV/strain
       b            7.685840 Angstrom     dE/de2(yy)     0.003640 eV/strain
       c           10.082995 Angstrom     dE/de3(zz)     0.001667 eV/strain
       alpha       84.797187 Degrees      dE/de4(yz)     0.001018 eV/strain
       beta       110.252572 Degrees      dE/de5(xz)     0.000088 eV/strain
       gamma       89.823553 Degrees      dE/de6(xy)     0.001722 eV/strain
--------------------------------------------------------------------------------

  Primitive cell volume =           668.463633 Angs**3

  Density of cell =      2.233650 g/cm**3

  Non-primitive cell volume =           668.463633 Angs**3


  Final internal derivatives :

--------------------------------------------------------------------------------
   No.  Atomic          a             b             c           Radius
        Label          (eV)          (eV)          (eV)        (eV/Angs)
--------------------------------------------------------------------------------
      1 Ge    c       0.000000      0.000000      0.000000      0.000000
      2 Ge    c      -0.000086     -0.000713     -0.000629      0.000000
      3 Ge    c      -0.001140     -0.000251      0.000389      0.000000
      4 Ge    c       0.000337      0.000854     -0.000178      0.000000
      5 Si    c       0.002902     -0.001876      0.000042      0.000000
      6 Si    c      -0.001148      0.001223      0.001174      0.000000
      7 Si    c       0.002279      0.001409      0.000580      0.000000
      8 Si    c      -0.000606     -0.000358      0.000494      0.000000
      9 Si    c      -0.000093      0.000668     -0.001274      0.000000
     10 Si    c      -0.000925     -0.000521     -0.001547      0.000000
     11 Si    c       0.001055     -0.001662     -0.002734      0.000000
     12 Si    c       0.000487      0.000805      0.000727      0.000000
     13 O1    c      -0.001684     -0.000970      0.000509      0.000000
     14 O2    c       0.001239     -0.000442     -0.004283      0.000000
     15 O3    c      -0.000323      0.000358      0.001305      0.000000
     16 O2    c      -0.000662      0.000299      0.000721      0.000000
     17 O3    c      -0.000575     -0.002816     -0.001075      0.000000
     18 O3    c       0.000212      0.008359      0.002452      0.000000
     19 O3    c      -0.004027     -0.002071     -0.001513      0.000000
     20 O3    c      -0.005563     -0.003629      0.001869      0.000000
     21 O3    c       0.002000      0.000529      0.000213      0.000000
     22 O2    c       0.001745      0.000207     -0.000735      0.000000
     23 O3    c       0.000716      0.000988     -0.000611      0.000000
     24 O2    c      -0.000473      0.000411      0.000003      0.000000
     25 O3    c      -0.000862     -0.000382      0.000273      0.000000
     26 O2    c       0.000952     -0.000825      0.000438      0.000000
     27 O3    c      -0.001011     -0.000233      0.001265      0.000000
     28 O2    c       0.000733     -0.001578      0.000703      0.000000
     29 O3    c       0.000885      0.000782      0.000316      0.000000
     30 O3    c      -0.000367      0.000455      0.000162      0.000000
     31 O3    c      -0.001574     -0.002066     -0.000261      0.000000
     32 O2    c      -0.000583      0.000891      0.000573      0.000000
     33 O3    c       0.001307     -0.000529      0.005031      0.000000
     34 O3    c      -0.004136      0.000557      0.002560      0.000000
     35 O2    c       0.000231      0.000451     -0.000227      0.000000
     36 O2    c      -0.000505      0.000646      0.001748      0.000000
     37 O1    s       0.000851      0.000824     -0.000427      0.000000
     38 O2    s       0.002616     -0.001553     -0.002523      0.000000
     39 O3    s      -0.000211      0.000450      0.000102      0.000000
     40 O2    s      -0.000336     -0.000254      0.000327      0.000000
     41 O3    s      -0.000321      0.001037      0.000844      0.000000
     42 O3    s       0.000608     -0.000852      0.001923      0.000000
     43 O3    s       0.001284      0.001193     -0.000428      0.000000
     44 O3    s      -0.001021     -0.000227      0.001381      0.000000
     45 O3    s      -0.000696     -0.000293      0.000087      0.000000
     46 O2    s      -0.000283      0.000380     -0.000685      0.000000
     47 O3    s       0.000557     -0.000162     -0.000910      0.000000
     48 O2    s       0.001860     -0.000911      0.000689      0.000000
     49 O3    s       0.000260     -0.000456     -0.000253      0.000000
     50 O2    s       0.000134      0.000248     -0.000240      0.000000
     51 O3    s       0.000262      0.000188     -0.000362      0.000000
     52 O2    s       0.000398      0.000969     -0.000991      0.000000
     53 O3    s      -0.000704     -0.000724     -0.000068      0.000000
     54 O3    s       0.001286      0.000596     -0.000603      0.000000
     55 O3    s       0.000673      0.000683     -0.000695      0.000000
     56 O2    s      -0.000741      0.000246     -0.000517      0.000000
     57 O3    s       0.000189     -0.000170     -0.001823      0.000000
     58 O3    s       0.001472     -0.000054     -0.001036      0.000000
     59 O2    s       0.000640     -0.000540     -0.000861      0.000000
     60 O2    s       0.000973     -0.000661     -0.000801      0.000000
--------------------------------------------------------------------------------
  Maximum abs         0.005563      0.008359      0.005031      0.000000
--------------------------------------------------------------------------------


  Born effective charge tensors : 

-------------------------------------------------------------------------------
  Atom             x           y             z
-------------------------------------------------------------------------------
    1 Ge    x       3.7953      0.3647      0.1341
            y       0.3067      4.2697      0.2613
            z       0.1895      0.2123      3.5889
-------------------------------------------------------------------------------
    2 Ge    x       3.8606      0.3182      0.2432
            y       0.2078      4.1556      0.3823
            z       0.2890      0.1304      3.5524
-------------------------------------------------------------------------------
    3 Ge    x       3.9995      0.3996     -0.0169
            y       0.2744      4.1889      0.0502
            z       0.0671      0.0318      3.4232
-------------------------------------------------------------------------------
    4 Ge    x       4.4785     -0.0389     -0.1412
            y      -0.0336      3.9352      0.0456
            z      -0.2855      0.0871      3.6720
-------------------------------------------------------------------------------
    5 Si    x       3.5240     -0.0581      0.1240
            y      -0.0975      3.8428     -0.1144
            z       0.2768     -0.0346      2.9983
-------------------------------------------------------------------------------
    6 Si    x       3.0955     -0.1150      0.0563
            y      -0.1497      3.6371      0.2211
            z       0.4233     -0.1842      2.8705
-------------------------------------------------------------------------------
    7 Si    x       3.8211     -0.3533     -0.0072
            y      -0.4226      3.5734      0.3346
            z       0.0016      0.0744      2.9335
-------------------------------------------------------------------------------
    8 Si    x       3.6104      0.4594     -0.1562
            y       0.4236      3.5882     -0.1233
            z      -0.1569      0.0609      3.1192
-------------------------------------------------------------------------------
    9 Si    x       3.6231     -0.0602      0.2236
            y      -0.0751      3.7515     -0.0914
            z      -0.0674      0.1712      2.8334
-------------------------------------------------------------------------------
   10 Si    x       3.9588      0.0077      0.1790
            y       0.1381      3.4609      0.1976
            z      -0.1855     -0.1893      3.2837
-------------------------------------------------------------------------------
   11 Si    x       3.7517      0.1149      0.2116
            y       0.1685      3.5198     -0.1510
            z      -0.1707      0.4959      3.8259
-------------------------------------------------------------------------------
   12 Si    x       3.4478      0.0364     -0.0622
            y       0.2968      3.4500      0.0920
            z       0.3792      0.2102      3.8127
-------------------------------------------------------------------------------
   13 O1    x      -1.4909     -0.2081      0.3250
            y      -0.1876     -1.5465      0.0652
            z       0.2895      0.1157     -2.6892
-------------------------------------------------------------------------------
   14 O2    x      -1.2433      0.0743      0.2090
            y       0.0708     -1.3523      0.1409
            z       0.1775      0.1535     -1.9926
-------------------------------------------------------------------------------
   15 O3    x      -1.3891     -0.1558      0.2322
            y      -0.1165     -1.4772     -0.0881
            z       0.2599     -0.0171     -2.5202
-------------------------------------------------------------------------------
   16 O2    x      -1.3291      0.0633      0.2432
            y       0.0887     -1.3527      0.0863
            z       0.2283      0.1421     -1.9691
-------------------------------------------------------------------------------
   17 O3    x      -1.2537     -0.0361     -0.1206
            y      -0.0556     -2.9346     -0.3326
            z      -0.2028     -0.2906     -1.4255
-------------------------------------------------------------------------------
   18 O3    x      -1.2598      0.0593     -0.0779
            y       0.1047     -3.2445     -0.2171
            z      -0.1052     -0.1733     -1.2658
-------------------------------------------------------------------------------
   19 O3    x      -2.8312     -0.1057     -0.4882
            y      -0.0589     -1.3848     -0.1199
            z      -0.5422     -0.0946     -1.3947
-------------------------------------------------------------------------------
   20 O3    x      -2.9958     -0.1356     -0.2841
            y      -0.1037     -1.4067      0.0655
            z      -0.3109      0.0413     -1.2517
-------------------------------------------------------------------------------
   21 O3    x      -2.7535     -0.1682     -0.4196
            y      -0.1245     -1.3703     -0.1527
            z      -0.4447     -0.1771     -1.4509
-------------------------------------------------------------------------------
   22 O2    x      -2.2495     -0.0865     -0.2277
            y      -0.0441     -1.2500      0.0490
            z      -0.2751      0.0698     -1.1759
-------------------------------------------------------------------------------
   23 O3    x      -1.7053     -0.8044     -0.4342
            y      -0.7957     -2.5065     -0.5386
            z      -0.4134     -0.6726     -1.7312
-------------------------------------------------------------------------------
   24 O2    x      -1.5180      0.5926     -0.3435
            y       0.5690     -1.9600      0.4742
            z      -0.4058      0.4462     -1.5174
-------------------------------------------------------------------------------
   25 O3    x      -1.9354     -0.8378     -0.4341
            y      -0.9176     -2.3077     -0.5928
            z      -0.5291     -0.5761     -1.7732
-------------------------------------------------------------------------------
   26 O2    x      -1.5096      0.5668     -0.3418
            y       0.5482     -1.9132      0.4543
            z      -0.3332      0.4443     -1.5097
-------------------------------------------------------------------------------
   27 O3    x      -1.3909     -0.0745      0.1067
            y      -0.0624     -3.0453     -0.0105
            z       0.1517      0.0102     -1.2153
-------------------------------------------------------------------------------
   28 O2    x      -1.2569      0.0455      0.0177
            y       0.0636     -2.4897     -0.0936
            z       0.0333     -0.0699     -1.0374
-------------------------------------------------------------------------------
   29 O3    x      -2.2529     -1.0112     -0.0266
            y      -0.9817     -2.3228     -0.0697
            z       0.0239     -0.0170     -1.2816
-------------------------------------------------------------------------------
   30 O3    x      -2.3034      1.0390      0.3764
            y       0.9805     -2.3017     -0.2781
            z       0.3625     -0.2322     -1.3341
-------------------------------------------------------------------------------
   31 O3    x      -2.3616     -1.0935      0.2734
            y      -1.0473     -2.3159      0.2207
            z       0.2840      0.1858     -1.2666
-------------------------------------------------------------------------------
   32 O2    x      -1.8966      0.7646      0.0751
            y       0.7420     -1.9821     -0.1113
            z       0.1798     -0.1247     -1.0575
-------------------------------------------------------------------------------
   33 O3    x      -1.8281      0.1609     -0.7655
            y       0.0994     -1.3374      0.2270
            z      -0.4929      0.2866     -2.4957
-------------------------------------------------------------------------------
   34 O3    x      -2.8610      0.1793      0.8054
            y       0.1667     -1.2432     -0.0207
            z       0.8687     -0.1172     -1.9508
-------------------------------------------------------------------------------
   35 O2    x      -2.1721      0.0756      0.7396
            y       0.0301     -1.1490     -0.0838
            z       0.6766     -0.0407     -1.7258
-------------------------------------------------------------------------------
   36 O2    x      -1.1786      0.0207     -0.2280
            y      -0.0056     -1.1791     -0.1783
            z      -0.2413     -0.3585     -2.8820
-------------------------------------------------------------------------------




  Elastic Constant Matrix: (Units=GPa)

-------------------------------------------------------------------------------
  Indices      1         2         3         4         5         6    
-------------------------------------------------------------------------------
       1     59.3225   39.2790   17.4156    8.6065    0.3455  -11.6427
       2     39.2790   77.0653   14.7862   11.8001    6.0491   -3.3589
       3     17.4156   14.7862   33.0077   11.2321    2.5795    5.4090
       4      8.6065   11.8001   11.2321   14.8895    2.5527    5.9519
       5      0.3455    6.0491    2.5795    2.5527   11.2247    7.8273
       6    -11.6427   -3.3589    5.4090    5.9519    7.8273   18.9246
-------------------------------------------------------------------------------


  Elastic Compliance Matrix: (Units=1/GPa)

-------------------------------------------------------------------------------
  Indices      1         2         3         4         5         6    
-------------------------------------------------------------------------------
       1    0.037966 -0.012004 -0.014991 -0.012861 -0.012563  0.034752
       2   -0.012004  0.021814  0.000264 -0.010336 -0.012451  0.004812
       3   -0.014991  0.000264  0.047891 -0.021250  0.007630 -0.019336
       4   -0.012861 -0.010336 -0.021250  0.114584  0.017541 -0.046966
       5   -0.012563 -0.012451  0.007630  0.017541  0.144385 -0.077355
       6    0.034752  0.004812 -0.019336 -0.046966 -0.077355  0.127367
-------------------------------------------------------------------------------

  Mechanical properties :

-------------------------------------------------------------------------------
  Convention :                    Reuss         Voigt         Hill
-------------------------------------------------------------------------------
  Bulk  Modulus (GPa)     =      18.44748      34.70635      26.57691
  Shear Modulus (GPa)     =       8.84114      15.53539      12.18826
-------------------------------------------------------------------------------
  Velocity S-wave (km/s)  =       1.98951       2.63726       2.33595
  Velocity P-wave (km/s)  =       3.67919       4.98111       4.37881
-------------------------------------------------------------------------------
  Compressibility (1/GPa) =    0.05420795
-------------------------------------------------------------------------------
  Stress axis :                     x             y             z
-------------------------------------------------------------------------------
  Youngs Moduli (GPa)     =      26.33937      45.84308      20.88090
-------------------------------------------------------------------------------
  Poissons Ratio (x)      =                     0.55032       0.31302
  Poissons Ratio (y)      =       0.31619                    -0.00551
  Poissons Ratio (z)      =       0.39485      -0.01211
-------------------------------------------------------------------------------


  Piezoelectric Strain Matrix: (Units=C/m**2)

-------------------------------------------------------------------------------
  Indices      1         2         3         4         5         6    
-------------------------------------------------------------------------------
       x    -0.00148  -0.47018   1.33700   0.41738  -0.00918   0.02727
       y     0.58673  -0.30180   0.01863  -0.06995  -0.03617   0.13962
       z    -0.15503   0.29720  -0.69235  -0.58418   1.13618  -0.05962
-------------------------------------------------------------------------------


  Piezoelectric Stress Matrix: (Units=10**-11 C/N)

-------------------------------------------------------------------------------
  Indices      1         2         3         4         5         6    
-------------------------------------------------------------------------------
       x    -1.87596  -1.39543   5.44612   2.28513   1.99613  -4.35858
       y     3.18254  -1.17764  -0.94723  -2.00291  -2.07214   4.24440
       z    -0.79075  -0.02341  -0.85189  -3.05734  15.13763  -5.86164
-------------------------------------------------------------------------------


  Static dielectric constant tensor : 

-------------------------------------------------------------------------------
              x         y         z
-------------------------------------------------------------------------------
       x     4.83368   0.20548   0.11682
       y     0.20548   4.92369   0.29246
       z     0.11682   0.29246   3.49240
--------------------------------------------------------------------------------

  High frequency dielectric constant tensor : 

-------------------------------------------------------------------------------
              x         y         z
-------------------------------------------------------------------------------
       x     1.64935  -0.00029   0.00816
       y    -0.00029   1.65519   0.00841
       z     0.00816   0.00841   1.59652
-------------------------------------------------------------------------------

  Static refractive indices : 

-------------------------------------------------------------------------------
    1 =    1.85225      2 =    2.16204      3 =    2.26815
-------------------------------------------------------------------------------

  High frequency refractive indices : 

-------------------------------------------------------------------------------
    1 =    1.26259      2 =    1.28469      3 =    1.28705
-------------------------------------------------------------------------------


  Time to end of optimisation =       3.7841 seconds


  Peak dynamic memory used =       2.76 MB 


  Timing analysis for GULP :

--------------------------------------------------------------------------------
  Task / Subroutine                                          Time (Seconds)
--------------------------------------------------------------------------------
  Calculation of reciprocal space energy and derivatives          0.2190
  Calculation of real space energy and derivatives                3.1363
  Calculation of three-body energy and derivatives                0.0781
  Calculation and manipulation of Hessian matrix                  0.7912
  Calculation of matrix inversion                                 0.0022
  Global summation overhead                                       0.0001
--------------------------------------------------------------------------------
  Total CPU time                                                  3.7841
--------------------------------------------------------------------------------


  Dump file written as c00029.vasp.grs
  CIF file written as c00029.vasp.cif


  Job Finished at 22:38.09  6th October    2025                               

