********************************************************************************
*                       GENERAL UTILITY LATTICE PROGRAM                        *
*                                 Julian Gale                                  *
*                       Curtin Institute for Computation                       *
*                    School of Molecular and Life Sciences                     *
*                    Curtin University, Western Australia                      *
********************************************************************************
* Version = 6.1.2 * Last modified =   3rd November 2022                        *
********************************************************************************
*  optimise     - perform optimisation run                                     *
*  conp         - constant pressure calculation                                *
*  property     - calculate properties for final geometry                      *
********************************************************************************

  Job Started  at 22:38.22  6th October    2025                               

  Number of CPUs =     1


  Total number of configurations input =      1

********************************************************************************
*  Input for Configuration =   1 : c00033.vasp                                 *
********************************************************************************

  Formula = Ge4Si8O24                                                   

  Number of irreducible atoms/shells =      60


  Total number atoms/shells =      60

  Dimensionality = 3               :  Bulk   



  Cartesian lattice vectors (Angstroms) :

        9.086940    0.000000    0.000000
        0.000000    7.554810    0.000000
       -3.295144    0.000000    9.944380

  Cell parameters (Angstroms/Degrees):

  a =       9.0869    alpha =  90.0000
  b =       7.5548    beta  = 108.3330
  c =      10.4761    gamma =  90.0000

  Initial cell volume =         682.682735 Angs**3

  Temperature of configuration =   0.00     K 

  Pressure of configuration =         0.000 GPa 

  Fractional coordinates of asymmetric unit :

--------------------------------------------------------------------------------
   No.  Atomic       x           y          z         Charge      Occupancy
        Label      (Frac)      (Frac)     (Frac)        (e)         (Frac)  
--------------------------------------------------------------------------------
      1 Ge    c    0.313820    0.296860    0.309830     4.00000    1.000000    
      2 Ge    c    0.686180 *  0.703140 *  0.690170 *   4.00000    1.000000    
      3 Ge    c    0.668950 *  0.296920 *  0.392620 *   4.00000    1.000000    
      4 Ge    c    0.331050 *  0.703080 *  0.607380 *   4.00000    1.000000    
      5 Si    c    0.686180 *  0.296860 *  0.690170 *   4.00000    1.000000    
      6 Si    c    0.313820 *  0.703140 *  0.309830 *   4.00000    1.000000    
      7 Si    c    0.331050 *  0.296920 *  0.607380 *   4.00000    1.000000    
      8 Si    c    0.668950 *  0.703080 *  0.392620 *   4.00000    1.000000    
      9 Si    c    0.879680 *  0.000000 *  0.350160 *   4.00000    1.000000    
     10 Si    c    0.120320 *  0.000000 *  0.649840 *   4.00000    1.000000    
     11 Si    c    0.093070 *  0.000000 *  0.158230 *   4.00000    1.000000    
     12 Si    c    0.906930 *  0.000000 *  0.841770 *   4.00000    1.000000    
     13 O3    c    0.268740 *  0.279030 *  0.446100 *   1.33043    1.000000    
     14 O3    c    0.731260 *  0.279030 *  0.553900 *   1.33043    1.000000    
     15 O3    c    0.731260 *  0.720970 *  0.553900 *   1.33043    1.000000    
     16 O3    c    0.268740 *  0.720970 *  0.446100 *   1.33043    1.000000    
     17 O3    c    0.295480 *  0.500000 *  0.260860 *   1.33043    1.000000    
     18 O3    c    0.704520 *  0.500000 *  0.739140 *   1.33043    1.000000    
     19 O1    c    0.490600 *  0.234690 *  0.337530 *   1.73396    1.000000    
     20 O2    c    0.509400 *  0.234690 *  0.662470 *   0.87073    1.000000    
     21 O1    c    0.509400 *  0.765310 *  0.662470 *   1.73396    1.000000    
     22 O2    c    0.490600 *  0.765310 *  0.337530 *   0.87073    1.000000    
     23 O3    c    0.200440 *  0.174000 *  0.194980 *   1.33043    1.000000    
     24 O2    c    0.799560 *  0.174000 *  0.805020 *   0.87073    1.000000    
     25 O3    c    0.799560 *  0.826000 *  0.805020 *   1.33043    1.000000    
     26 O2    c    0.200440 *  0.826000 *  0.194980 *   0.87073    1.000000    
     27 O3    c    0.317860 *  0.500000 *  0.649090 *   1.33043    1.000000    
     28 O3    c    0.682140 *  0.500000 *  0.350910 *   1.33043    1.000000    
     29 O2    c    0.227920 *  0.173870 *  0.671620 *   0.87073    1.000000    
     30 O3    c    0.772080 *  0.173870 *  0.328380 *   1.33043    1.000000    
     31 O2    c    0.772080 *  0.826130 *  0.328380 *   0.87073    1.000000    
     32 O3    c    0.227920 *  0.826130 *  0.671620 *   1.33043    1.000000    
     33 O2    c    0.000000 *  0.000000 *  0.500000 *   0.87073    1.000000    
     34 O2    c    0.971960 *  0.000000 *  0.241930 *   0.87073    1.000000    
     35 O2    c    0.028040 *  0.000000 *  0.758070 *   0.87073    1.000000    
     36 O2    c    0.000000 *  0.000000 *  0.000000 *   0.87073    1.000000    
     37 O3    s    0.268740 *  0.279030 *  0.446100 *  -3.33043    1.000000    
     38 O3    s    0.731260 *  0.279030 *  0.553900 *  -3.33043    1.000000    
     39 O3    s    0.731260 *  0.720970 *  0.553900 *  -3.33043    1.000000    
     40 O3    s    0.268740 *  0.720970 *  0.446100 *  -3.33043    1.000000    
     41 O3    s    0.295480 *  0.500000 *  0.260860 *  -3.33043    1.000000    
     42 O3    s    0.704520 *  0.500000 *  0.739140 *  -3.33043    1.000000    
     43 O1    s    0.490600 *  0.234690 *  0.337530 *  -3.73396    1.000000    
     44 O2    s    0.509400 *  0.234690 *  0.662470 *  -2.87073    1.000000    
     45 O1    s    0.509400 *  0.765310 *  0.662470 *  -3.73396    1.000000    
     46 O2    s    0.490600 *  0.765310 *  0.337530 *  -2.87073    1.000000    
     47 O3    s    0.200440 *  0.174000 *  0.194980 *  -3.33043    1.000000    
     48 O2    s    0.799560 *  0.174000 *  0.805020 *  -2.87073    1.000000    
     49 O3    s    0.799560 *  0.826000 *  0.805020 *  -3.33043    1.000000    
     50 O2    s    0.200440 *  0.826000 *  0.194980 *  -2.87073    1.000000    
     51 O3    s    0.317860 *  0.500000 *  0.649090 *  -3.33043    1.000000    
     52 O3    s    0.682140 *  0.500000 *  0.350910 *  -3.33043    1.000000    
     53 O2    s    0.227920 *  0.173870 *  0.671620 *  -2.87073    1.000000    
     54 O3    s    0.772080 *  0.173870 *  0.328380 *  -3.33043    1.000000    
     55 O2    s    0.772080 *  0.826130 *  0.328380 *  -2.87073    1.000000    
     56 O3    s    0.227920 *  0.826130 *  0.671620 *  -3.33043    1.000000    
     57 O2    s    0.000000 *  0.000000 *  0.500000 *  -2.87073    1.000000    
     58 O2    s    0.971960 *  0.000000 *  0.241930 *  -2.87073    1.000000    
     59 O2    s    0.028040 *  0.000000 *  0.758070 *  -2.87073    1.000000    
     60 O2    s    0.000000 *  0.000000 *  0.000000 *  -2.87073    1.000000    
--------------------------------------------------------------------------------



********************************************************************************
*  General input information                                                   *
********************************************************************************

  Species output for all configurations : 

--------------------------------------------------------------------------------
  Species    Type    Atomic    Atomic    Charge       Radii (Angs)     Library
                     Number     Mass       (e)     Cova   Ionic  VDW   Symbol
--------------------------------------------------------------------------------
    Ge       Core       32      72.61   4.000000   1.170  0.000  1.750 Ge       
    Si       Core       14      28.09   4.000000   1.200  0.000  2.100 Si       
    O1       Core        8      16.00   1.733957   0.730  0.000  1.360 O1       
    O2       Core        8      16.00   0.870733   0.730  0.000  1.360 O2       
    O3       Core        8      16.00   1.330431   0.730  0.000  1.360 O3       
    O1       Shell       8       0.00  -3.733957   0.730  0.000  0.000 O1       
    O2       Shell       8       0.00  -2.870733   0.730  0.000  0.000 O2       
    O3       Shell       8       0.00  -3.330431   0.730  0.000  0.000 O3       
--------------------------------------------------------------------------------


  Lattice summation method               =    Ewald          (3-D)
                                         =    Parry          (2-D)
                                         =    Saunders et al (1-D)
  Accuracy factor for lattice sums       =   12.000


  Analytic derivatives to be used

  Time limit = Infinity

  Maximum range for interatomic potentials =    100000.000000 Angstroms

  General interatomic potentials :

--------------------------------------------------------------------------------
Atom  Types   Potential      Parameter       Value         Units   Cutoffs(Ang)
  1     2                                                            Min /  Max 
--------------------------------------------------------------------------------
Si   c O1   s Buckingham    Buckingham A     1315.2478    eV        0.000 16.000
                            Buckingham rho  0.31775900    Ang       
                            Buckingham C     10.141118    eV*Ang^6  
--------------------------------------------------------------------------------
Si   c O2   s Buckingham    Buckingham A     1315.2478    eV        0.000 16.000
                            Buckingham rho  0.31775900    Ang       
                            Buckingham C     10.141118    eV*Ang^6  
--------------------------------------------------------------------------------
Si   c O3   s Buckingham    Buckingham A     1315.2478    eV        0.000 16.000
                            Buckingham rho  0.31775900    Ang       
                            Buckingham C     10.141118    eV*Ang^6  
--------------------------------------------------------------------------------
Ge   c O1   s Buckingham    Buckingham A     1497.3996    eV        0.000 16.000
                            Buckingham rho  0.32564600    Ang       
                            Buckingham C     16.808599    eV*Ang^6  
--------------------------------------------------------------------------------
Ge   c O2   s Buckingham    Buckingham A     1497.3996    eV        0.000 16.000
                            Buckingham rho  0.32564600    Ang       
                            Buckingham C     16.808599    eV*Ang^6  
--------------------------------------------------------------------------------
Ge   c O3   s Buckingham    Buckingham A     1497.3996    eV        0.000 16.000
                            Buckingham rho  0.32564600    Ang       
                            Buckingham C     16.808599    eV*Ang^6  
--------------------------------------------------------------------------------
O1   s O1   s Buckingham    Buckingham A     22764.000    eV        0.000 16.000
                            Buckingham rho  0.14900000    Ang       
                            Buckingham C     10.937044    eV*Ang^6  
--------------------------------------------------------------------------------
O1   s O2   s Buckingham    Buckingham A     22764.000    eV        0.000 16.000
                            Buckingham rho  0.14900000    Ang       
                            Buckingham C     10.937044    eV*Ang^6  
--------------------------------------------------------------------------------
O1   s O3   s Buckingham    Buckingham A     22764.000    eV        0.000 16.000
                            Buckingham rho  0.14900000    Ang       
                            Buckingham C     10.937044    eV*Ang^6  
--------------------------------------------------------------------------------
O2   s O2   s Buckingham    Buckingham A     22764.000    eV        0.000 16.000
                            Buckingham rho  0.14900000    Ang       
                            Buckingham C     10.937044    eV*Ang^6  
--------------------------------------------------------------------------------
O2   s O3   s Buckingham    Buckingham A     22764.000    eV        0.000 16.000
                            Buckingham rho  0.14900000    Ang       
                            Buckingham C     10.937044    eV*Ang^6  
--------------------------------------------------------------------------------
O3   s O3   s Buckingham    Buckingham A     22764.000    eV        0.000 16.000
                            Buckingham rho  0.14900000    Ang       
                            Buckingham C     10.937044    eV*Ang^6  
--------------------------------------------------------------------------------
O1   c O1   s Spring (c-s)  Spring k 2       180.31577    eV*Ang^-2 0.000  0.800
                            Spring k 4       0.0000000    eV*Ang^-4 
--------------------------------------------------------------------------------
O2   c O2   s Spring (c-s)  Spring k 2       75.969800    eV*Ang^-2 0.000  0.800
                            Spring k 4       0.0000000    eV*Ang^-4 
--------------------------------------------------------------------------------
O3   c O3   s Spring (c-s)  Spring k 2       128.14270    eV*Ang^-2 0.000  0.800
                            Spring k 4       0.0000000    eV*Ang^-4 
--------------------------------------------------------------------------------

  General Three-body potentials :

--------------------------------------------------------------------------------
  Atoms       Potential      Parameter       Value         Units   Cutoffs(Ang)
  1 / 2 / 3                                                          Min /  Max 
--------------------------------------------------------------------------------
Si    core    Harmonic      Three-body cnst  1.2614000    eV*rad^-2 0.000  1.900
O1    shel                  Three-body angl  109.47000    degrees   0.000  1.900
O1    shel                  Three-body k4    0.0000000    eV*rad^-4 0.000  3.500
                            Three-body k3    0.0000000    eV*rad^-3 
--------------------------------------------------------------------------------
Si    core    Harmonic      Three-body cnst  1.2614000    eV*rad^-2 0.000  1.900
O1    shel                  Three-body angl  109.47000    degrees   0.000  1.900
õ(1   shel                  Three-body k4    0.0000000    eV*rad^-4 0.000  3.500
                            Three-body k3    0.0000000    eV*rad^-3 
--------------------------------------------------------------------------------
Si    core    Harmonic      Three-body cnst  1.2614000    eV*rad^-2 0.000  1.900
õ(1   shel                  Three-body angl  109.47000    degrees   0.000  1.900
õ(1   shel                  Three-body k4    0.0000000    eV*rad^-4 0.000  3.500
                            Three-body k3    0.0000000    eV*rad^-3 
--------------------------------------------------------------------------------
Si    core    Harmonic      Three-body cnst  1.2614000    eV*rad^-2 0.000  1.900
O1    shel                  Three-body angl  109.47000    degrees   0.000  1.900
O2    shel                  Three-body k4    0.0000000    eV*rad^-4 0.000  3.500
                            Three-body k3    0.0000000    eV*rad^-3 
--------------------------------------------------------------------------------
Si    core    Harmonic      Three-body cnst  1.2614000    eV*rad^-2 0.000  1.900
O1    shel                  Three-body angl  109.47000    degrees   0.000  1.900
õ(2   shel                  Three-body k4    0.0000000    eV*rad^-4 0.000  3.500
                            Three-body k3    0.0000000    eV*rad^-3 
--------------------------------------------------------------------------------
Si    core    Harmonic      Three-body cnst  1.2614000    eV*rad^-2 0.000  1.900
O2    shel                  Three-body angl  109.47000    degrees   0.000  1.900
õ(1   shel                  Three-body k4    0.0000000    eV*rad^-4 0.000  3.500
                            Three-body k3    0.0000000    eV*rad^-3 
--------------------------------------------------------------------------------
Si    core    Harmonic      Three-body cnst  1.2614000    eV*rad^-2 0.000  1.900
õ(1   shel                  Three-body angl  109.47000    degrees   0.000  1.900
õ(2   shel                  Three-body k4    0.0000000    eV*rad^-4 0.000  3.500
                            Three-body k3    0.0000000    eV*rad^-3 
--------------------------------------------------------------------------------
Si    core    Harmonic      Three-body cnst  1.2614000    eV*rad^-2 0.000  1.900
O2    shel                  Three-body angl  109.47000    degrees   0.000  1.900
O2    shel                  Three-body k4    0.0000000    eV*rad^-4 0.000  3.500
                            Three-body k3    0.0000000    eV*rad^-3 
--------------------------------------------------------------------------------
Si    core    Harmonic      Three-body cnst  1.2614000    eV*rad^-2 0.000  1.900
O2    shel                  Three-body angl  109.47000    degrees   0.000  1.900
õ(2   shel                  Three-body k4    0.0000000    eV*rad^-4 0.000  3.500
                            Three-body k3    0.0000000    eV*rad^-3 
--------------------------------------------------------------------------------
Si    core    Harmonic      Three-body cnst  1.2614000    eV*rad^-2 0.000  1.900
õ(2   shel                  Three-body angl  109.47000    degrees   0.000  1.900
õ(2   shel                  Three-body k4    0.0000000    eV*rad^-4 0.000  3.500
                            Three-body k3    0.0000000    eV*rad^-3 
--------------------------------------------------------------------------------

********************************************************************************
*  Output for configuration   1 : c00033.vasp                                  *
********************************************************************************


  Components of energy : 

--------------------------------------------------------------------------------
  Interatomic potentials     =         400.28677577 eV    
  Three-body potentials      =           0.00022761 eV    
  Monopole - monopole (real) =       -1236.99964305 eV    
  Monopole - monopole (recip)=        -659.26603192 eV    
  Monopole - monopole (total)=       -1896.26567496 eV    
--------------------------------------------------------------------------------
  Total lattice energy       =       -1495.97867158 eV    
--------------------------------------------------------------------------------
  Total lattice energy       =         -144339.0737 kJ/(mole unit cells)
--------------------------------------------------------------------------------


  Number of variables =      183

  Maximum number of calculations  =          1000
  Maximum Hessian update interval =            10
  Maximum step size               =   0.100000000
  Maximum parameter tolerance     =   0.000010000
  Maximum function  tolerance     =   0.000010000
  Maximum gradient  tolerance     =   0.001000000
  Maximum gradient  component     =   0.010000000

  Symmetry not applied to optimisation

  Cell parameters to be optimised using strains

  Newton-Raphson optimiser to be used

  BFGS hessian update to be used

  Lower half triangular hessian to be used

  Minimiser to switch to RFO
  When gradient norm is less than     0.050000

  Dumpfile to be written after every cycle

  Start of bulk optimisation :

  Cycle:      0 Energy:     -1495.978672  Gnorm:      5.684853  CPU:    0.033
  ** Hessian calculated **
  Cycle:      1 Energy:     -1512.007718  Gnorm:      1.481827  CPU:    0.070
  ** Hessian calculated **
  Cycle:      2 Energy:     -1515.400836  Gnorm:      0.737171  CPU:    0.138
  ** Hessian calculated **
  Cycle:      3 Energy:     -1515.850037  Gnorm:      0.419308  CPU:    0.199
  Cycle:      4 Energy:     -1516.060256  Gnorm:      0.264028  CPU:    0.237
  Cycle:      5 Energy:     -1516.234405  Gnorm:      0.200642  CPU:    0.282
  Cycle:      6 Energy:     -1516.388313  Gnorm:      0.170961  CPU:    0.326
  Cycle:      7 Energy:     -1516.475770  Gnorm:      0.134083  CPU:    0.363
  Cycle:      8 Energy:     -1516.529069  Gnorm:      0.116122  CPU:    0.401
  Cycle:      9 Energy:     -1516.556265  Gnorm:      0.075952  CPU:    0.438
  Cycle:     10 Energy:     -1516.567728  Gnorm:      0.055750  CPU:    0.475
  Cycle:     11 Energy:     -1516.578626  Gnorm:      0.051240  CPU:    0.520
  Cycle:     12 Energy:     -1516.588374  Gnorm:      0.050499  CPU:    0.563
  ** Hessian calculated **
  Cycle:     13 Energy:     -1516.594921  Gnorm:      0.049971  CPU:    0.631
  ** Hessian has wrong structure
  ** Imaginary eigenvectors =   1
  ** Hessian has wrong structure
  ** Imaginary eigenvectors =   1
  Cycle:     14 Energy:     -1516.604987  Gnorm:      0.054347  CPU:    0.753
  ** Hessian has wrong structure
  ** Imaginary eigenvectors =   1
  Cycle:     15 Energy:     -1516.621518  Gnorm:      0.052699  CPU:    0.867
  ** Hessian has wrong structure
  ** Imaginary eigenvectors =   1
  Cycle:     16 Energy:     -1516.646395  Gnorm:      0.050144  CPU:    1.005
  ** Hessian has wrong structure
  ** Imaginary eigenvectors =   1
  Cycle:     17 Energy:     -1516.676643  Gnorm:      0.046857  CPU:    1.135
  ** Hessian has wrong structure
  ** Imaginary eigenvectors =   1
  Cycle:     18 Energy:     -1516.725502  Gnorm:      0.041054  CPU:    1.274
  ** Hessian has wrong structure
  ** Imaginary eigenvectors =   1
  Cycle:     19 Energy:     -1516.780387  Gnorm:      0.033834  CPU:    1.398
  ** Hessian has required structure
  Cycle:     20 Energy:     -1516.843649  Gnorm:      0.025108  CPU:    1.471
  ** Hessian has required structure
  Cycle:     21 Energy:     -1516.890022  Gnorm:      0.019461  CPU:    1.521
  ** Hessian has required structure
  Cycle:     22 Energy:     -1516.901993  Gnorm:      0.033732  CPU:    1.558
  ** Hessian has required structure
  Cycle:     23 Energy:     -1516.924018  Gnorm:      0.026215  CPU:    1.609
  ** Hessian has required structure
  Cycle:     24 Energy:     -1516.928103  Gnorm:      0.017722  CPU:    1.659
  ** Hessian has required structure
  Cycle:     25 Energy:     -1516.932216  Gnorm:      0.014654  CPU:    1.710
  ** Hessian has required structure
  Cycle:     26 Energy:     -1516.935698  Gnorm:      0.011226  CPU:    1.754
  ** Hessian has required structure
  Cycle:     27 Energy:     -1516.938735  Gnorm:      0.007056  CPU:    1.798
  ** Hessian has required structure
  Cycle:     28 Energy:     -1516.939735  Gnorm:      0.007716  CPU:    1.841
  ** Hessian has required structure
  Cycle:     29 Energy:     -1516.940306  Gnorm:      0.005292  CPU:    1.885
  ** Hessian has required structure
  Cycle:     30 Energy:     -1516.940608  Gnorm:      0.003236  CPU:    1.952
  ** Hessian has required structure
  Cycle:     31 Energy:     -1516.940744  Gnorm:      0.001710  CPU:    2.003
  ** Hessian has required structure
  Cycle:     32 Energy:     -1516.940781  Gnorm:      0.001052  CPU:    2.048
  ** Hessian has required structure
  Cycle:     33 Energy:     -1516.940800  Gnorm:      0.000538  CPU:    2.099
  ** Hessian has required structure
  Cycle:     34 Energy:     -1516.940803  Gnorm:      0.000378  CPU:    2.136
  ** Hessian has required structure
  Cycle:     35 Energy:     -1516.940805  Gnorm:      0.000265  CPU:    2.174
  ** Hessian has required structure


  **** Optimisation achieved ****


  Final energy =   -1516.94080686 eV      
  Final Gnorm  =       0.00021251

  Components of energy : 

--------------------------------------------------------------------------------
  Interatomic potentials     =         404.10687746 eV    
  Three-body potentials      =           0.03037340 eV    
  Monopole - monopole (real) =        -838.86187510 eV    
  Monopole - monopole (recip)=       -1082.21618263 eV    
  Monopole - monopole (total)=       -1921.07805773 eV    
--------------------------------------------------------------------------------
  Total lattice energy       =       -1516.94080686 eV    
--------------------------------------------------------------------------------
  Total lattice energy       =         -146361.5993 kJ/(mole unit cells)
--------------------------------------------------------------------------------

  Final fractional coordinates of atoms :

--------------------------------------------------------------------------------
   No.  Atomic        x           y          z          Radius
        Label       (Frac)      (Frac)     (Frac)       (Angs) 
--------------------------------------------------------------------------------
     1  Ge    c     0.313820    0.296860    0.309830    0.000000
     2  Ge    c     0.724057    0.635574    0.732513    0.000000
     3  Ge    c     0.702228    0.293672    0.400637    0.000000
     4  Ge    c     0.335645    0.638758    0.641707    0.000000
     5  Si    c     0.715143    0.244463    0.704754    0.000000
     6  Si    c     0.322734    0.687974    0.337590    0.000000
     7  Si    c     0.337079    0.247523    0.616536    0.000000
     8  Si    c     0.700796    0.684913    0.425807    0.000000
     9  Si    c     0.900477    0.990297    0.368462    0.000000
    10  Si    c     0.137402    0.942138    0.673880    0.000000
    11  Si    c     0.110243    0.993502    0.175969    0.000000
    12  Si    c     0.927632    0.938935    0.866371    0.000000
    13  O3    c     0.258569    0.252087    0.454358    0.000000
    14  O3    c     0.775747    0.249976    0.575622    0.000000
    15  O3    c     0.779310    0.680344    0.587986    0.000000
    16  O3    c     0.262126    0.682452    0.466721    0.000000
    17  O3    c     0.282100    0.515037    0.261671    0.000000
    18  O3    c     0.755787    0.417399    0.780674    0.000000
    19  O1    c     0.506257    0.244571    0.329773    0.000000
    20  O2    c     0.524636    0.232752    0.639069    0.000000
    21  O1    c     0.531619    0.687851    0.712571    0.000000
    22  O2    c     0.513241    0.699706    0.403278    0.000000
    23  O3    c     0.185626    0.180671    0.186921    0.000000
    24  O2    c     0.784310    0.078201    0.807412    0.000000
    25  O3    c     0.852247    0.751768    0.855420    0.000000
    26  O2    c     0.253563    0.854236    0.234930    0.000000
    27  O3    c     0.305479    0.421232    0.674893    0.000000
    28  O3    c     0.732385    0.511200    0.367448    0.000000
    29  O2    c     0.276331    0.084534    0.690655    0.000000
    30  O3    c     0.818030    0.175928    0.335005    0.000000
    31  O2    c     0.761551    0.847898    0.351688    0.000000
    32  O3    c     0.219848    0.756508    0.707338    0.000000
    33  O2    c     0.018943    0.966218    0.521170    0.000000
    34  O2    c     0.987711    0.962261    0.259957    0.000000
    35  O2    c     0.050162    0.970177    0.782381    0.000000
    36  O2    c     0.018940    0.966220    0.021169    0.000000
    37  O3    s     0.270437    0.255062    0.458801    0.000000
    38  O3    s     0.763980    0.252829    0.574646    0.000000
    39  O3    s     0.767441    0.677369    0.583542    0.000000
    40  O3    s     0.273894    0.679600    0.467697    0.000000
    41  O3    s     0.288559    0.515022    0.272850    0.000000
    42  O3    s     0.749327    0.417414    0.769495    0.000000
    43  O1    s     0.506548    0.252528    0.333760    0.000000
    44  O2    s     0.524861    0.235755    0.643477    0.000000
    45  O1    s     0.531327    0.679897    0.708584    0.000000
    46  O2    s     0.513016    0.696699    0.398869    0.000000
    47  O3    s     0.188341    0.171090    0.195738    0.000000
    48  O2    s     0.791708    0.081852    0.802294    0.000000
    49  O3    s     0.849532    0.761349    0.846604    0.000000
    50  O2    s     0.246166    0.850585    0.240048    0.000000
    51  O3    s     0.310944    0.421059    0.666585    0.000000
    52  O3    s     0.726922    0.511373    0.375756    0.000000
    53  O2    s     0.268593    0.087621    0.680753    0.000000
    54  O3    s     0.816869    0.167002    0.343643    0.000000
    55  O2    s     0.769288    0.844812    0.361589    0.000000
    56  O3    s     0.221009    0.765434    0.698700    0.000000
    57  O2    s     0.018942    0.966218    0.521170    0.000000
    58  O2    s     0.991307    0.968879    0.263111    0.000000
    59  O2    s     0.046567    0.963559    0.779228    0.000000
    60  O2    s     0.018940    0.966220    0.021169    0.000000
--------------------------------------------------------------------------------

  Final Cartesian lattice vectors (Angstroms) :

        8.882442   -0.093492   -0.055793
       -0.079550    7.792400    0.326141
       -3.282992    0.461514    9.870936


  Final cell parameters and derivatives :

--------------------------------------------------------------------------------
       a            8.883109 Angstrom     dE/de1(xx)     0.007290 eV/strain
       b            7.799627 Angstrom     dE/de2(yy)     0.003044 eV/strain
       c           10.412800 Angstrom     dE/de3(zz)     0.000369 eV/strain
       alpha       85.001171 Degrees      dE/de4(yz)    -0.000934 eV/strain
       beta       108.764616 Degrees      dE/de5(xz)     0.000845 eV/strain
       gamma       91.201927 Degrees      dE/de6(xy)     0.000507 eV/strain
--------------------------------------------------------------------------------

  Primitive cell volume =           680.486574 Angs**3

  Density of cell =      2.194186 g/cm**3

  Non-primitive cell volume =           680.486574 Angs**3


  Final internal derivatives :

--------------------------------------------------------------------------------
   No.  Atomic          a             b             c           Radius
        Label          (eV)          (eV)          (eV)        (eV/Angs)
--------------------------------------------------------------------------------
      1 Ge    c       0.000000      0.000000      0.000000      0.000000
      2 Ge    c      -0.001533      0.002240     -0.003483      0.000000
      3 Ge    c      -0.001400     -0.000422      0.001698      0.000000
      4 Ge    c       0.002122      0.000804     -0.000758      0.000000
      5 Si    c       0.003969      0.002575      0.001592      0.000000
      6 Si    c      -0.004617     -0.004825     -0.000066      0.000000
      7 Si    c      -0.002977      0.002574     -0.002925      0.000000
      8 Si    c       0.003160     -0.004452      0.003821      0.000000
      9 Si    c       0.002137     -0.004271     -0.002315      0.000000
     10 Si    c      -0.000321      0.003931      0.001224      0.000000
     11 Si    c       0.000535     -0.001591     -0.005131      0.000000
     12 Si    c      -0.001025      0.000769      0.005865      0.000000
     13 O3    c       0.000615     -0.000552     -0.000362      0.000000
     14 O3    c       0.000071      0.000261     -0.002488      0.000000
     15 O3    c      -0.000440      0.000619      0.000467      0.000000
     16 O3    c       0.000217     -0.000404      0.000766      0.000000
     17 O3    c      -0.000369      0.008432     -0.001344      0.000000
     18 O3    c       0.000523     -0.007544      0.001044      0.000000
     19 O1    c       0.000057     -0.000244      0.000783      0.000000
     20 O2    c       0.002704     -0.003311     -0.002944      0.000000
     21 O1    c       0.001310     -0.001470     -0.000672      0.000000
     22 O2    c      -0.003354      0.003875      0.003797      0.000000
     23 O3    c      -0.003495     -0.004287     -0.002511      0.000000
     24 O2    c       0.003801     -0.004157      0.000111      0.000000
     25 O3    c       0.003179      0.004889      0.002658      0.000000
     26 O2    c      -0.004118      0.007026     -0.002052      0.000000
     27 O3    c      -0.003392      0.000094      0.003707      0.000000
     28 O3    c       0.003607     -0.001696     -0.005301      0.000000
     29 O2    c      -0.007261     -0.008306      0.004813      0.000000
     30 O3    c      -0.004251      0.005280      0.000639      0.000000
     31 O2    c       0.007055      0.009212     -0.007321      0.000000
     32 O3    c       0.002798     -0.002372     -0.000669      0.000000
     33 O2    c       0.000549      0.000066      0.001140      0.000000
     34 O2    c      -0.001176      0.000910      0.001532      0.000000
     35 O2    c       0.000834     -0.000717     -0.001079      0.000000
     36 O2    c      -0.000018      0.000104     -0.001262      0.000000
     37 O3    s      -0.001640      0.001120     -0.002093      0.000000
     38 O3    s       0.000633      0.000308      0.000091      0.000000
     39 O3    s       0.001629     -0.001560      0.004128      0.000000
     40 O3    s      -0.002200     -0.000116      0.002280      0.000000
     41 O3    s       0.000402     -0.005761      0.000175      0.000000
     42 O3    s      -0.001652      0.004896     -0.001099      0.000000
     43 O1    s       0.001602      0.001600      0.000083      0.000000
     44 O2    s       0.002435      0.001186      0.000000      0.000000
     45 O1    s      -0.001859     -0.001506     -0.001046      0.000000
     46 O2    s      -0.002738      0.000530      0.000374      0.000000
     47 O3    s       0.000474     -0.001211     -0.000320      0.000000
     48 O2    s       0.001613     -0.002077      0.000518      0.000000
     49 O3    s      -0.000526      0.001018     -0.000248      0.000000
     50 O2    s      -0.001883      0.001532      0.000270      0.000000
     51 O3    s       0.003340      0.004697     -0.002783      0.000000
     52 O3    s      -0.002274     -0.005184      0.003365      0.000000
     53 O2    s      -0.001920     -0.002565      0.000010      0.000000
     54 O3    s       0.002831     -0.003356     -0.002208      0.000000
     55 O2    s       0.002201      0.002072      0.000358      0.000000
     56 O3    s      -0.002417      0.003329      0.001147      0.000000
     57 O2    s       0.000661     -0.000375      0.000208      0.000000
     58 O2    s       0.002443     -0.000942     -0.000886      0.000000
     59 O2    s      -0.001394      0.001010      0.000498      0.000000
     60 O2    s       0.000036      0.000014      0.000338      0.000000
--------------------------------------------------------------------------------
  Maximum abs         0.007261      0.009212      0.007321      0.000000
--------------------------------------------------------------------------------


  Born effective charge tensors : 

-------------------------------------------------------------------------------
  Atom             x           y             z
-------------------------------------------------------------------------------
    1 Ge    x       3.9321      0.1269      0.2829
            y       0.2691      4.2043      0.3216
            z       0.1333      0.2527      3.5430
-------------------------------------------------------------------------------
    2 Ge    x       3.9321      0.1269      0.2829
            y       0.2691      4.2043      0.3216
            z       0.1333      0.2527      3.5430
-------------------------------------------------------------------------------
    3 Ge    x       4.1146     -0.2469     -0.0634
            y      -0.3668      4.1896      0.1519
            z       0.1773      0.1382      3.3151
-------------------------------------------------------------------------------
    4 Ge    x       4.1146     -0.2470     -0.0634
            y      -0.3668      4.1896      0.1519
            z       0.1774      0.1382      3.3151
-------------------------------------------------------------------------------
    5 Si    x       3.2536     -0.3100      0.2048
            y      -0.1501      3.7479      0.1221
            z      -0.0847     -0.1024      3.2256
-------------------------------------------------------------------------------
    6 Si    x       3.2537     -0.3099      0.2048
            y      -0.1501      3.7480      0.1221
            z      -0.0848     -0.1025      3.2256
-------------------------------------------------------------------------------
    7 Si    x       3.3768      0.3168     -0.2099
            y       0.0757      3.7393      0.2049
            z       0.1209      0.1065      3.0426
-------------------------------------------------------------------------------
    8 Si    x       3.3769      0.3167     -0.2100
            y       0.0757      3.7394      0.2049
            z       0.1209      0.1065      3.0426
-------------------------------------------------------------------------------
    9 Si    x       3.6955     -0.3349     -0.0308
            y      -0.0125      3.5459     -0.0472
            z      -0.3020      0.0622      3.0332
-------------------------------------------------------------------------------
   10 Si    x       3.6955     -0.3349     -0.0308
            y      -0.0125      3.5459     -0.0473
            z      -0.3020      0.0622      3.0332
-------------------------------------------------------------------------------
   11 Si    x       3.2765      0.2641      0.0105
            y       0.0074      3.5137      0.0227
            z       0.1934      0.2795      3.9448
-------------------------------------------------------------------------------
   12 Si    x       3.2765      0.2641      0.0105
            y       0.0074      3.5137      0.0227
            z       0.1934      0.2795      3.9448
-------------------------------------------------------------------------------
   13 O3    x      -1.4848     -0.1669      0.1633
            y      -0.1591     -1.3819      0.0195
            z       0.2143      0.0497     -2.5109
-------------------------------------------------------------------------------
   14 O3    x      -1.6298      0.1001      0.5065
            y       0.1054     -1.3819      0.1017
            z       0.4123      0.1276     -2.3622
-------------------------------------------------------------------------------
   15 O3    x      -1.4848     -0.1669      0.1633
            y      -0.1591     -1.3819      0.0195
            z       0.2143      0.0497     -2.5109
-------------------------------------------------------------------------------
   16 O3    x      -1.6298      0.1000      0.5065
            y       0.1053     -1.3819      0.1017
            z       0.4124      0.1277     -2.3622
-------------------------------------------------------------------------------
   17 O3    x      -1.2303     -0.0031     -0.1282
            y      -0.0054     -3.0784     -0.3233
            z      -0.0628     -0.2498     -1.3844
-------------------------------------------------------------------------------
   18 O3    x      -1.2304     -0.0031     -0.1282
            y      -0.0054     -3.0783     -0.3233
            z      -0.0629     -0.2498     -1.3844
-------------------------------------------------------------------------------
   19 O1    x      -3.1150      0.0348     -0.5056
            y       0.0272     -1.4865     -0.0912
            z      -0.5211     -0.0881     -1.3900
-------------------------------------------------------------------------------
   20 O2    x      -2.3819     -0.0030     -0.3529
            y       0.0001     -1.2596      0.0061
            z      -0.3593      0.0377     -1.1597
-------------------------------------------------------------------------------
   21 O1    x      -3.1150      0.0348     -0.5056
            y       0.0272     -1.4864     -0.0912
            z      -0.5211     -0.0881     -1.3900
-------------------------------------------------------------------------------
   22 O2    x      -2.3819     -0.0030     -0.3529
            y       0.0001     -1.2596      0.0061
            z      -0.3593      0.0377     -1.1597
-------------------------------------------------------------------------------
   23 O3    x      -1.5924     -0.7351     -0.3811
            y      -0.7018     -2.5806     -0.6165
            z      -0.4009     -0.6724     -1.7967
-------------------------------------------------------------------------------
   24 O2    x      -1.4837      0.5243     -0.3466
            y       0.5180     -1.9243      0.5034
            z      -0.3099      0.4937     -1.5337
-------------------------------------------------------------------------------
   25 O3    x      -1.5924     -0.7352     -0.3810
            y      -0.7018     -2.5806     -0.6165
            z      -0.4009     -0.6724     -1.7967
-------------------------------------------------------------------------------
   26 O2    x      -1.4837      0.5243     -0.3466
            y       0.5180     -1.9243      0.5034
            z      -0.3099      0.4937     -1.5337
-------------------------------------------------------------------------------
   27 O3    x      -1.3985      0.1163      0.1467
            y       0.1485     -3.0778     -0.2932
            z       0.0653     -0.2168     -1.2029
-------------------------------------------------------------------------------
   28 O3    x      -1.3985      0.1163      0.1467
            y       0.1484     -3.0778     -0.2932
            z       0.0652     -0.2168     -1.2029
-------------------------------------------------------------------------------
   29 O2    x      -1.8370     -0.7257      0.1374
            y      -0.7051     -1.9280      0.1392
            z       0.1020      0.1132     -1.1222
-------------------------------------------------------------------------------
   30 O3    x      -2.0821      0.9953      0.1955
            y       0.9143     -2.5566     -0.1104
            z       0.1990     -0.1238     -1.2579
-------------------------------------------------------------------------------
   31 O2    x      -1.8370     -0.7257      0.1375
            y      -0.7052     -1.9281      0.1392
            z       0.1020      0.1132     -1.1222
-------------------------------------------------------------------------------
   32 O3    x      -2.0821      0.9954      0.1955
            y       0.9142     -2.5567     -0.1104
            z       0.1990     -0.1238     -1.2579
-------------------------------------------------------------------------------
   33 O2    x      -1.4857      0.0442     -0.4890
            y      -0.0314     -1.1769      0.0224
            z      -0.2851      0.0235     -2.0906
-------------------------------------------------------------------------------
   34 O2    x      -2.1070      0.0535      0.7334
            y       0.0493     -1.1372     -0.0362
            z       0.7467     -0.0673     -1.7842
-------------------------------------------------------------------------------
   35 O2    x      -2.1070      0.0535      0.7334
            y       0.0493     -1.1372     -0.0362
            z       0.7468     -0.0673     -1.7842
-------------------------------------------------------------------------------
   36 O2    x      -1.1276     -0.0573     -0.2363
            y       0.0033     -1.1191     -0.1724
            z      -0.3625     -0.3044     -3.1086
-------------------------------------------------------------------------------




  Elastic Constant Matrix: (Units=GPa)

-------------------------------------------------------------------------------
  Indices      1         2         3         4         5         6    
-------------------------------------------------------------------------------
       1     39.4568   37.0293   21.5043   12.5319   -5.4124   -4.8300
       2     37.0293   85.0133   22.7893   15.1813    2.9310   -1.8879
       3     21.5043   22.7893   65.3538   15.2332   -1.8944    3.7960
       4     12.5319   15.1813   15.2332   16.5453    2.5544    6.0752
       5     -5.4124    2.9310   -1.8944    2.5544   13.8386    5.9703
       6     -4.8300   -1.8879    3.7960    6.0752    5.9703   20.0531
-------------------------------------------------------------------------------


  Elastic Compliance Matrix: (Units=1/GPa)

-------------------------------------------------------------------------------
  Indices      1         2         3         4         5         6    
-------------------------------------------------------------------------------
       1    0.066150 -0.021408 -0.006192 -0.035545  0.028643  0.017331
       2   -0.021408  0.022132 -0.000702 -0.001977 -0.013518  0.001684
       3   -0.006192 -0.000702  0.021067 -0.013749  0.004296 -0.002659
       4   -0.035545 -0.001977 -0.013749  0.118231 -0.021898 -0.035444
       5    0.028643 -0.013518  0.004296 -0.021898  0.098696 -0.017937
       6    0.017331  0.001684 -0.002659 -0.035444 -0.017937  0.070782
-------------------------------------------------------------------------------

  Mechanical properties :

-------------------------------------------------------------------------------
  Convention :                    Reuss         Voigt         Hill
-------------------------------------------------------------------------------
  Bulk  Modulus (GPa)     =      18.95939      39.16330      29.06134
  Shear Modulus (GPa)     =      10.61018      17.32080      13.96549
-------------------------------------------------------------------------------
  Velocity S-wave (km/s)  =       2.19900       2.80962       2.52285
  Velocity P-wave (km/s)  =       3.88435       5.32672       4.66166
-------------------------------------------------------------------------------
  Compressibility (1/GPa) =    0.05274433
-------------------------------------------------------------------------------
  Stress axis :                     x             y             z
-------------------------------------------------------------------------------
  Youngs Moduli (GPa)     =      15.11711      45.18244      47.46662
-------------------------------------------------------------------------------
  Poissons Ratio (x)      =                     0.96728       0.29393
  Poissons Ratio (y)      =       0.32363                     0.03333
  Poissons Ratio (z)      =       0.09361       0.03173
-------------------------------------------------------------------------------


  Piezoelectric Strain Matrix: (Units=C/m**2)

-------------------------------------------------------------------------------
  Indices      1         2         3         4         5         6    
-------------------------------------------------------------------------------
       x     0.00012   0.00005   0.00052   0.00022  -0.00027  -0.00015
       y     0.00074   0.00015   0.00054   0.00001  -0.00011   0.00009
       z    -0.00038  -0.00031  -0.00058  -0.00004   0.00015   0.00002
-------------------------------------------------------------------------------


  Piezoelectric Stress Matrix: (Units=10**-11 C/N)

-------------------------------------------------------------------------------
  Indices      1         2         3         4         5         6    
-------------------------------------------------------------------------------
       x    -0.00149   0.00013   0.00064   0.00261  -0.00243  -0.00128
       y     0.00405  -0.00114   0.00059  -0.00335   0.00088   0.00197
       z    -0.00090  -0.00001  -0.00084   0.00131   0.00058  -0.00052
-------------------------------------------------------------------------------


  Static dielectric constant tensor : 

-------------------------------------------------------------------------------
              x         y         z
-------------------------------------------------------------------------------
       x     4.43591  -0.02594   0.05453
       y    -0.02594   5.13495   0.21625
       z     0.05453   0.21625   3.55389
--------------------------------------------------------------------------------

  High frequency dielectric constant tensor : 

-------------------------------------------------------------------------------
              x         y         z
-------------------------------------------------------------------------------
       x     1.63123  -0.00191   0.00477
       y    -0.00191   1.64598   0.01029
       z     0.00477   0.01029   1.59164
-------------------------------------------------------------------------------

  Static refractive indices : 

-------------------------------------------------------------------------------
    1 =    1.87650      2 =    2.10691      3 =    2.27255
-------------------------------------------------------------------------------

  High frequency refractive indices : 

-------------------------------------------------------------------------------
    1 =    1.26062      2 =    1.27741      3 =    1.28372
-------------------------------------------------------------------------------


  Time to end of optimisation =       2.2586 seconds


  Peak dynamic memory used =       2.76 MB 


  Timing analysis for GULP :

--------------------------------------------------------------------------------
  Task / Subroutine                                          Time (Seconds)
--------------------------------------------------------------------------------
  Calculation of reciprocal space energy and derivatives          0.1522
  Calculation of real space energy and derivatives                1.8682
  Calculation of three-body energy and derivatives                0.0516
  Calculation and manipulation of Hessian matrix                  0.4794
  Calculation of matrix inversion                                 0.0031
--------------------------------------------------------------------------------
  Total CPU time                                                  2.2586
--------------------------------------------------------------------------------


  Dump file written as c00033.vasp.grs
  CIF file written as c00033.vasp.cif


  Job Finished at 22:38.24  6th October    2025                               

