********************************************************************************
*                       GENERAL UTILITY LATTICE PROGRAM                        *
*                                 Julian Gale                                  *
*                       Curtin Institute for Computation                       *
*                    School of Molecular and Life Sciences                     *
*                    Curtin University, Western Australia                      *
********************************************************************************
* Version = 6.1.2 * Last modified =   3rd November 2022                        *
********************************************************************************
*  optimise     - perform optimisation run                                     *
*  conp         - constant pressure calculation                                *
*  property     - calculate properties for final geometry                      *
********************************************************************************

  Job Started  at 22:38.36  6th October    2025                               

  Number of CPUs =     1


  Total number of configurations input =      1

********************************************************************************
*  Input for Configuration =   1 : c00037.vasp                                 *
********************************************************************************

  Formula = Ge4Si8O24                                                   

  Number of irreducible atoms/shells =      60


  Total number atoms/shells =      60

  Dimensionality = 3               :  Bulk   



  Cartesian lattice vectors (Angstroms) :

        9.086940    0.000000    0.000000
        0.000000    7.554810    0.000000
       -3.295144    0.000000    9.944380

  Cell parameters (Angstroms/Degrees):

  a =       9.0869    alpha =  90.0000
  b =       7.5548    beta  = 108.3330
  c =      10.4761    gamma =  90.0000

  Initial cell volume =         682.682735 Angs**3

  Temperature of configuration =   0.00     K 

  Pressure of configuration =         0.000 GPa 

  Fractional coordinates of asymmetric unit :

--------------------------------------------------------------------------------
   No.  Atomic       x           y          z         Charge      Occupancy
        Label      (Frac)      (Frac)     (Frac)        (e)         (Frac)  
--------------------------------------------------------------------------------
      1 Ge    c    0.313820    0.296860    0.309830     4.00000    1.000000    
      2 Ge    c    0.686180 *  0.703140 *  0.690170 *   4.00000    1.000000    
      3 Ge    c    0.668950 *  0.296920 *  0.392620 *   4.00000    1.000000    
      4 Ge    c    0.906930 *  0.000000 *  0.841770 *   4.00000    1.000000    
      5 Si    c    0.686180 *  0.296860 *  0.690170 *   4.00000    1.000000    
      6 Si    c    0.313820 *  0.703140 *  0.309830 *   4.00000    1.000000    
      7 Si    c    0.331050 *  0.296920 *  0.607380 *   4.00000    1.000000    
      8 Si    c    0.668950 *  0.703080 *  0.392620 *   4.00000    1.000000    
      9 Si    c    0.331050 *  0.703080 *  0.607380 *   4.00000    1.000000    
     10 Si    c    0.879680 *  0.000000 *  0.350160 *   4.00000    1.000000    
     11 Si    c    0.120320 *  0.000000 *  0.649840 *   4.00000    1.000000    
     12 Si    c    0.093070 *  0.000000 *  0.158230 *   4.00000    1.000000    
     13 O3    c    0.268740 *  0.279030 *  0.446100 *   1.33043    1.000000    
     14 O3    c    0.731260 *  0.279030 *  0.553900 *   1.33043    1.000000    
     15 O3    c    0.731260 *  0.720970 *  0.553900 *   1.33043    1.000000    
     16 O2    c    0.268740 *  0.720970 *  0.446100 *   0.87073    1.000000    
     17 O3    c    0.295480 *  0.500000 *  0.260860 *   1.33043    1.000000    
     18 O3    c    0.704520 *  0.500000 *  0.739140 *   1.33043    1.000000    
     19 O1    c    0.490600 *  0.234690 *  0.337530 *   1.73396    1.000000    
     20 O2    c    0.509400 *  0.234690 *  0.662470 *   0.87073    1.000000    
     21 O3    c    0.509400 *  0.765310 *  0.662470 *   1.33043    1.000000    
     22 O2    c    0.490600 *  0.765310 *  0.337530 *   0.87073    1.000000    
     23 O3    c    0.200440 *  0.174000 *  0.194980 *   1.33043    1.000000    
     24 O3    c    0.799560 *  0.174000 *  0.805020 *   1.33043    1.000000    
     25 O1    c    0.799560 *  0.826000 *  0.805020 *   1.73396    1.000000    
     26 O2    c    0.200440 *  0.826000 *  0.194980 *   0.87073    1.000000    
     27 O2    c    0.317860 *  0.500000 *  0.649090 *   0.87073    1.000000    
     28 O3    c    0.682140 *  0.500000 *  0.350910 *   1.33043    1.000000    
     29 O2    c    0.227920 *  0.173870 *  0.671620 *   0.87073    1.000000    
     30 O3    c    0.772080 *  0.173870 *  0.328380 *   1.33043    1.000000    
     31 O2    c    0.772080 *  0.826130 *  0.328380 *   0.87073    1.000000    
     32 O2    c    0.227920 *  0.826130 *  0.671620 *   0.87073    1.000000    
     33 O2    c    0.000000 *  0.000000 *  0.500000 *   0.87073    1.000000    
     34 O2    c    0.971960 *  0.000000 *  0.241930 *   0.87073    1.000000    
     35 O3    c    0.028040 *  0.000000 *  0.758070 *   1.33043    1.000000    
     36 O3    c    0.000000 *  0.000000 *  0.000000 *   1.33043    1.000000    
     37 O3    s    0.268740 *  0.279030 *  0.446100 *  -3.33043    1.000000    
     38 O3    s    0.731260 *  0.279030 *  0.553900 *  -3.33043    1.000000    
     39 O3    s    0.731260 *  0.720970 *  0.553900 *  -3.33043    1.000000    
     40 O2    s    0.268740 *  0.720970 *  0.446100 *  -2.87073    1.000000    
     41 O3    s    0.295480 *  0.500000 *  0.260860 *  -3.33043    1.000000    
     42 O3    s    0.704520 *  0.500000 *  0.739140 *  -3.33043    1.000000    
     43 O1    s    0.490600 *  0.234690 *  0.337530 *  -3.73396    1.000000    
     44 O2    s    0.509400 *  0.234690 *  0.662470 *  -2.87073    1.000000    
     45 O3    s    0.509400 *  0.765310 *  0.662470 *  -3.33043    1.000000    
     46 O2    s    0.490600 *  0.765310 *  0.337530 *  -2.87073    1.000000    
     47 O3    s    0.200440 *  0.174000 *  0.194980 *  -3.33043    1.000000    
     48 O3    s    0.799560 *  0.174000 *  0.805020 *  -3.33043    1.000000    
     49 O1    s    0.799560 *  0.826000 *  0.805020 *  -3.73396    1.000000    
     50 O2    s    0.200440 *  0.826000 *  0.194980 *  -2.87073    1.000000    
     51 O2    s    0.317860 *  0.500000 *  0.649090 *  -2.87073    1.000000    
     52 O3    s    0.682140 *  0.500000 *  0.350910 *  -3.33043    1.000000    
     53 O2    s    0.227920 *  0.173870 *  0.671620 *  -2.87073    1.000000    
     54 O3    s    0.772080 *  0.173870 *  0.328380 *  -3.33043    1.000000    
     55 O2    s    0.772080 *  0.826130 *  0.328380 *  -2.87073    1.000000    
     56 O2    s    0.227920 *  0.826130 *  0.671620 *  -2.87073    1.000000    
     57 O2    s    0.000000 *  0.000000 *  0.500000 *  -2.87073    1.000000    
     58 O2    s    0.971960 *  0.000000 *  0.241930 *  -2.87073    1.000000    
     59 O3    s    0.028040 *  0.000000 *  0.758070 *  -3.33043    1.000000    
     60 O3    s    0.000000 *  0.000000 *  0.000000 *  -3.33043    1.000000    
--------------------------------------------------------------------------------



********************************************************************************
*  General input information                                                   *
********************************************************************************

  Species output for all configurations : 

--------------------------------------------------------------------------------
  Species    Type    Atomic    Atomic    Charge       Radii (Angs)     Library
                     Number     Mass       (e)     Cova   Ionic  VDW   Symbol
--------------------------------------------------------------------------------
    Ge       Core       32      72.61   4.000000   1.170  0.000  1.750 Ge       
    Si       Core       14      28.09   4.000000   1.200  0.000  2.100 Si       
    O1       Core        8      16.00   1.733957   0.730  0.000  1.360 O1       
    O2       Core        8      16.00   0.870733   0.730  0.000  1.360 O2       
    O3       Core        8      16.00   1.330431   0.730  0.000  1.360 O3       
    O1       Shell       8       0.00  -3.733957   0.730  0.000  0.000 O1       
    O2       Shell       8       0.00  -2.870733   0.730  0.000  0.000 O2       
    O3       Shell       8       0.00  -3.330431   0.730  0.000  0.000 O3       
--------------------------------------------------------------------------------


  Lattice summation method               =    Ewald          (3-D)
                                         =    Parry          (2-D)
                                         =    Saunders et al (1-D)
  Accuracy factor for lattice sums       =   12.000


  Analytic derivatives to be used

  Time limit = Infinity

  Maximum range for interatomic potentials =    100000.000000 Angstroms

  General interatomic potentials :

--------------------------------------------------------------------------------
Atom  Types   Potential      Parameter       Value         Units   Cutoffs(Ang)
  1     2                                                            Min /  Max 
--------------------------------------------------------------------------------
Si   c O1   s Buckingham    Buckingham A     1315.2478    eV        0.000 16.000
                            Buckingham rho  0.31775900    Ang       
                            Buckingham C     10.141118    eV*Ang^6  
--------------------------------------------------------------------------------
Si   c O2   s Buckingham    Buckingham A     1315.2478    eV        0.000 16.000
                            Buckingham rho  0.31775900    Ang       
                            Buckingham C     10.141118    eV*Ang^6  
--------------------------------------------------------------------------------
Si   c O3   s Buckingham    Buckingham A     1315.2478    eV        0.000 16.000
                            Buckingham rho  0.31775900    Ang       
                            Buckingham C     10.141118    eV*Ang^6  
--------------------------------------------------------------------------------
Ge   c O1   s Buckingham    Buckingham A     1497.3996    eV        0.000 16.000
                            Buckingham rho  0.32564600    Ang       
                            Buckingham C     16.808599    eV*Ang^6  
--------------------------------------------------------------------------------
Ge   c O2   s Buckingham    Buckingham A     1497.3996    eV        0.000 16.000
                            Buckingham rho  0.32564600    Ang       
                            Buckingham C     16.808599    eV*Ang^6  
--------------------------------------------------------------------------------
Ge   c O3   s Buckingham    Buckingham A     1497.3996    eV        0.000 16.000
                            Buckingham rho  0.32564600    Ang       
                            Buckingham C     16.808599    eV*Ang^6  
--------------------------------------------------------------------------------
O1   s O1   s Buckingham    Buckingham A     22764.000    eV        0.000 16.000
                            Buckingham rho  0.14900000    Ang       
                            Buckingham C     10.937044    eV*Ang^6  
--------------------------------------------------------------------------------
O1   s O2   s Buckingham    Buckingham A     22764.000    eV        0.000 16.000
                            Buckingham rho  0.14900000    Ang       
                            Buckingham C     10.937044    eV*Ang^6  
--------------------------------------------------------------------------------
O1   s O3   s Buckingham    Buckingham A     22764.000    eV        0.000 16.000
                            Buckingham rho  0.14900000    Ang       
                            Buckingham C     10.937044    eV*Ang^6  
--------------------------------------------------------------------------------
O2   s O2   s Buckingham    Buckingham A     22764.000    eV        0.000 16.000
                            Buckingham rho  0.14900000    Ang       
                            Buckingham C     10.937044    eV*Ang^6  
--------------------------------------------------------------------------------
O2   s O3   s Buckingham    Buckingham A     22764.000    eV        0.000 16.000
                            Buckingham rho  0.14900000    Ang       
                            Buckingham C     10.937044    eV*Ang^6  
--------------------------------------------------------------------------------
O3   s O3   s Buckingham    Buckingham A     22764.000    eV        0.000 16.000
                            Buckingham rho  0.14900000    Ang       
                            Buckingham C     10.937044    eV*Ang^6  
--------------------------------------------------------------------------------
O1   c O1   s Spring (c-s)  Spring k 2       180.31577    eV*Ang^-2 0.000  0.800
                            Spring k 4       0.0000000    eV*Ang^-4 
--------------------------------------------------------------------------------
O2   c O2   s Spring (c-s)  Spring k 2       75.969800    eV*Ang^-2 0.000  0.800
                            Spring k 4       0.0000000    eV*Ang^-4 
--------------------------------------------------------------------------------
O3   c O3   s Spring (c-s)  Spring k 2       128.14270    eV*Ang^-2 0.000  0.800
                            Spring k 4       0.0000000    eV*Ang^-4 
--------------------------------------------------------------------------------

  General Three-body potentials :

--------------------------------------------------------------------------------
  Atoms       Potential      Parameter       Value         Units   Cutoffs(Ang)
  1 / 2 / 3                                                          Min /  Max 
--------------------------------------------------------------------------------
Si    core    Harmonic      Three-body cnst  1.2614000    eV*rad^-2 0.000  1.900
O1    shel                  Three-body angl  109.47000    degrees   0.000  1.900
O1    shel                  Three-body k4    0.0000000    eV*rad^-4 0.000  3.500
                            Three-body k3    0.0000000    eV*rad^-3 
--------------------------------------------------------------------------------
Si    core    Harmonic      Three-body cnst  1.2614000    eV*rad^-2 0.000  1.900
O1    shel                  Three-body angl  109.47000    degrees   0.000  1.900
õ(1   shel                  Three-body k4    0.0000000    eV*rad^-4 0.000  3.500
                            Three-body k3    0.0000000    eV*rad^-3 
--------------------------------------------------------------------------------
Si    core    Harmonic      Three-body cnst  1.2614000    eV*rad^-2 0.000  1.900
õ(1   shel                  Three-body angl  109.47000    degrees   0.000  1.900
õ(1   shel                  Three-body k4    0.0000000    eV*rad^-4 0.000  3.500
                            Three-body k3    0.0000000    eV*rad^-3 
--------------------------------------------------------------------------------
Si    core    Harmonic      Three-body cnst  1.2614000    eV*rad^-2 0.000  1.900
O1    shel                  Three-body angl  109.47000    degrees   0.000  1.900
O2    shel                  Three-body k4    0.0000000    eV*rad^-4 0.000  3.500
                            Three-body k3    0.0000000    eV*rad^-3 
--------------------------------------------------------------------------------
Si    core    Harmonic      Three-body cnst  1.2614000    eV*rad^-2 0.000  1.900
O1    shel                  Three-body angl  109.47000    degrees   0.000  1.900
õ(2   shel                  Three-body k4    0.0000000    eV*rad^-4 0.000  3.500
                            Three-body k3    0.0000000    eV*rad^-3 
--------------------------------------------------------------------------------
Si    core    Harmonic      Three-body cnst  1.2614000    eV*rad^-2 0.000  1.900
O2    shel                  Three-body angl  109.47000    degrees   0.000  1.900
õ(1   shel                  Three-body k4    0.0000000    eV*rad^-4 0.000  3.500
                            Three-body k3    0.0000000    eV*rad^-3 
--------------------------------------------------------------------------------
Si    core    Harmonic      Three-body cnst  1.2614000    eV*rad^-2 0.000  1.900
õ(1   shel                  Three-body angl  109.47000    degrees   0.000  1.900
õ(2   shel                  Three-body k4    0.0000000    eV*rad^-4 0.000  3.500
                            Three-body k3    0.0000000    eV*rad^-3 
--------------------------------------------------------------------------------
Si    core    Harmonic      Three-body cnst  1.2614000    eV*rad^-2 0.000  1.900
O2    shel                  Three-body angl  109.47000    degrees   0.000  1.900
O2    shel                  Three-body k4    0.0000000    eV*rad^-4 0.000  3.500
                            Three-body k3    0.0000000    eV*rad^-3 
--------------------------------------------------------------------------------
Si    core    Harmonic      Three-body cnst  1.2614000    eV*rad^-2 0.000  1.900
O2    shel                  Three-body angl  109.47000    degrees   0.000  1.900
õ(2   shel                  Three-body k4    0.0000000    eV*rad^-4 0.000  3.500
                            Three-body k3    0.0000000    eV*rad^-3 
--------------------------------------------------------------------------------
Si    core    Harmonic      Three-body cnst  1.2614000    eV*rad^-2 0.000  1.900
õ(2   shel                  Three-body angl  109.47000    degrees   0.000  1.900
õ(2   shel                  Three-body k4    0.0000000    eV*rad^-4 0.000  3.500
                            Three-body k3    0.0000000    eV*rad^-3 
--------------------------------------------------------------------------------

********************************************************************************
*  Output for configuration   1 : c00037.vasp                                  *
********************************************************************************


  Components of energy : 

--------------------------------------------------------------------------------
  Interatomic potentials     =         400.30338260 eV    
  Three-body potentials      =           0.00011462 eV    
  Monopole - monopole (real) =       -1236.99964305 eV    
  Monopole - monopole (recip)=        -659.26603192 eV    
  Monopole - monopole (total)=       -1896.26567496 eV    
--------------------------------------------------------------------------------
  Total lattice energy       =       -1495.96217774 eV    
--------------------------------------------------------------------------------
  Total lattice energy       =         -144337.4823 kJ/(mole unit cells)
--------------------------------------------------------------------------------


  Number of variables =      183

  Maximum number of calculations  =          1000
  Maximum Hessian update interval =            10
  Maximum step size               =   0.100000000
  Maximum parameter tolerance     =   0.000010000
  Maximum function  tolerance     =   0.000010000
  Maximum gradient  tolerance     =   0.001000000
  Maximum gradient  component     =   0.010000000

  Symmetry not applied to optimisation

  Cell parameters to be optimised using strains

  Newton-Raphson optimiser to be used

  BFGS hessian update to be used

  Lower half triangular hessian to be used

  Minimiser to switch to RFO
  When gradient norm is less than     0.050000

  Dumpfile to be written after every cycle

  Start of bulk optimisation :

  Cycle:      0 Energy:     -1495.962178  Gnorm:      5.564805  CPU:    0.035
  ** Hessian calculated **
  Cycle:      1 Energy:     -1511.896934  Gnorm:      1.466313  CPU:    0.078
  ** Hessian calculated **
  Cycle:      2 Energy:     -1514.075015  Gnorm:      1.055129  CPU:    0.155
  ** Hessian calculated **
  Cycle:      3 Energy:     -1514.970157  Gnorm:      0.598151  CPU:    0.223
  Cycle:      4 Energy:     -1515.362707  Gnorm:      0.372146  CPU:    0.267
  Cycle:      5 Energy:     -1515.705393  Gnorm:      0.290025  CPU:    0.320
  Cycle:      6 Energy:     -1516.022755  Gnorm:      0.250438  CPU:    0.371
  Cycle:      7 Energy:     -1516.200821  Gnorm:      0.183836  CPU:    0.414
  Cycle:      8 Energy:     -1516.300513  Gnorm:      0.160196  CPU:    0.457
  Cycle:      9 Energy:     -1516.348000  Gnorm:      0.094130  CPU:    0.500
  Cycle:     10 Energy:     -1516.366958  Gnorm:      0.065690  CPU:    0.542
  Cycle:     11 Energy:     -1516.382266  Gnorm:      0.059462  CPU:    0.592
  Cycle:     12 Energy:     -1516.395164  Gnorm:      0.057816  CPU:    0.642
  ** Hessian calculated **
  Cycle:     13 Energy:     -1516.403016  Gnorm:      0.057082  CPU:    0.717
  Cycle:     14 Energy:     -1516.416083  Gnorm:      0.055836  CPU:    0.774
  Cycle:     15 Energy:     -1516.435590  Gnorm:      0.053916  CPU:    0.832
  Cycle:     16 Energy:     -1516.458511  Gnorm:      0.051550  CPU:    0.881
  Cycle:     17 Energy:     -1516.493168  Gnorm:      0.047734  CPU:    0.939
  ** Hessian has wrong structure
  ** Imaginary eigenvectors =   1
  Cycle:     18 Energy:     -1516.499590  Gnorm:      0.113949  CPU:    1.050
  ** Hessian has wrong structure
  ** Imaginary eigenvectors =   2
  ** Hessian has wrong structure
  ** Imaginary eigenvectors =   2
  Cycle:     19 Energy:     -1516.537012  Gnorm:      0.111943  CPU:    1.225
  ** Hessian has wrong structure
  ** Imaginary eigenvectors =   1
  ** Hessian has required structure
  Cycle:     20 Energy:     -1516.646107  Gnorm:      0.089187  CPU:    1.370
  ** Hessian has required structure
  Cycle:     21 Energy:     -1516.754301  Gnorm:      0.061012  CPU:    1.427
  ** Hessian has required structure
  Cycle:     22 Energy:     -1516.807289  Gnorm:      0.030620  CPU:    1.477
  ** Hessian has required structure
  Cycle:     23 Energy:     -1516.837497  Gnorm:      0.031097  CPU:    1.534
  ** Hessian has required structure
  Cycle:     24 Energy:     -1516.845861  Gnorm:      0.028069  CPU:    1.584
  ** Hessian has required structure
  Cycle:     25 Energy:     -1516.853350  Gnorm:      0.020389  CPU:    1.634
  ** Hessian has required structure
  Cycle:     26 Energy:     -1516.856118  Gnorm:      0.019863  CPU:    1.683
  ** Hessian has required structure
  Cycle:     27 Energy:     -1516.859019  Gnorm:      0.012247  CPU:    1.734
  ** Hessian has required structure
  Cycle:     28 Energy:     -1516.860319  Gnorm:      0.008726  CPU:    1.792
  ** Hessian has required structure
  Cycle:     29 Energy:     -1516.861032  Gnorm:      0.004392  CPU:    1.842
  ** Hessian has required structure
  Cycle:     30 Energy:     -1516.861581  Gnorm:      0.002354  CPU:    1.926
  ** Hessian has required structure
  Cycle:     31 Energy:     -1516.861729  Gnorm:      0.001326  CPU:    1.984
  ** Hessian has required structure
  Cycle:     32 Energy:     -1516.861762  Gnorm:      0.000819  CPU:    2.034
  ** Hessian has required structure
  Cycle:     33 Energy:     -1516.861774  Gnorm:      0.000501  CPU:    2.084
  ** Hessian has required structure
  Cycle:     34 Energy:     -1516.861779  Gnorm:      0.000307  CPU:    2.134
  ** Hessian has required structure
  Cycle:     35 Energy:     -1516.861780  Gnorm:      0.000216  CPU:    2.175
  ** Hessian has required structure


  **** Optimisation achieved ****


  Final energy =   -1516.86178085 eV      
  Final Gnorm  =       0.00015163

  Components of energy : 

--------------------------------------------------------------------------------
  Interatomic potentials     =         403.50407212 eV    
  Three-body potentials      =           0.04165267 eV    
  Monopole - monopole (real) =        -840.35151893 eV    
  Monopole - monopole (recip)=       -1080.05598671 eV    
  Monopole - monopole (total)=       -1920.40750564 eV    
--------------------------------------------------------------------------------
  Total lattice energy       =       -1516.86178085 eV    
--------------------------------------------------------------------------------
  Total lattice energy       =         -146353.9745 kJ/(mole unit cells)
--------------------------------------------------------------------------------

  Final fractional coordinates of atoms :

--------------------------------------------------------------------------------
   No.  Atomic        x           y          z          Radius
        Label       (Frac)      (Frac)     (Frac)       (Angs) 
--------------------------------------------------------------------------------
     1  Ge    c     0.313820    0.296860    0.309830    0.000000
     2  Ge    c     0.722004    0.623028    0.731145    0.000000
     3  Ge    c     0.691418    0.260700    0.399543    0.000000
     4  Ge    c     0.930117    0.930379    0.875460    0.000000
     5  Si    c     0.697053    0.228886    0.705690    0.000000
     6  Si    c     0.351972    0.697315    0.327814    0.000000
     7  Si    c     0.330129    0.275455    0.616219    0.000000
     8  Si    c     0.711774    0.659220    0.414199    0.000000
     9  Si    c     0.356656    0.667427    0.636778    0.000000
    10  Si    c     0.916608    0.965530    0.388421    0.000000
    11  Si    c     0.146228    0.967736    0.685043    0.000000
    12  Si    c     0.117104    0.990382    0.187906    0.000000
    13  O3    c     0.254744    0.270720    0.454929    0.000000
    14  O3    c     0.757733    0.227483    0.575058    0.000000
    15  O3    c     0.759917    0.652576    0.577439    0.000000
    16  O2    c     0.319793    0.699322    0.473794    0.000000
    17  O3    c     0.304024    0.515069    0.262586    0.000000
    18  O3    c     0.740632    0.405744    0.781574    0.000000
    19  O1    c     0.498767    0.221064    0.333718    0.000000
    20  O2    c     0.510145    0.222299    0.646071    0.000000
    21  O3    c     0.535246    0.698068    0.713775    0.000000
    22  O2    c     0.533581    0.728651    0.353828    0.000000
    23  O3    c     0.186425    0.180002    0.187483    0.000000
    24  O3    c     0.769821    0.066206    0.804998    0.000000
    25  O1    c     0.859668    0.727110    0.849995    0.000000
    26  O2    c     0.259523    0.849818    0.222494    0.000000
    27  O2    c     0.315321    0.468185    0.667234    0.000000
    28  O3    c     0.725592    0.473143    0.359029    0.000000
    29  O2    c     0.247801    0.139552    0.692895    0.000000
    30  O3    c     0.799653    0.127369    0.332795    0.000000
    31  O2    c     0.820077    0.790113    0.361748    0.000000
    32  O2    c     0.250339    0.795430    0.690370    0.000000
    33  O2    c     0.997991    0.976842    0.550557    0.000000
    34  O2    c     0.043235    0.962701    0.310620    0.000000
    35  O3    c     0.086272    0.963794    0.815263    0.000000
    36  O3    c     0.990104    0.961041    0.047384    0.000000
    37  O3    s     0.266873    0.273182    0.459870    0.000000
    38  O3    s     0.746447    0.230273    0.573896    0.000000
    39  O3    s     0.751994    0.650854    0.573734    0.000000
    40  O2    s     0.327114    0.695694    0.475734    0.000000
    41  O3    s     0.309500    0.515592    0.272771    0.000000
    42  O3    s     0.734920    0.405842    0.770214    0.000000
    43  O1    s     0.499571    0.230167    0.337073    0.000000
    44  O2    s     0.510390    0.228816    0.649056    0.000000
    45  O3    s     0.531975    0.689059    0.707402    0.000000
    46  O2    s     0.532554    0.717961    0.357408    0.000000
    47  O3    s     0.189841    0.170950    0.197249    0.000000
    48  O3    s     0.775138    0.072283    0.800216    0.000000
    49  O1    s     0.854187    0.734735    0.842505    0.000000
    50  O2    s     0.254796    0.847657    0.230431    0.000000
    51  O2    s     0.321017    0.468485    0.658957    0.000000
    52  O3    s     0.721493    0.475114    0.367799    0.000000
    53  O2    s     0.246116    0.136288    0.683653    0.000000
    54  O3    s     0.802419    0.122239    0.343806    0.000000
    55  O2    s     0.818482    0.794371    0.370400    0.000000
    56  O2    s     0.251000    0.799665    0.683868    0.000000
    57  O2    s     0.005407    0.974616    0.548008    0.000000
    58  O2    s     0.036581    0.966062    0.306334    0.000000
    59  O3    s     0.079590    0.961448    0.806807    0.000000
    60  O3    s     0.998779    0.961607    0.047935    0.000000
--------------------------------------------------------------------------------

  Final Cartesian lattice vectors (Angstroms) :

        9.041959    0.047240    0.065083
        0.039733    7.735879    0.211518
       -3.205921    0.258473    9.772138


  Final cell parameters and derivatives :

--------------------------------------------------------------------------------
       a            9.042317 Angstrom     dE/de1(xx)     0.006213 eV/strain
       b            7.738872 Angstrom     dE/de2(yy)     0.007674 eV/strain
       c           10.287829 Angstrom     dE/de3(zz)     0.003402 eV/strain
       alpha       87.164055 Degrees      dE/de4(yz)     0.000057 eV/strain
       beta       107.736645 Degrees      dE/de5(xz)     0.001470 eV/strain
       gamma       89.395344 Degrees      dE/de6(xy)     0.001173 eV/strain
--------------------------------------------------------------------------------

  Primitive cell volume =           684.606702 Angs**3

  Density of cell =      2.180981 g/cm**3

  Non-primitive cell volume =           684.606702 Angs**3


  Final internal derivatives :

--------------------------------------------------------------------------------
   No.  Atomic          a             b             c           Radius
        Label          (eV)          (eV)          (eV)        (eV/Angs)
--------------------------------------------------------------------------------
      1 Ge    c       0.000000      0.000000      0.000000      0.000000
      2 Ge    c       0.000022     -0.002268      0.000154      0.000000
      3 Ge    c      -0.000185     -0.001206      0.002774      0.000000
      4 Ge    c       0.001940      0.001301      0.004366      0.000000
      5 Si    c      -0.000009      0.000100     -0.004238      0.000000
      6 Si    c      -0.003420      0.002487      0.002385      0.000000
      7 Si    c      -0.000083     -0.000086      0.000708      0.000000
      8 Si    c      -0.000683     -0.000525      0.001324      0.000000
      9 Si    c      -0.002565      0.003558      0.000334      0.000000
     10 Si    c       0.004381     -0.000328     -0.001197      0.000000
     11 Si    c       0.001202     -0.001515     -0.000039      0.000000
     12 Si    c      -0.001122     -0.000988      0.000315      0.000000
     13 O3    c       0.001513      0.000143     -0.004319      0.000000
     14 O3    c       0.001062      0.000137     -0.002181      0.000000
     15 O3    c       0.001408      0.001272     -0.001555      0.000000
     16 O2    c      -0.000055     -0.000864     -0.000998      0.000000
     17 O3    c       0.000270     -0.005769     -0.001791      0.000000
     18 O3    c       0.001177      0.006737      0.002885      0.000000
     19 O1    c       0.000590     -0.000995     -0.000701      0.000000
     20 O2    c      -0.002672     -0.000568      0.000266      0.000000
     21 O3    c       0.000785      0.001673     -0.000504      0.000000
     22 O2    c       0.004738      0.001751     -0.000091      0.000000
     23 O3    c       0.001838      0.001475      0.000618      0.000000
     24 O3    c      -0.000571     -0.000519      0.005233      0.000000
     25 O1    c      -0.003193     -0.005321      0.002282      0.000000
     26 O2    c       0.001040     -0.000350     -0.000142      0.000000
     27 O2    c      -0.000986     -0.006148      0.001262      0.000000
     28 O3    c       0.000906      0.002937     -0.002467      0.000000
     29 O2    c       0.001262      0.000384     -0.001137      0.000000
     30 O3    c      -0.002318      0.003594     -0.001457      0.000000
     31 O2    c      -0.001541     -0.001824     -0.001500      0.000000
     32 O2    c      -0.000076     -0.000061     -0.002213      0.000000
     33 O2    c       0.000057      0.000319      0.002388      0.000000
     34 O2    c      -0.001169     -0.000141      0.003093      0.000000
     35 O3    c       0.003870      0.000942     -0.003406      0.000000
     36 O3    c      -0.001258     -0.001086     -0.003949      0.000000
     37 O3    s      -0.000662     -0.001157      0.003370      0.000000
     38 O3    s      -0.000047     -0.000143     -0.001508      0.000000
     39 O3    s      -0.000419     -0.001955      0.002036      0.000000
     40 O2    s      -0.002744      0.002120      0.001948      0.000000
     41 O3    s      -0.000827      0.000765     -0.001857      0.000000
     42 O3    s      -0.001647     -0.000603     -0.001090      0.000000
     43 O1    s      -0.000636     -0.000012      0.000947      0.000000
     44 O2    s      -0.002667      0.001165     -0.001147      0.000000
     45 O3    s       0.000206     -0.000372      0.001380      0.000000
     46 O2    s       0.001344      0.000250     -0.001648      0.000000
     47 O3    s      -0.001008      0.001214     -0.001346      0.000000
     48 O3    s      -0.000542     -0.001089      0.000719      0.000000
     49 O1    s       0.001805      0.000901     -0.000878      0.000000
     50 O2    s      -0.000363      0.000190     -0.001271      0.000000
     51 O2    s       0.000921      0.000069      0.001510      0.000000
     52 O3    s      -0.000429     -0.001088      0.001315      0.000000
     53 O2    s       0.000851     -0.000199     -0.000794      0.000000
     54 O3    s       0.001910     -0.000328     -0.001299      0.000000
     55 O2    s       0.000028     -0.000716     -0.002391      0.000000
     56 O2    s      -0.001693      0.001445     -0.000092      0.000000
     57 O2    s       0.002309     -0.000049      0.000784      0.000000
     58 O2    s      -0.000259      0.000425     -0.000773      0.000000
     59 O3    s       0.000478     -0.001371      0.000820      0.000000
     60 O3    s       0.000656      0.001118      0.003844      0.000000
--------------------------------------------------------------------------------
  Maximum abs         0.004738      0.006737      0.005233      0.000000
--------------------------------------------------------------------------------


  Born effective charge tensors : 

-------------------------------------------------------------------------------
  Atom             x           y             z
-------------------------------------------------------------------------------
    1 Ge    x       3.8718      0.1025      0.2734
            y       0.3162      4.2310      0.3097
            z       0.1096      0.2348      3.4992
-------------------------------------------------------------------------------
    2 Ge    x       3.9091      0.1424      0.3103
            y       0.3990      4.1257      0.3007
            z       0.3112      0.2376      3.6476
-------------------------------------------------------------------------------
    3 Ge    x       4.1379     -0.2921     -0.0691
            y      -0.3013      4.1576      0.0791
            z       0.1978      0.0842      3.2405
-------------------------------------------------------------------------------
    4 Ge    x       4.0238      0.2779      0.2021
            y      -0.1246      3.9204      0.0045
            z       0.0033      0.2680      4.7216
-------------------------------------------------------------------------------
    5 Si    x       3.3466     -0.3659      0.2407
            y      -0.2161      3.9668     -0.0796
            z      -0.0162     -0.3087      3.3463
-------------------------------------------------------------------------------
    6 Si    x       3.1612     -0.1707      0.2447
            y      -0.0791      3.6895      0.0348
            z       0.1140     -0.0710      2.9829
-------------------------------------------------------------------------------
    7 Si    x       3.2636      0.2655     -0.1225
            y       0.2823      3.5027      0.0188
            z       0.1470     -0.0411      2.9475
-------------------------------------------------------------------------------
    8 Si    x       3.4463      0.1645     -0.0926
            y       0.2312      3.7342      0.1734
            z       0.0412      0.0574      3.0412
-------------------------------------------------------------------------------
    9 Si    x       3.5618     -0.2048      0.1138
            y      -0.2374      3.5055      0.0925
            z       0.1743      0.1130      2.8438
-------------------------------------------------------------------------------
   10 Si    x       3.7479     -0.0964      0.2860
            y      -0.1677      3.4629     -0.1108
            z      -0.3128      0.0120      2.8860
-------------------------------------------------------------------------------
   11 Si    x       3.8138     -0.0231     -0.3786
            y      -0.0009      3.3404      0.0235
            z      -0.4079      0.0207      3.3018
-------------------------------------------------------------------------------
   12 Si    x       3.3666      0.2955     -0.0475
            y       0.0503      3.5489      0.0314
            z       0.6724      0.3041      4.2272
-------------------------------------------------------------------------------
   13 O3    x      -1.4511     -0.1240      0.1733
            y      -0.1482     -1.3866     -0.0557
            z       0.2286     -0.0200     -2.4798
-------------------------------------------------------------------------------
   14 O3    x      -1.6550      0.1192      0.5134
            y       0.1206     -1.3681      0.0520
            z       0.4242      0.0823     -2.3100
-------------------------------------------------------------------------------
   15 O3    x      -1.4869     -0.1182      0.3515
            y      -0.1511     -1.3712      0.0738
            z       0.3336      0.0729     -2.5222
-------------------------------------------------------------------------------
   16 O2    x      -1.3181      0.0673      0.3304
            y       0.0673     -1.2597      0.0849
            z       0.3059      0.0968     -1.9959
-------------------------------------------------------------------------------
   17 O3    x      -1.2326     -0.1252     -0.1046
            y      -0.2041     -3.1152     -0.2530
            z      -0.0763     -0.2209     -1.3555
-------------------------------------------------------------------------------
   18 O3    x      -1.2616     -0.0510     -0.1206
            y      -0.1014     -2.9730     -0.2636
            z      -0.0846     -0.1939     -1.3801
-------------------------------------------------------------------------------
   19 O1    x      -3.0741      0.1421     -0.5119
            y       0.0958     -1.5273     -0.0536
            z      -0.5254     -0.0472     -1.3689
-------------------------------------------------------------------------------
   20 O2    x      -2.3287      0.1270     -0.3336
            y       0.0806     -1.2891      0.0258
            z      -0.3576      0.0708     -1.1346
-------------------------------------------------------------------------------
   21 O3    x      -2.8341      0.1175     -0.5651
            y       0.0622     -1.4063     -0.0597
            z      -0.5730     -0.0544     -1.3762
-------------------------------------------------------------------------------
   22 O2    x      -2.3594      0.0825     -0.3427
            y       0.0499     -1.2561      0.0395
            z      -0.3278      0.0653     -1.1228
-------------------------------------------------------------------------------
   23 O3    x      -1.6158     -0.7490     -0.3085
            y      -0.7080     -2.5718     -0.5125
            z      -0.3874     -0.5562     -1.7227
-------------------------------------------------------------------------------
   24 O3    x      -1.7198      0.6661     -0.5243
            y       0.6894     -2.3353      0.7754
            z      -0.4802      0.7841     -1.8628
-------------------------------------------------------------------------------
   25 O1    x      -1.7821     -0.7671     -0.5455
            y      -0.7418     -2.6261     -0.7162
            z      -0.5528     -0.7541     -1.9984
-------------------------------------------------------------------------------
   26 O2    x      -1.5753      0.5578     -0.3020
            y       0.5750     -1.8639      0.4574
            z      -0.3452      0.4243     -1.5129
-------------------------------------------------------------------------------
   27 O2    x      -1.2148     -0.0496      0.0599
            y      -0.0572     -2.5502     -0.0874
            z       0.0204     -0.0580     -1.0496
-------------------------------------------------------------------------------
   28 O3    x      -1.3639      0.0486      0.0996
            y      -0.0252     -3.1134     -0.2161
            z       0.0452     -0.1626     -1.1857
-------------------------------------------------------------------------------
   29 O2    x      -1.7673     -0.7690      0.1907
            y      -0.7233     -2.0521      0.1567
            z       0.1416      0.1465     -1.1172
-------------------------------------------------------------------------------
   30 O3    x      -2.1970      1.0033      0.0191
            y       0.9930     -2.3723      0.0298
            z       0.0955     -0.0144     -1.2699
-------------------------------------------------------------------------------
   31 O2    x      -1.8804     -0.7614      0.0351
            y      -0.7307     -1.9492      0.0224
            z       0.1041      0.0310     -1.0693
-------------------------------------------------------------------------------
   32 O2    x      -1.8418      0.7932      0.2014
            y       0.7610     -2.0347     -0.1821
            z       0.1805     -0.1725     -1.1182
-------------------------------------------------------------------------------
   33 O2    x      -1.5798     -0.0120     -0.5153
            y       0.0036     -1.1683     -0.0583
            z      -0.2756     -0.0669     -1.9840
-------------------------------------------------------------------------------
   34 O2    x      -2.1235     -0.0801      0.6801
            y      -0.0015     -1.1487      0.0292
            z       0.6488      0.0236     -1.7022
-------------------------------------------------------------------------------
   35 O3    x      -2.5989     -0.1095      0.9825
            y      -0.0460     -1.2190      0.0420
            z       1.0522      0.0483     -2.2513
-------------------------------------------------------------------------------
   36 O3    x      -1.3883     -0.1037     -0.4235
            y      -0.0119     -1.2279     -0.2085
            z      -0.6288     -0.4356     -3.7952
-------------------------------------------------------------------------------




  Elastic Constant Matrix: (Units=GPa)

-------------------------------------------------------------------------------
  Indices      1         2         3         4         5         6    
-------------------------------------------------------------------------------
       1     43.6734   30.3391    6.6219    3.8011   -0.8100    5.3297
       2     30.3391   65.2116    8.4057    4.7341    1.6614   13.0673
       3      6.6219    8.4057   26.6711    5.5351    7.1403    5.3095
       4      3.8011    4.7341    5.5351   11.4066    3.0513    7.2145
       5     -0.8100    1.6614    7.1403    3.0513   10.0896    4.7448
       6      5.3297   13.0673    5.3095    7.2145    4.7448   20.7483
-------------------------------------------------------------------------------


  Elastic Compliance Matrix: (Units=1/GPa)

-------------------------------------------------------------------------------
  Indices      1         2         3         4         5         6    
-------------------------------------------------------------------------------
       1    0.035319 -0.015966 -0.005584 -0.006701  0.010323  0.002381
       2   -0.015966  0.025358 -0.002608  0.003835  0.001259 -0.012823
       3   -0.005584 -0.002608  0.051043 -0.014694 -0.032948  0.002659
       4   -0.006701  0.003835 -0.014694  0.121465 -0.010179 -0.036842
       5    0.010323  0.001259 -0.032948 -0.010179  0.136834 -0.022765
       6    0.002381 -0.012823  0.002659 -0.036842 -0.022765  0.072997
-------------------------------------------------------------------------------

  Mechanical properties :

-------------------------------------------------------------------------------
  Convention :                    Reuss         Voigt         Hill
-------------------------------------------------------------------------------
  Bulk  Modulus (GPa)     =      15.77189      25.14329      20.45759
  Shear Modulus (GPa)     =       9.75674      14.46153      12.10914
-------------------------------------------------------------------------------
  Velocity S-wave (km/s)  =       2.11508       2.57502       2.35630
  Velocity P-wave (km/s)  =       3.63267       4.51325       4.09669
-------------------------------------------------------------------------------
  Compressibility (1/GPa) =    0.06340396
-------------------------------------------------------------------------------
  Stress axis :                     x             y             z
-------------------------------------------------------------------------------
  Youngs Moduli (GPa)     =      28.31325      39.43555      19.59134
-------------------------------------------------------------------------------
  Poissons Ratio (x)      =                     0.62962       0.10940
  Poissons Ratio (y)      =       0.45204                     0.05109
  Poissons Ratio (z)      =       0.15811       0.10285
-------------------------------------------------------------------------------


  Piezoelectric Strain Matrix: (Units=C/m**2)

-------------------------------------------------------------------------------
  Indices      1         2         3         4         5         6    
-------------------------------------------------------------------------------
       x     1.07459   0.37253  -0.37929  -0.08544  -0.09074   0.02484
       y     0.75199   0.00719  -0.83574  -0.79761   0.10299   0.01871
       z    -0.25244  -0.24792   0.63410   0.28472  -0.67320  -0.17484
-------------------------------------------------------------------------------


  Piezoelectric Stress Matrix: (Units=10**-11 C/N)

-------------------------------------------------------------------------------
  Indices      1         2         3         4         5         6    
-------------------------------------------------------------------------------
       x     3.38191  -0.74815  -2.20213  -1.05681   1.19466   0.37999
       y     3.75642  -1.28135  -3.85003  -9.13512   5.70931   2.78830
       z    -1.77724  -0.14233   5.19545   3.93013 -11.48443  -0.36633
-------------------------------------------------------------------------------


  Static dielectric constant tensor : 

-------------------------------------------------------------------------------
              x         y         z
-------------------------------------------------------------------------------
       x     4.29675   0.03067   0.27878
       y     0.03067   5.06584   0.32829
       z     0.27878   0.32829   3.81133
--------------------------------------------------------------------------------

  High frequency dielectric constant tensor : 

-------------------------------------------------------------------------------
              x         y         z
-------------------------------------------------------------------------------
       x     1.63140  -0.00006   0.00811
       y    -0.00006   1.64162   0.00492
       z     0.00811   0.00492   1.58009
-------------------------------------------------------------------------------

  Static refractive indices : 

-------------------------------------------------------------------------------
    1 =    1.90426      2 =    2.09517      3 =    2.27112
-------------------------------------------------------------------------------

  High frequency refractive indices : 

-------------------------------------------------------------------------------
    1 =    1.25637      2 =    1.27773      3 =    1.28142
-------------------------------------------------------------------------------


  Time to end of optimisation =       2.2692 seconds


  Peak dynamic memory used =       2.76 MB 


  Timing analysis for GULP :

--------------------------------------------------------------------------------
  Task / Subroutine                                          Time (Seconds)
--------------------------------------------------------------------------------
  Calculation of reciprocal space energy and derivatives          0.1498
  Calculation of real space energy and derivatives                1.8846
  Calculation of three-body energy and derivatives                0.0525
  Calculation and manipulation of Hessian matrix                  0.3403
  Calculation of matrix inversion                                 0.0037
--------------------------------------------------------------------------------
  Total CPU time                                                  2.2692
--------------------------------------------------------------------------------


  Dump file written as c00037.vasp.grs
  CIF file written as c00037.vasp.cif


  Job Finished at 22:38.38  6th October    2025                               

