********************************************************************************
*                       GENERAL UTILITY LATTICE PROGRAM                        *
*                                 Julian Gale                                  *
*                       Curtin Institute for Computation                       *
*                    School of Molecular and Life Sciences                     *
*                    Curtin University, Western Australia                      *
********************************************************************************
* Version = 6.1.2 * Last modified =   3rd November 2022                        *
********************************************************************************
*  optimise     - perform optimisation run                                     *
*  conp         - constant pressure calculation                                *
*  property     - calculate properties for final geometry                      *
********************************************************************************

  Job Started  at 22:41.14  6th October    2025                               

  Number of CPUs =     1


  Total number of configurations input =      1

********************************************************************************
*  Input for Configuration =   1 : c00084.vasp                                 *
********************************************************************************

  Formula = Ge4Si8O24                                                   

  Number of irreducible atoms/shells =      60


  Total number atoms/shells =      60

  Dimensionality = 3               :  Bulk   



  Cartesian lattice vectors (Angstroms) :

        9.086940    0.000000    0.000000
        0.000000    7.554810    0.000000
       -3.295144    0.000000    9.944380

  Cell parameters (Angstroms/Degrees):

  a =       9.0869    alpha =  90.0000
  b =       7.5548    beta  = 108.3330
  c =      10.4761    gamma =  90.0000

  Initial cell volume =         682.682735 Angs**3

  Temperature of configuration =   0.00     K 

  Pressure of configuration =         0.000 GPa 

  Fractional coordinates of asymmetric unit :

--------------------------------------------------------------------------------
   No.  Atomic       x           y          z         Charge      Occupancy
        Label      (Frac)      (Frac)     (Frac)        (e)         (Frac)  
--------------------------------------------------------------------------------
      1 Ge    c    0.313820    0.296860    0.309830     4.00000    1.000000    
      2 Ge    c    0.668950 *  0.296920 *  0.392620 *   4.00000    1.000000    
      3 Ge    c    0.668950 *  0.703080 *  0.392620 *   4.00000    1.000000    
      4 Ge    c    0.093070 *  0.000000 *  0.158230 *   4.00000    1.000000    
      5 Si    c    0.686180 *  0.296860 *  0.690170 *   4.00000    1.000000    
      6 Si    c    0.686180 *  0.703140 *  0.690170 *   4.00000    1.000000    
      7 Si    c    0.313820 *  0.703140 *  0.309830 *   4.00000    1.000000    
      8 Si    c    0.331050 *  0.296920 *  0.607380 *   4.00000    1.000000    
      9 Si    c    0.331050 *  0.703080 *  0.607380 *   4.00000    1.000000    
     10 Si    c    0.879680 *  0.000000 *  0.350160 *   4.00000    1.000000    
     11 Si    c    0.120320 *  0.000000 *  0.649840 *   4.00000    1.000000    
     12 Si    c    0.906930 *  0.000000 *  0.841770 *   4.00000    1.000000    
     13 O3    c    0.268740 *  0.279030 *  0.446100 *   1.33043    1.000000    
     14 O3    c    0.731260 *  0.279030 *  0.553900 *   1.33043    1.000000    
     15 O3    c    0.731260 *  0.720970 *  0.553900 *   1.33043    1.000000    
     16 O2    c    0.268740 *  0.720970 *  0.446100 *   0.87073    1.000000    
     17 O3    c    0.295480 *  0.500000 *  0.260860 *   1.33043    1.000000    
     18 O2    c    0.704520 *  0.500000 *  0.739140 *   0.87073    1.000000    
     19 O1    c    0.490600 *  0.234690 *  0.337530 *   1.73396    1.000000    
     20 O2    c    0.509400 *  0.234690 *  0.662470 *   0.87073    1.000000    
     21 O2    c    0.509400 *  0.765310 *  0.662470 *   0.87073    1.000000    
     22 O3    c    0.490600 *  0.765310 *  0.337530 *   1.33043    1.000000    
     23 O1    c    0.200440 *  0.174000 *  0.194980 *   1.73396    1.000000    
     24 O2    c    0.799560 *  0.174000 *  0.805020 *   0.87073    1.000000    
     25 O2    c    0.799560 *  0.826000 *  0.805020 *   0.87073    1.000000    
     26 O3    c    0.200440 *  0.826000 *  0.194980 *   1.33043    1.000000    
     27 O2    c    0.317860 *  0.500000 *  0.649090 *   0.87073    1.000000    
     28 O1    c    0.682140 *  0.500000 *  0.350910 *   1.73396    1.000000    
     29 O2    c    0.227920 *  0.173870 *  0.671620 *   0.87073    1.000000    
     30 O3    c    0.772080 *  0.173870 *  0.328380 *   1.33043    1.000000    
     31 O3    c    0.772080 *  0.826130 *  0.328380 *   1.33043    1.000000    
     32 O2    c    0.227920 *  0.826130 *  0.671620 *   0.87073    1.000000    
     33 O2    c    0.000000 *  0.000000 *  0.500000 *   0.87073    1.000000    
     34 O3    c    0.971960 *  0.000000 *  0.241930 *   1.33043    1.000000    
     35 O2    c    0.028040 *  0.000000 *  0.758070 *   0.87073    1.000000    
     36 O3    c    0.000000 *  0.000000 *  0.000000 *   1.33043    1.000000    
     37 O3    s    0.268740 *  0.279030 *  0.446100 *  -3.33043    1.000000    
     38 O3    s    0.731260 *  0.279030 *  0.553900 *  -3.33043    1.000000    
     39 O3    s    0.731260 *  0.720970 *  0.553900 *  -3.33043    1.000000    
     40 O2    s    0.268740 *  0.720970 *  0.446100 *  -2.87073    1.000000    
     41 O3    s    0.295480 *  0.500000 *  0.260860 *  -3.33043    1.000000    
     42 O2    s    0.704520 *  0.500000 *  0.739140 *  -2.87073    1.000000    
     43 O1    s    0.490600 *  0.234690 *  0.337530 *  -3.73396    1.000000    
     44 O2    s    0.509400 *  0.234690 *  0.662470 *  -2.87073    1.000000    
     45 O2    s    0.509400 *  0.765310 *  0.662470 *  -2.87073    1.000000    
     46 O3    s    0.490600 *  0.765310 *  0.337530 *  -3.33043    1.000000    
     47 O1    s    0.200440 *  0.174000 *  0.194980 *  -3.73396    1.000000    
     48 O2    s    0.799560 *  0.174000 *  0.805020 *  -2.87073    1.000000    
     49 O2    s    0.799560 *  0.826000 *  0.805020 *  -2.87073    1.000000    
     50 O3    s    0.200440 *  0.826000 *  0.194980 *  -3.33043    1.000000    
     51 O2    s    0.317860 *  0.500000 *  0.649090 *  -2.87073    1.000000    
     52 O1    s    0.682140 *  0.500000 *  0.350910 *  -3.73396    1.000000    
     53 O2    s    0.227920 *  0.173870 *  0.671620 *  -2.87073    1.000000    
     54 O3    s    0.772080 *  0.173870 *  0.328380 *  -3.33043    1.000000    
     55 O3    s    0.772080 *  0.826130 *  0.328380 *  -3.33043    1.000000    
     56 O2    s    0.227920 *  0.826130 *  0.671620 *  -2.87073    1.000000    
     57 O2    s    0.000000 *  0.000000 *  0.500000 *  -2.87073    1.000000    
     58 O3    s    0.971960 *  0.000000 *  0.241930 *  -3.33043    1.000000    
     59 O2    s    0.028040 *  0.000000 *  0.758070 *  -2.87073    1.000000    
     60 O3    s    0.000000 *  0.000000 *  0.000000 *  -3.33043    1.000000    
--------------------------------------------------------------------------------



********************************************************************************
*  General input information                                                   *
********************************************************************************

  Species output for all configurations : 

--------------------------------------------------------------------------------
  Species    Type    Atomic    Atomic    Charge       Radii (Angs)     Library
                     Number     Mass       (e)     Cova   Ionic  VDW   Symbol
--------------------------------------------------------------------------------
    Ge       Core       32      72.61   4.000000   1.170  0.000  1.750 Ge       
    Si       Core       14      28.09   4.000000   1.200  0.000  2.100 Si       
    O1       Core        8      16.00   1.733957   0.730  0.000  1.360 O1       
    O2       Core        8      16.00   0.870733   0.730  0.000  1.360 O2       
    O3       Core        8      16.00   1.330431   0.730  0.000  1.360 O3       
    O1       Shell       8       0.00  -3.733957   0.730  0.000  0.000 O1       
    O2       Shell       8       0.00  -2.870733   0.730  0.000  0.000 O2       
    O3       Shell       8       0.00  -3.330431   0.730  0.000  0.000 O3       
--------------------------------------------------------------------------------


  Lattice summation method               =    Ewald          (3-D)
                                         =    Parry          (2-D)
                                         =    Saunders et al (1-D)
  Accuracy factor for lattice sums       =   12.000


  Analytic derivatives to be used

  Time limit = Infinity

  Maximum range for interatomic potentials =    100000.000000 Angstroms

  General interatomic potentials :

--------------------------------------------------------------------------------
Atom  Types   Potential      Parameter       Value         Units   Cutoffs(Ang)
  1     2                                                            Min /  Max 
--------------------------------------------------------------------------------
Si   c O1   s Buckingham    Buckingham A     1315.2478    eV        0.000 16.000
                            Buckingham rho  0.31775900    Ang       
                            Buckingham C     10.141118    eV*Ang^6  
--------------------------------------------------------------------------------
Si   c O2   s Buckingham    Buckingham A     1315.2478    eV        0.000 16.000
                            Buckingham rho  0.31775900    Ang       
                            Buckingham C     10.141118    eV*Ang^6  
--------------------------------------------------------------------------------
Si   c O3   s Buckingham    Buckingham A     1315.2478    eV        0.000 16.000
                            Buckingham rho  0.31775900    Ang       
                            Buckingham C     10.141118    eV*Ang^6  
--------------------------------------------------------------------------------
Ge   c O1   s Buckingham    Buckingham A     1497.3996    eV        0.000 16.000
                            Buckingham rho  0.32564600    Ang       
                            Buckingham C     16.808599    eV*Ang^6  
--------------------------------------------------------------------------------
Ge   c O2   s Buckingham    Buckingham A     1497.3996    eV        0.000 16.000
                            Buckingham rho  0.32564600    Ang       
                            Buckingham C     16.808599    eV*Ang^6  
--------------------------------------------------------------------------------
Ge   c O3   s Buckingham    Buckingham A     1497.3996    eV        0.000 16.000
                            Buckingham rho  0.32564600    Ang       
                            Buckingham C     16.808599    eV*Ang^6  
--------------------------------------------------------------------------------
O1   s O1   s Buckingham    Buckingham A     22764.000    eV        0.000 16.000
                            Buckingham rho  0.14900000    Ang       
                            Buckingham C     10.937044    eV*Ang^6  
--------------------------------------------------------------------------------
O1   s O2   s Buckingham    Buckingham A     22764.000    eV        0.000 16.000
                            Buckingham rho  0.14900000    Ang       
                            Buckingham C     10.937044    eV*Ang^6  
--------------------------------------------------------------------------------
O1   s O3   s Buckingham    Buckingham A     22764.000    eV        0.000 16.000
                            Buckingham rho  0.14900000    Ang       
                            Buckingham C     10.937044    eV*Ang^6  
--------------------------------------------------------------------------------
O2   s O2   s Buckingham    Buckingham A     22764.000    eV        0.000 16.000
                            Buckingham rho  0.14900000    Ang       
                            Buckingham C     10.937044    eV*Ang^6  
--------------------------------------------------------------------------------
O2   s O3   s Buckingham    Buckingham A     22764.000    eV        0.000 16.000
                            Buckingham rho  0.14900000    Ang       
                            Buckingham C     10.937044    eV*Ang^6  
--------------------------------------------------------------------------------
O3   s O3   s Buckingham    Buckingham A     22764.000    eV        0.000 16.000
                            Buckingham rho  0.14900000    Ang       
                            Buckingham C     10.937044    eV*Ang^6  
--------------------------------------------------------------------------------
O1   c O1   s Spring (c-s)  Spring k 2       180.31577    eV*Ang^-2 0.000  0.800
                            Spring k 4       0.0000000    eV*Ang^-4 
--------------------------------------------------------------------------------
O2   c O2   s Spring (c-s)  Spring k 2       75.969800    eV*Ang^-2 0.000  0.800
                            Spring k 4       0.0000000    eV*Ang^-4 
--------------------------------------------------------------------------------
O3   c O3   s Spring (c-s)  Spring k 2       128.14270    eV*Ang^-2 0.000  0.800
                            Spring k 4       0.0000000    eV*Ang^-4 
--------------------------------------------------------------------------------

  General Three-body potentials :

--------------------------------------------------------------------------------
  Atoms       Potential      Parameter       Value         Units   Cutoffs(Ang)
  1 / 2 / 3                                                          Min /  Max 
--------------------------------------------------------------------------------
Si    core    Harmonic      Three-body cnst  1.2614000    eV*rad^-2 0.000  1.900
O1    shel                  Three-body angl  109.47000    degrees   0.000  1.900
O1    shel                  Three-body k4    0.0000000    eV*rad^-4 0.000  3.500
                            Three-body k3    0.0000000    eV*rad^-3 
--------------------------------------------------------------------------------
Si    core    Harmonic      Three-body cnst  1.2614000    eV*rad^-2 0.000  1.900
O1    shel                  Three-body angl  109.47000    degrees   0.000  1.900
õ(1   shel                  Three-body k4    0.0000000    eV*rad^-4 0.000  3.500
                            Three-body k3    0.0000000    eV*rad^-3 
--------------------------------------------------------------------------------
Si    core    Harmonic      Three-body cnst  1.2614000    eV*rad^-2 0.000  1.900
õ(1   shel                  Three-body angl  109.47000    degrees   0.000  1.900
õ(1   shel                  Three-body k4    0.0000000    eV*rad^-4 0.000  3.500
                            Three-body k3    0.0000000    eV*rad^-3 
--------------------------------------------------------------------------------
Si    core    Harmonic      Three-body cnst  1.2614000    eV*rad^-2 0.000  1.900
O1    shel                  Three-body angl  109.47000    degrees   0.000  1.900
O2    shel                  Three-body k4    0.0000000    eV*rad^-4 0.000  3.500
                            Three-body k3    0.0000000    eV*rad^-3 
--------------------------------------------------------------------------------
Si    core    Harmonic      Three-body cnst  1.2614000    eV*rad^-2 0.000  1.900
O1    shel                  Three-body angl  109.47000    degrees   0.000  1.900
õ(2   shel                  Three-body k4    0.0000000    eV*rad^-4 0.000  3.500
                            Three-body k3    0.0000000    eV*rad^-3 
--------------------------------------------------------------------------------
Si    core    Harmonic      Three-body cnst  1.2614000    eV*rad^-2 0.000  1.900
O2    shel                  Three-body angl  109.47000    degrees   0.000  1.900
õ(1   shel                  Three-body k4    0.0000000    eV*rad^-4 0.000  3.500
                            Three-body k3    0.0000000    eV*rad^-3 
--------------------------------------------------------------------------------
Si    core    Harmonic      Three-body cnst  1.2614000    eV*rad^-2 0.000  1.900
õ(1   shel                  Three-body angl  109.47000    degrees   0.000  1.900
õ(2   shel                  Three-body k4    0.0000000    eV*rad^-4 0.000  3.500
                            Three-body k3    0.0000000    eV*rad^-3 
--------------------------------------------------------------------------------
Si    core    Harmonic      Three-body cnst  1.2614000    eV*rad^-2 0.000  1.900
O2    shel                  Three-body angl  109.47000    degrees   0.000  1.900
O2    shel                  Three-body k4    0.0000000    eV*rad^-4 0.000  3.500
                            Three-body k3    0.0000000    eV*rad^-3 
--------------------------------------------------------------------------------
Si    core    Harmonic      Three-body cnst  1.2614000    eV*rad^-2 0.000  1.900
O2    shel                  Three-body angl  109.47000    degrees   0.000  1.900
õ(2   shel                  Three-body k4    0.0000000    eV*rad^-4 0.000  3.500
                            Three-body k3    0.0000000    eV*rad^-3 
--------------------------------------------------------------------------------
Si    core    Harmonic      Three-body cnst  1.2614000    eV*rad^-2 0.000  1.900
õ(2   shel                  Three-body angl  109.47000    degrees   0.000  1.900
õ(2   shel                  Three-body k4    0.0000000    eV*rad^-4 0.000  3.500
                            Three-body k3    0.0000000    eV*rad^-3 
--------------------------------------------------------------------------------

********************************************************************************
*  Output for configuration   1 : c00084.vasp                                  *
********************************************************************************


  Components of energy : 

--------------------------------------------------------------------------------
  Interatomic potentials     =         400.30248582 eV    
  Three-body potentials      =           0.00014203 eV    
  Monopole - monopole (real) =       -1236.99964305 eV    
  Monopole - monopole (recip)=        -659.26603192 eV    
  Monopole - monopole (total)=       -1896.26567496 eV    
--------------------------------------------------------------------------------
  Total lattice energy       =       -1495.96304711 eV    
--------------------------------------------------------------------------------
  Total lattice energy       =         -144337.5662 kJ/(mole unit cells)
--------------------------------------------------------------------------------


  Number of variables =      183

  Maximum number of calculations  =          1000
  Maximum Hessian update interval =            10
  Maximum step size               =   0.100000000
  Maximum parameter tolerance     =   0.000010000
  Maximum function  tolerance     =   0.000010000
  Maximum gradient  tolerance     =   0.001000000
  Maximum gradient  component     =   0.010000000

  Symmetry not applied to optimisation

  Cell parameters to be optimised using strains

  Newton-Raphson optimiser to be used

  BFGS hessian update to be used

  Lower half triangular hessian to be used

  Minimiser to switch to RFO
  When gradient norm is less than     0.050000

  Dumpfile to be written after every cycle

  Start of bulk optimisation :

  Cycle:      0 Energy:     -1495.963047  Gnorm:      5.626186  CPU:    0.033
  ** Hessian calculated **
  Cycle:      1 Energy:     -1511.805885  Gnorm:      1.466560  CPU:    0.074
  ** Hessian calculated **
  Cycle:      2 Energy:     -1513.509689  Gnorm:      0.813243  CPU:    0.141
  Cycle:      3 Energy:     -1514.219770  Gnorm:      0.511213  CPU:    0.182
  Cycle:      4 Energy:     -1514.800564  Gnorm:      0.387420  CPU:    0.231
  Cycle:      5 Energy:     -1515.335374  Gnorm:      0.320183  CPU:    0.281
  Cycle:      6 Energy:     -1515.615424  Gnorm:      0.241563  CPU:    0.323
  Cycle:      7 Energy:     -1515.773647  Gnorm:      0.206255  CPU:    0.365
  Cycle:      8 Energy:     -1515.851698  Gnorm:      0.129747  CPU:    0.407
  Cycle:      9 Energy:     -1515.896270  Gnorm:      0.106402  CPU:    0.456
  Cycle:     10 Energy:     -1515.932797  Gnorm:      0.099996  CPU:    0.506
  Cycle:     11 Energy:     -1515.968481  Gnorm:      0.101012  CPU:    0.555
  ** Hessian calculated **
  Cycle:     12 Energy:     -1515.993275  Gnorm:      0.098003  CPU:    0.632
  Cycle:     13 Energy:     -1516.037868  Gnorm:      0.091887  CPU:    0.689
  Cycle:     14 Energy:     -1516.099357  Gnorm:      0.081332  CPU:    0.738
  Cycle:     15 Energy:     -1516.176394  Gnorm:      0.064921  CPU:    0.787
  Cycle:     16 Energy:     -1516.248790  Gnorm:      0.040869  CPU:    0.836
  ** Hessian has wrong structure
  ** Imaginary eigenvectors =   3
  Cycle:     17 Energy:     -1516.256498  Gnorm:      0.079966  CPU:    0.932
  ** Hessian has wrong structure
  ** Imaginary eigenvectors =   1
  ** Hessian has wrong structure
  ** Imaginary eigenvectors =   1
  Cycle:     18 Energy:     -1516.315485  Gnorm:      0.084437  CPU:    1.110
  ** Hessian has required structure
  Cycle:     19 Energy:     -1516.364652  Gnorm:      0.093659  CPU:    1.167
  ** Hessian has required structure
  Cycle:     20 Energy:     -1516.444732  Gnorm:      0.060351  CPU:    1.207
  ** Hessian has required structure
  Cycle:     21 Energy:     -1516.467414  Gnorm:      0.041783  CPU:    1.256
  ** Hessian has required structure
  Cycle:     22 Energy:     -1516.484231  Gnorm:      0.055471  CPU:    1.313
  ** Hessian has required structure
  Cycle:     23 Energy:     -1516.497996  Gnorm:      0.047233  CPU:    1.371
  ** Hessian has required structure
  Cycle:     24 Energy:     -1516.509491  Gnorm:      0.037957  CPU:    1.429
  ** Hessian has required structure
  Cycle:     25 Energy:     -1516.516779  Gnorm:      0.032511  CPU:    1.479
  ** Hessian has required structure
  Cycle:     26 Energy:     -1516.522662  Gnorm:      0.018363  CPU:    1.527
  ** Hessian has required structure
  Cycle:     27 Energy:     -1516.525552  Gnorm:      0.017603  CPU:    1.585
  ** Hessian has required structure
  Cycle:     28 Energy:     -1516.528393  Gnorm:      0.009038  CPU:    1.667
  ** Hessian has required structure
  Cycle:     29 Energy:     -1516.529207  Gnorm:      0.004795  CPU:    1.724
  ** Hessian has required structure
  Cycle:     30 Energy:     -1516.529432  Gnorm:      0.002942  CPU:    1.773
  ** Hessian has required structure
  Cycle:     31 Energy:     -1516.529529  Gnorm:      0.001783  CPU:    1.822
  ** Hessian has required structure
  Cycle:     32 Energy:     -1516.529579  Gnorm:      0.000902  CPU:    1.880
  ** Hessian has required structure
  Cycle:     33 Energy:     -1516.529597  Gnorm:      0.000451  CPU:    1.937
  ** Hessian has required structure
  Cycle:     34 Energy:     -1516.529600  Gnorm:      0.000358  CPU:    1.979
  ** Hessian has required structure
  Cycle:     35 Energy:     -1516.529601  Gnorm:      0.000280  CPU:    2.020
  ** Hessian has required structure
  Cycle:     36 Energy:     -1516.529603  Gnorm:      0.000215  CPU:    2.062
  ** Hessian has required structure


  **** Optimisation achieved ****


  Final energy =   -1516.52960344 eV      
  Final Gnorm  =       0.00016259

  Components of energy : 

--------------------------------------------------------------------------------
  Interatomic potentials     =         403.13974297 eV    
  Three-body potentials      =           0.08227519 eV    
  Monopole - monopole (real) =        -837.03780503 eV    
  Monopole - monopole (recip)=       -1082.71381656 eV    
  Monopole - monopole (total)=       -1919.75162159 eV    
--------------------------------------------------------------------------------
  Total lattice energy       =       -1516.52960344 eV    
--------------------------------------------------------------------------------
  Total lattice energy       =         -146321.9245 kJ/(mole unit cells)
--------------------------------------------------------------------------------

  Final fractional coordinates of atoms :

--------------------------------------------------------------------------------
   No.  Atomic        x           y          z          Radius
        Label       (Frac)      (Frac)     (Frac)       (Angs) 
--------------------------------------------------------------------------------
     1  Ge    c     0.313820    0.296860    0.309830    0.000000
     2  Ge    c     0.680787    0.366497    0.398815    0.000000
     3  Ge    c     0.623973    0.778488    0.393480    0.000000
     4  Ge    c     0.063288    0.009297    0.148049    0.000000
     5  Si    c     0.674683    0.326534    0.704285    0.000000
     6  Si    c     0.643452    0.719640    0.709462    0.000000
     7  Si    c     0.270710    0.705731    0.312052    0.000000
     8  Si    c     0.311129    0.277983    0.614472    0.000000
     9  Si    c     0.286966    0.673034    0.621683    0.000000
    10  Si    c     0.866809    0.066138    0.346752    0.000000
    11  Si    c     0.087596    0.978704    0.637781    0.000000
    12  Si    c     0.876175    0.009907    0.831820    0.000000
    13  O3    c     0.255409    0.257575    0.454096    0.000000
    14  O3    c     0.730567    0.344644    0.573238    0.000000
    15  O3    c     0.676331    0.760005    0.567926    0.000000
    16  O2    c     0.247288    0.687699    0.460601    0.000000
    17  O3    c     0.288762    0.516565    0.261177    0.000000
    18  O2    c     0.686274    0.519936    0.765405    0.000000
    19  O1    c     0.505479    0.259666    0.337146    0.000000
    20  O2    c     0.496823    0.253826    0.665358    0.000000
    21  O2    c     0.461152    0.745435    0.691518    0.000000
    22  O3    c     0.428256    0.818447    0.327384    0.000000
    23  O1    c     0.203517    0.169231    0.185793    0.000000
    24  O2    c     0.785637    0.193250    0.812760    0.000000
    25  O2    c     0.748334    0.852418    0.817519    0.000000
    26  O3    c     0.128500    0.803325    0.209790    0.000000
    27  O2    c     0.270273    0.466870    0.660253    0.000000
    28  O1    c     0.670479    0.581259    0.343846    0.000000
    29  O2    c     0.221957    0.129074    0.680382    0.000000
    30  O3    c     0.828631    0.267259    0.357820    0.000000
    31  O3    c     0.710896    0.953238    0.335575    0.000000
    32  O2    c     0.167901    0.787818    0.670143    0.000000
    33  O2    c     0.001051    0.993117    0.477716    0.000000
    34  O3    c     0.913965    0.053717    0.211708    0.000000
    35  O2    c     0.964878    0.994603    0.719077    0.000000
    36  O3    c     0.000372    0.998283    0.975166    0.000000
    37  O3    s     0.265338    0.262528    0.458665    0.000000
    38  O3    s     0.720659    0.344510    0.572943    0.000000
    39  O3    s     0.668750    0.757452    0.568084    0.000000
    40  O2    s     0.254203    0.687909    0.462807    0.000000
    41  O3    s     0.288932    0.518385    0.270243    0.000000
    42  O2    s     0.680596    0.520500    0.753420    0.000000
    43  O1    s     0.503609    0.270724    0.339654    0.000000
    44  O2    s     0.495637    0.264004    0.663999    0.000000
    45  O2    s     0.461771    0.735012    0.686006    0.000000
    46  O3    s     0.428720    0.804669    0.331160    0.000000
    47  O1    s     0.201187    0.166742    0.192801    0.000000
    48  O2    s     0.783110    0.188497    0.803103    0.000000
    49  O2    s     0.750309    0.854449    0.807393    0.000000
    50  O3    s     0.138124    0.809918    0.215503    0.000000
    51  O2    s     0.276216    0.469199    0.651606    0.000000
    52  O1    s     0.667822    0.579421    0.351804    0.000000
    53  O2    s     0.217466    0.129252    0.668918    0.000000
    54  O3    s     0.820519    0.255660    0.360045    0.000000
    55  O3    s     0.718767    0.949170    0.341818    0.000000
    56  O2    s     0.172360    0.795106    0.661692    0.000000
    57  O2    s     0.996319    0.999203    0.481113    0.000000
    58  O3    s     0.921526    0.051271    0.220358    0.000000
    59  O2    s     0.969417    0.994421    0.721791    0.000000
    60  O3    s     0.992022    0.000518    0.974139    0.000000
--------------------------------------------------------------------------------

  Final Cartesian lattice vectors (Angstroms) :

        9.027133   -0.150025    0.086048
       -0.125540    7.630649    0.147259
       -3.180131    0.247918    9.854928


  Final cell parameters and derivatives :

--------------------------------------------------------------------------------
       a            9.028790 Angstrom     dE/de1(xx)     0.006843 eV/strain
       b            7.633102 Angstrom     dE/de2(yy)     0.007092 eV/strain
       c           10.358296 Angstrom     dE/de3(zz)     0.005746 eV/strain
       alpha       87.287146 Degrees      dE/de4(yz)    -0.000450 eV/strain
       beta       107.354746 Degrees      dE/de5(xz)     0.000855 eV/strain
       gamma       91.883702 Degrees      dE/de6(xy)     0.000149 eV/strain
--------------------------------------------------------------------------------

  Primitive cell volume =           680.476333 Angs**3

  Density of cell =      2.194219 g/cm**3

  Non-primitive cell volume =           680.476333 Angs**3


  Final internal derivatives :

--------------------------------------------------------------------------------
   No.  Atomic          a             b             c           Radius
        Label          (eV)          (eV)          (eV)        (eV/Angs)
--------------------------------------------------------------------------------
      1 Ge    c       0.000000      0.000000      0.000000      0.000000
      2 Ge    c       0.001691     -0.002059     -0.001005      0.000000
      3 Ge    c       0.004189      0.001022     -0.000982      0.000000
      4 Ge    c      -0.001361      0.000043     -0.001443      0.000000
      5 Si    c       0.000094     -0.000750      0.000613      0.000000
      6 Si    c      -0.000199      0.000262      0.002899      0.000000
      7 Si    c       0.005551     -0.002468      0.001349      0.000000
      8 Si    c      -0.000066     -0.000774     -0.000564      0.000000
      9 Si    c       0.000969     -0.001594      0.002092      0.000000
     10 Si    c       0.002194      0.002662      0.000513      0.000000
     11 Si    c      -0.002015     -0.000097      0.001774      0.000000
     12 Si    c       0.001621     -0.000216      0.000830      0.000000
     13 O3    c       0.000064     -0.000274     -0.000327      0.000000
     14 O3    c       0.000107      0.000075     -0.000251      0.000000
     15 O3    c       0.002685      0.000505     -0.003920      0.000000
     16 O2    c      -0.004636      0.000333      0.002907      0.000000
     17 O3    c      -0.000282      0.001872     -0.002506      0.000000
     18 O2    c      -0.000017      0.000303     -0.000229      0.000000
     19 O1    c       0.002381     -0.002160     -0.001136      0.000000
     20 O2    c      -0.001678      0.000090      0.000044      0.000000
     21 O2    c       0.000325      0.000925      0.000727      0.000000
     22 O3    c      -0.004823      0.004211     -0.000553      0.000000
     23 O1    c       0.003953      0.005409     -0.002536      0.000000
     24 O2    c       0.000059     -0.000310     -0.000085      0.000000
     25 O2    c       0.000082      0.000107     -0.000737      0.000000
     26 O3    c      -0.006586      0.001159     -0.009458      0.000000
     27 O2    c      -0.000277      0.000203      0.000108      0.000000
     28 O1    c       0.001642     -0.001070     -0.002318      0.000000
     29 O2    c       0.000828      0.000633     -0.000905      0.000000
     30 O3    c       0.000417      0.000072      0.001191      0.000000
     31 O3    c      -0.006457     -0.003875      0.001059      0.000000
     32 O2    c      -0.002135      0.001593      0.002279      0.000000
     33 O2    c      -0.000613      0.000702      0.000092      0.000000
     34 O3    c      -0.003770      0.000091      0.003882      0.000000
     35 O2    c       0.001857     -0.000202     -0.002196      0.000000
     36 O3    c      -0.001600      0.000052     -0.006339      0.000000
     37 O3    s       0.000079      0.000660      0.001713      0.000000
     38 O3    s       0.000022     -0.000044     -0.000228      0.000000
     39 O3    s      -0.001011     -0.000690      0.001367      0.000000
     40 O2    s      -0.003716     -0.000051      0.002757      0.000000
     41 O3    s       0.002644     -0.002639     -0.002039      0.000000
     42 O2    s       0.001029     -0.000492      0.000722      0.000000
     43 O1    s       0.000784      0.001293      0.000968      0.000000
     44 O2    s       0.000315     -0.000125     -0.000061      0.000000
     45 O2    s       0.001015      0.000811      0.001731      0.000000
     46 O3    s       0.007104     -0.001780     -0.001310      0.000000
     47 O1    s      -0.001325     -0.001658     -0.001325      0.000000
     48 O2    s       0.001037     -0.000130      0.000303      0.000000
     49 O2    s       0.000572      0.000179      0.001770      0.000000
     50 O3    s       0.001204     -0.002271      0.000587      0.000000
     51 O2    s       0.000071     -0.001718      0.000412      0.000000
     52 O1    s      -0.001988      0.000177      0.001476      0.000000
     53 O2    s      -0.000966     -0.000237      0.002083      0.000000
     54 O3    s      -0.000173      0.000674     -0.000737      0.000000
     55 O3    s       0.003426      0.001861     -0.001053      0.000000
     56 O2    s      -0.002023      0.000102      0.001531      0.000000
     57 O2    s       0.000868     -0.001279      0.000427      0.000000
     58 O3    s      -0.000978      0.000352      0.000050      0.000000
     59 O2    s      -0.000326      0.000561      0.000062      0.000000
     60 O3    s       0.000153      0.000059      0.000444      0.000000
--------------------------------------------------------------------------------
  Maximum abs         0.007104      0.005409      0.009458      0.000000
--------------------------------------------------------------------------------


  Born effective charge tensors : 

-------------------------------------------------------------------------------
  Atom             x           y             z
-------------------------------------------------------------------------------
    1 Ge    x       3.9360      0.1399      0.3685
            y       0.2010      4.1682      0.3116
            z       0.1670      0.3242      3.6954
-------------------------------------------------------------------------------
    2 Ge    x       4.0700     -0.0593     -0.0558
            y      -0.4476      4.2372     -0.0716
            z       0.0382      0.0929      3.2862
-------------------------------------------------------------------------------
    3 Ge    x       3.9874      0.2925     -0.1017
            y       0.1661      4.2104      0.0195
            z       0.0961     -0.0816      3.3342
-------------------------------------------------------------------------------
    4 Ge    x       3.8654     -0.1470      0.2246
            y       0.1989      3.8888      0.0049
            z       0.0169      0.1167      4.8465
-------------------------------------------------------------------------------
    5 Si    x       3.3338     -0.1245      0.1069
            y      -0.3049      3.4916     -0.1654
            z      -0.0310     -0.2181      3.0176
-------------------------------------------------------------------------------
    6 Si    x       3.3001      0.2650      0.1267
            y       0.2528      3.4782      0.0870
            z       0.0420      0.1225      3.0574
-------------------------------------------------------------------------------
    7 Si    x       3.5618     -0.0116      0.3552
            y      -0.4233      3.8689     -0.1545
            z       0.3909     -0.1601      3.2643
-------------------------------------------------------------------------------
    8 Si    x       3.3531      0.3235     -0.0417
            y       0.2258      3.5169      0.0841
            z       0.1485      0.0563      2.9351
-------------------------------------------------------------------------------
    9 Si    x       3.2744     -0.2071      0.0319
            y      -0.3679      3.4362      0.0506
            z       0.0757      0.1038      2.6252
-------------------------------------------------------------------------------
   10 Si    x       4.0897     -0.2596     -0.3787
            y       0.2109      3.6046      0.1602
            z      -0.3322      0.0251      3.4071
-------------------------------------------------------------------------------
   11 Si    x       3.6788     -0.1855      0.1254
            y       0.0600      3.2662      0.0032
            z      -0.3914      0.0499      2.7987
-------------------------------------------------------------------------------
   12 Si    x       3.4393     -0.1279     -0.0441
            y       0.0464      3.2654      0.0424
            z       0.6275     -0.0217      4.2045
-------------------------------------------------------------------------------
   13 O3    x      -1.4844     -0.1393      0.2566
            y      -0.1413     -1.4025     -0.0560
            z       0.3164     -0.0472     -2.4679
-------------------------------------------------------------------------------
   14 O3    x      -1.6049      0.0212      0.5472
            y       0.1151     -1.3691      0.0601
            z       0.4774      0.1227     -2.3693
-------------------------------------------------------------------------------
   15 O3    x      -1.5074     -0.1830      0.4248
            y      -0.1639     -1.3991      0.1403
            z       0.3529      0.1476     -2.4798
-------------------------------------------------------------------------------
   16 O2    x      -1.2750      0.0429      0.2392
            y       0.0856     -1.2673      0.0953
            z       0.2286      0.0553     -2.0017
-------------------------------------------------------------------------------
   17 O3    x      -1.2620      0.1996     -0.0164
            y       0.2985     -3.0559     -0.1406
            z       0.0058     -0.1253     -1.3344
-------------------------------------------------------------------------------
   18 O2    x      -1.1496      0.1047     -0.0748
            y       0.1487     -2.4924     -0.0379
            z      -0.0509     -0.0406     -1.1383
-------------------------------------------------------------------------------
   19 O1    x      -2.9625     -0.1808     -0.4822
            y      -0.0568     -1.5733     -0.0949
            z      -0.4912     -0.1515     -1.3708
-------------------------------------------------------------------------------
   20 O2    x      -2.3522     -0.1382     -0.4041
            y      -0.0631     -1.3054     -0.0213
            z      -0.4111     -0.0090     -1.1165
-------------------------------------------------------------------------------
   21 O2    x      -2.2999     -0.1050     -0.4084
            y      -0.0443     -1.2761     -0.0612
            z      -0.3828     -0.0973     -1.1416
-------------------------------------------------------------------------------
   22 O3    x      -2.7334     -0.3495     -0.4167
            y      -0.3050     -1.5452     -0.0180
            z      -0.4175      0.0048     -1.2908
-------------------------------------------------------------------------------
   23 O1    x      -1.8907     -0.7466     -0.5778
            y      -0.8069     -2.3463     -0.7584
            z      -0.5670     -0.8010     -2.1063
-------------------------------------------------------------------------------
   24 O2    x      -1.4874      0.6098     -0.2706
            y       0.5907     -2.0625      0.4118
            z      -0.3431      0.4539     -1.4492
-------------------------------------------------------------------------------
   25 O2    x      -1.5720     -0.5853     -0.2709
            y      -0.6322     -1.9284     -0.4157
            z      -0.3676     -0.4496     -1.4747
-------------------------------------------------------------------------------
   26 O3    x      -1.7238      0.6995     -0.6146
            y       0.6508     -2.2211      0.7290
            z      -0.5749      0.7467     -1.9479
-------------------------------------------------------------------------------
   27 O2    x      -1.2302      0.0453      0.0498
            y       0.1260     -2.5139     -0.0375
            z       0.0238     -0.0046     -1.0262
-------------------------------------------------------------------------------
   28 O1    x      -1.4718      0.2225      0.1085
            y       0.3348     -3.2342      0.0224
            z       0.0776     -0.0329     -1.3053
-------------------------------------------------------------------------------
   29 O2    x      -1.8673     -0.7514      0.0263
            y      -0.7590     -1.9555      0.0379
            z       0.0861      0.0566     -1.0812
-------------------------------------------------------------------------------
   30 O3    x      -2.0951      0.8395      0.2231
            y       0.7813     -2.4841     -0.2158
            z       0.2211     -0.2064     -1.2052
-------------------------------------------------------------------------------
   31 O3    x      -2.4874     -0.9588      0.1461
            y      -0.9590     -2.1486      0.1277
            z       0.0937      0.1356     -1.2301
-------------------------------------------------------------------------------
   32 O2    x      -1.8487      0.7870      0.0714
            y       0.7297     -2.0590     -0.0453
            z       0.1448     -0.0673     -1.0515
-------------------------------------------------------------------------------
   33 O2    x      -1.5321      0.1503     -0.4809
            y       0.0309     -1.2095      0.1562
            z      -0.2499      0.1833     -1.9867
-------------------------------------------------------------------------------
   34 O3    x      -2.3821      0.2960      0.9514
            y       0.1702     -1.2432     -0.1680
            z       0.9067     -0.1691     -2.3016
-------------------------------------------------------------------------------
   35 O2    x      -2.2862      0.1635      0.7396
            y       0.0582     -1.1359     -0.0730
            z       0.7396     -0.1012     -1.6739
-------------------------------------------------------------------------------
   36 O3    x      -1.3836      0.0579     -0.4837
            y      -0.0071     -1.2042     -0.0090
            z      -0.6671     -0.0131     -3.9214
-------------------------------------------------------------------------------




  Elastic Constant Matrix: (Units=GPa)

-------------------------------------------------------------------------------
  Indices      1         2         3         4         5         6    
-------------------------------------------------------------------------------
       1     43.6115   23.3798   10.3613    0.9692    1.2446  -12.1175
       2     23.3798   62.0720   16.7377    1.7430    6.6317  -11.1662
       3     10.3613   16.7377   32.0388    4.6351   11.1031    0.2502
       4      0.9692    1.7430    4.6351   10.4990    1.1993    4.7275
       5      1.2446    6.6317   11.1031    1.1993   13.6283    1.4305
       6    -12.1175  -11.1662    0.2502    4.7275    1.4305   27.3069
-------------------------------------------------------------------------------


  Elastic Compliance Matrix: (Units=1/GPa)

-------------------------------------------------------------------------------
  Indices      1         2         3         4         5         6    
-------------------------------------------------------------------------------
       1    0.032481 -0.008718 -0.007833 -0.003935  0.006824  0.011244
       2   -0.008718  0.023064 -0.007248 -0.002067 -0.004996  0.006249
       3   -0.007833 -0.007248  0.052728 -0.016132 -0.037066 -0.002189
       4   -0.003935 -0.002067 -0.016132  0.112299  0.006961 -0.022250
       5    0.006824 -0.004996 -0.037066  0.006961  0.105337 -0.005398
       6    0.011244  0.006249 -0.002189 -0.022250 -0.005398  0.048321
-------------------------------------------------------------------------------

  Mechanical properties :

-------------------------------------------------------------------------------
  Convention :                    Reuss         Voigt         Hill
-------------------------------------------------------------------------------
  Bulk  Modulus (GPa)     =      16.48120      26.51999      21.50060
  Shear Modulus (GPa)     =      11.31082      16.10308      13.70695
-------------------------------------------------------------------------------
  Velocity S-wave (km/s)  =       2.27042       2.70903       2.49937
  Velocity P-wave (km/s)  =       3.79266       4.67669       4.25768
-------------------------------------------------------------------------------
  Compressibility (1/GPa) =    0.06067518
-------------------------------------------------------------------------------
  Stress axis :                     x             y             z
-------------------------------------------------------------------------------
  Youngs Moduli (GPa)     =      30.78687      43.35690      18.96511
-------------------------------------------------------------------------------
  Poissons Ratio (x)      =                     0.37798       0.14856
  Poissons Ratio (y)      =       0.26840                     0.13746
  Poissons Ratio (z)      =       0.24116       0.31426
-------------------------------------------------------------------------------


  Piezoelectric Strain Matrix: (Units=C/m**2)

-------------------------------------------------------------------------------
  Indices      1         2         3         4         5         6    
-------------------------------------------------------------------------------
       x    -0.91248  -0.23731   0.36343  -0.10151   0.33105  -0.50821
       y    -1.18799  -0.08040  -1.49157   0.69968  -0.19551  -0.06016
       z    -0.62813   0.27371  -0.69048  -0.54891   0.26521  -0.26894
-------------------------------------------------------------------------------


  Piezoelectric Stress Matrix: (Units=10**-11 C/N)

-------------------------------------------------------------------------------
  Indices      1         2         3         4         5         6    
-------------------------------------------------------------------------------
       x    -3.34727  -0.47726   1.85102   0.04309   1.83964  -3.66241
       y    -3.09670   1.84682  -7.26681  10.74549   3.21825  -2.80160
       z    -1.64340   1.49230  -3.38578  -4.07671   4.55065  -0.60550
-------------------------------------------------------------------------------


  Static dielectric constant tensor : 

-------------------------------------------------------------------------------
              x         y         z
-------------------------------------------------------------------------------
       x     4.45389  -0.03208   0.24823
       y    -0.03208   5.34014   0.14111
       z     0.24823   0.14111   3.69139
--------------------------------------------------------------------------------

  High frequency dielectric constant tensor : 

-------------------------------------------------------------------------------
              x         y         z
-------------------------------------------------------------------------------
       x     1.63801  -0.00466   0.01017
       y    -0.00466   1.64439   0.00247
       z     0.01017   0.00247   1.58359
-------------------------------------------------------------------------------

  Static refractive indices : 

-------------------------------------------------------------------------------
    1 =    1.89886      2 =    2.12778      3 =    2.31350
-------------------------------------------------------------------------------

  High frequency refractive indices : 

-------------------------------------------------------------------------------
    1 =    1.25761      2 =    1.27963      3 =    1.28334
-------------------------------------------------------------------------------


  Time to end of optimisation =       2.1548 seconds


  Peak dynamic memory used =       2.76 MB 


  Timing analysis for GULP :

--------------------------------------------------------------------------------
  Task / Subroutine                                          Time (Seconds)
--------------------------------------------------------------------------------
  Calculation of reciprocal space energy and derivatives          0.1378
  Calculation of real space energy and derivatives                1.7674
  Calculation of three-body energy and derivatives                0.0593
  Calculation and manipulation of Hessian matrix                  0.2870
  Calculation of matrix inversion                                 0.0026
--------------------------------------------------------------------------------
  Total CPU time                                                  2.1549
--------------------------------------------------------------------------------


  Dump file written as c00084.vasp.grs
  CIF file written as c00084.vasp.cif


  Job Finished at 22:41.16  6th October    2025                               

