********************************************************************************
*                       GENERAL UTILITY LATTICE PROGRAM                        *
*                                 Julian Gale                                  *
*                       Curtin Institute for Computation                       *
*                    School of Molecular and Life Sciences                     *
*                    Curtin University, Western Australia                      *
********************************************************************************
* Version = 6.1.2 * Last modified =   3rd November 2022                        *
********************************************************************************
*  optimise     - perform optimisation run                                     *
*  conp         - constant pressure calculation                                *
*  property     - calculate properties for final geometry                      *
********************************************************************************

  Job Started  at 22:38.28  6th October    2025                               

  Number of CPUs =     1


  Total number of configurations input =      1

********************************************************************************
*  Input for Configuration =   1 : c00035.vasp                                 *
********************************************************************************

  Formula = Ge4Si8O24                                                   

  Number of irreducible atoms/shells =      60


  Total number atoms/shells =      60

  Dimensionality = 3               :  Bulk   



  Cartesian lattice vectors (Angstroms) :

        9.086940    0.000000    0.000000
        0.000000    7.554810    0.000000
       -3.295144    0.000000    9.944380

  Cell parameters (Angstroms/Degrees):

  a =       9.0869    alpha =  90.0000
  b =       7.5548    beta  = 108.3330
  c =      10.4761    gamma =  90.0000

  Initial cell volume =         682.682735 Angs**3

  Temperature of configuration =   0.00     K 

  Pressure of configuration =         0.000 GPa 

  Fractional coordinates of asymmetric unit :

--------------------------------------------------------------------------------
   No.  Atomic       x           y          z         Charge      Occupancy
        Label      (Frac)      (Frac)     (Frac)        (e)         (Frac)  
--------------------------------------------------------------------------------
      1 Ge    c    0.313820    0.296860    0.309830     4.00000    1.000000    
      2 Ge    c    0.686180 *  0.703140 *  0.690170 *   4.00000    1.000000    
      3 Ge    c    0.668950 *  0.296920 *  0.392620 *   4.00000    1.000000    
      4 Ge    c    0.120320 *  0.000000 *  0.649840 *   4.00000    1.000000    
      5 Si    c    0.686180 *  0.296860 *  0.690170 *   4.00000    1.000000    
      6 Si    c    0.313820 *  0.703140 *  0.309830 *   4.00000    1.000000    
      7 Si    c    0.331050 *  0.296920 *  0.607380 *   4.00000    1.000000    
      8 Si    c    0.668950 *  0.703080 *  0.392620 *   4.00000    1.000000    
      9 Si    c    0.331050 *  0.703080 *  0.607380 *   4.00000    1.000000    
     10 Si    c    0.879680 *  0.000000 *  0.350160 *   4.00000    1.000000    
     11 Si    c    0.093070 *  0.000000 *  0.158230 *   4.00000    1.000000    
     12 Si    c    0.906930 *  0.000000 *  0.841770 *   4.00000    1.000000    
     13 O3    c    0.268740 *  0.279030 *  0.446100 *   1.33043    1.000000    
     14 O3    c    0.731260 *  0.279030 *  0.553900 *   1.33043    1.000000    
     15 O3    c    0.731260 *  0.720970 *  0.553900 *   1.33043    1.000000    
     16 O2    c    0.268740 *  0.720970 *  0.446100 *   0.87073    1.000000    
     17 O3    c    0.295480 *  0.500000 *  0.260860 *   1.33043    1.000000    
     18 O3    c    0.704520 *  0.500000 *  0.739140 *   1.33043    1.000000    
     19 O1    c    0.490600 *  0.234690 *  0.337530 *   1.73396    1.000000    
     20 O2    c    0.509400 *  0.234690 *  0.662470 *   0.87073    1.000000    
     21 O3    c    0.509400 *  0.765310 *  0.662470 *   1.33043    1.000000    
     22 O2    c    0.490600 *  0.765310 *  0.337530 *   0.87073    1.000000    
     23 O3    c    0.200440 *  0.174000 *  0.194980 *   1.33043    1.000000    
     24 O2    c    0.799560 *  0.174000 *  0.805020 *   0.87073    1.000000    
     25 O3    c    0.799560 *  0.826000 *  0.805020 *   1.33043    1.000000    
     26 O2    c    0.200440 *  0.826000 *  0.194980 *   0.87073    1.000000    
     27 O2    c    0.317860 *  0.500000 *  0.649090 *   0.87073    1.000000    
     28 O3    c    0.682140 *  0.500000 *  0.350910 *   1.33043    1.000000    
     29 O3    c    0.227920 *  0.173870 *  0.671620 *   1.33043    1.000000    
     30 O3    c    0.772080 *  0.173870 *  0.328380 *   1.33043    1.000000    
     31 O2    c    0.772080 *  0.826130 *  0.328380 *   0.87073    1.000000    
     32 O3    c    0.227920 *  0.826130 *  0.671620 *   1.33043    1.000000    
     33 O3    c    0.000000 *  0.000000 *  0.500000 *   1.33043    1.000000    
     34 O2    c    0.971960 *  0.000000 *  0.241930 *   0.87073    1.000000    
     35 O3    c    0.028040 *  0.000000 *  0.758070 *   1.33043    1.000000    
     36 O2    c    0.000000 *  0.000000 *  0.000000 *   0.87073    1.000000    
     37 O3    s    0.268740 *  0.279030 *  0.446100 *  -3.33043    1.000000    
     38 O3    s    0.731260 *  0.279030 *  0.553900 *  -3.33043    1.000000    
     39 O3    s    0.731260 *  0.720970 *  0.553900 *  -3.33043    1.000000    
     40 O2    s    0.268740 *  0.720970 *  0.446100 *  -2.87073    1.000000    
     41 O3    s    0.295480 *  0.500000 *  0.260860 *  -3.33043    1.000000    
     42 O3    s    0.704520 *  0.500000 *  0.739140 *  -3.33043    1.000000    
     43 O1    s    0.490600 *  0.234690 *  0.337530 *  -3.73396    1.000000    
     44 O2    s    0.509400 *  0.234690 *  0.662470 *  -2.87073    1.000000    
     45 O3    s    0.509400 *  0.765310 *  0.662470 *  -3.33043    1.000000    
     46 O2    s    0.490600 *  0.765310 *  0.337530 *  -2.87073    1.000000    
     47 O3    s    0.200440 *  0.174000 *  0.194980 *  -3.33043    1.000000    
     48 O2    s    0.799560 *  0.174000 *  0.805020 *  -2.87073    1.000000    
     49 O3    s    0.799560 *  0.826000 *  0.805020 *  -3.33043    1.000000    
     50 O2    s    0.200440 *  0.826000 *  0.194980 *  -2.87073    1.000000    
     51 O2    s    0.317860 *  0.500000 *  0.649090 *  -2.87073    1.000000    
     52 O3    s    0.682140 *  0.500000 *  0.350910 *  -3.33043    1.000000    
     53 O3    s    0.227920 *  0.173870 *  0.671620 *  -3.33043    1.000000    
     54 O3    s    0.772080 *  0.173870 *  0.328380 *  -3.33043    1.000000    
     55 O2    s    0.772080 *  0.826130 *  0.328380 *  -2.87073    1.000000    
     56 O3    s    0.227920 *  0.826130 *  0.671620 *  -3.33043    1.000000    
     57 O3    s    0.000000 *  0.000000 *  0.500000 *  -3.33043    1.000000    
     58 O2    s    0.971960 *  0.000000 *  0.241930 *  -2.87073    1.000000    
     59 O3    s    0.028040 *  0.000000 *  0.758070 *  -3.33043    1.000000    
     60 O2    s    0.000000 *  0.000000 *  0.000000 *  -2.87073    1.000000    
--------------------------------------------------------------------------------



********************************************************************************
*  General input information                                                   *
********************************************************************************

  Species output for all configurations : 

--------------------------------------------------------------------------------
  Species    Type    Atomic    Atomic    Charge       Radii (Angs)     Library
                     Number     Mass       (e)     Cova   Ionic  VDW   Symbol
--------------------------------------------------------------------------------
    Ge       Core       32      72.61   4.000000   1.170  0.000  1.750 Ge       
    Si       Core       14      28.09   4.000000   1.200  0.000  2.100 Si       
    O1       Core        8      16.00   1.733957   0.730  0.000  1.360 O1       
    O2       Core        8      16.00   0.870733   0.730  0.000  1.360 O2       
    O3       Core        8      16.00   1.330431   0.730  0.000  1.360 O3       
    O1       Shell       8       0.00  -3.733957   0.730  0.000  0.000 O1       
    O2       Shell       8       0.00  -2.870733   0.730  0.000  0.000 O2       
    O3       Shell       8       0.00  -3.330431   0.730  0.000  0.000 O3       
--------------------------------------------------------------------------------


  Lattice summation method               =    Ewald          (3-D)
                                         =    Parry          (2-D)
                                         =    Saunders et al (1-D)
  Accuracy factor for lattice sums       =   12.000


  Analytic derivatives to be used

  Time limit = Infinity

  Maximum range for interatomic potentials =    100000.000000 Angstroms

  General interatomic potentials :

--------------------------------------------------------------------------------
Atom  Types   Potential      Parameter       Value         Units   Cutoffs(Ang)
  1     2                                                            Min /  Max 
--------------------------------------------------------------------------------
Si   c O1   s Buckingham    Buckingham A     1315.2478    eV        0.000 16.000
                            Buckingham rho  0.31775900    Ang       
                            Buckingham C     10.141118    eV*Ang^6  
--------------------------------------------------------------------------------
Si   c O2   s Buckingham    Buckingham A     1315.2478    eV        0.000 16.000
                            Buckingham rho  0.31775900    Ang       
                            Buckingham C     10.141118    eV*Ang^6  
--------------------------------------------------------------------------------
Si   c O3   s Buckingham    Buckingham A     1315.2478    eV        0.000 16.000
                            Buckingham rho  0.31775900    Ang       
                            Buckingham C     10.141118    eV*Ang^6  
--------------------------------------------------------------------------------
Ge   c O1   s Buckingham    Buckingham A     1497.3996    eV        0.000 16.000
                            Buckingham rho  0.32564600    Ang       
                            Buckingham C     16.808599    eV*Ang^6  
--------------------------------------------------------------------------------
Ge   c O2   s Buckingham    Buckingham A     1497.3996    eV        0.000 16.000
                            Buckingham rho  0.32564600    Ang       
                            Buckingham C     16.808599    eV*Ang^6  
--------------------------------------------------------------------------------
Ge   c O3   s Buckingham    Buckingham A     1497.3996    eV        0.000 16.000
                            Buckingham rho  0.32564600    Ang       
                            Buckingham C     16.808599    eV*Ang^6  
--------------------------------------------------------------------------------
O1   s O1   s Buckingham    Buckingham A     22764.000    eV        0.000 16.000
                            Buckingham rho  0.14900000    Ang       
                            Buckingham C     10.937044    eV*Ang^6  
--------------------------------------------------------------------------------
O1   s O2   s Buckingham    Buckingham A     22764.000    eV        0.000 16.000
                            Buckingham rho  0.14900000    Ang       
                            Buckingham C     10.937044    eV*Ang^6  
--------------------------------------------------------------------------------
O1   s O3   s Buckingham    Buckingham A     22764.000    eV        0.000 16.000
                            Buckingham rho  0.14900000    Ang       
                            Buckingham C     10.937044    eV*Ang^6  
--------------------------------------------------------------------------------
O2   s O2   s Buckingham    Buckingham A     22764.000    eV        0.000 16.000
                            Buckingham rho  0.14900000    Ang       
                            Buckingham C     10.937044    eV*Ang^6  
--------------------------------------------------------------------------------
O2   s O3   s Buckingham    Buckingham A     22764.000    eV        0.000 16.000
                            Buckingham rho  0.14900000    Ang       
                            Buckingham C     10.937044    eV*Ang^6  
--------------------------------------------------------------------------------
O3   s O3   s Buckingham    Buckingham A     22764.000    eV        0.000 16.000
                            Buckingham rho  0.14900000    Ang       
                            Buckingham C     10.937044    eV*Ang^6  
--------------------------------------------------------------------------------
O1   c O1   s Spring (c-s)  Spring k 2       180.31577    eV*Ang^-2 0.000  0.800
                            Spring k 4       0.0000000    eV*Ang^-4 
--------------------------------------------------------------------------------
O2   c O2   s Spring (c-s)  Spring k 2       75.969800    eV*Ang^-2 0.000  0.800
                            Spring k 4       0.0000000    eV*Ang^-4 
--------------------------------------------------------------------------------
O3   c O3   s Spring (c-s)  Spring k 2       128.14270    eV*Ang^-2 0.000  0.800
                            Spring k 4       0.0000000    eV*Ang^-4 
--------------------------------------------------------------------------------

  General Three-body potentials :

--------------------------------------------------------------------------------
  Atoms       Potential      Parameter       Value         Units   Cutoffs(Ang)
  1 / 2 / 3                                                          Min /  Max 
--------------------------------------------------------------------------------
Si    core    Harmonic      Three-body cnst  1.2614000    eV*rad^-2 0.000  1.900
O1    shel                  Three-body angl  109.47000    degrees   0.000  1.900
O1    shel                  Three-body k4    0.0000000    eV*rad^-4 0.000  3.500
                            Three-body k3    0.0000000    eV*rad^-3 
--------------------------------------------------------------------------------
Si    core    Harmonic      Three-body cnst  1.2614000    eV*rad^-2 0.000  1.900
O1    shel                  Three-body angl  109.47000    degrees   0.000  1.900
õ(1   shel                  Three-body k4    0.0000000    eV*rad^-4 0.000  3.500
                            Three-body k3    0.0000000    eV*rad^-3 
--------------------------------------------------------------------------------
Si    core    Harmonic      Three-body cnst  1.2614000    eV*rad^-2 0.000  1.900
õ(1   shel                  Three-body angl  109.47000    degrees   0.000  1.900
õ(1   shel                  Three-body k4    0.0000000    eV*rad^-4 0.000  3.500
                            Three-body k3    0.0000000    eV*rad^-3 
--------------------------------------------------------------------------------
Si    core    Harmonic      Three-body cnst  1.2614000    eV*rad^-2 0.000  1.900
O1    shel                  Three-body angl  109.47000    degrees   0.000  1.900
O2    shel                  Three-body k4    0.0000000    eV*rad^-4 0.000  3.500
                            Three-body k3    0.0000000    eV*rad^-3 
--------------------------------------------------------------------------------
Si    core    Harmonic      Three-body cnst  1.2614000    eV*rad^-2 0.000  1.900
O1    shel                  Three-body angl  109.47000    degrees   0.000  1.900
õ(2   shel                  Three-body k4    0.0000000    eV*rad^-4 0.000  3.500
                            Three-body k3    0.0000000    eV*rad^-3 
--------------------------------------------------------------------------------
Si    core    Harmonic      Three-body cnst  1.2614000    eV*rad^-2 0.000  1.900
O2    shel                  Three-body angl  109.47000    degrees   0.000  1.900
õ(1   shel                  Three-body k4    0.0000000    eV*rad^-4 0.000  3.500
                            Three-body k3    0.0000000    eV*rad^-3 
--------------------------------------------------------------------------------
Si    core    Harmonic      Three-body cnst  1.2614000    eV*rad^-2 0.000  1.900
õ(1   shel                  Three-body angl  109.47000    degrees   0.000  1.900
õ(2   shel                  Three-body k4    0.0000000    eV*rad^-4 0.000  3.500
                            Three-body k3    0.0000000    eV*rad^-3 
--------------------------------------------------------------------------------
Si    core    Harmonic      Three-body cnst  1.2614000    eV*rad^-2 0.000  1.900
O2    shel                  Three-body angl  109.47000    degrees   0.000  1.900
O2    shel                  Three-body k4    0.0000000    eV*rad^-4 0.000  3.500
                            Three-body k3    0.0000000    eV*rad^-3 
--------------------------------------------------------------------------------
Si    core    Harmonic      Three-body cnst  1.2614000    eV*rad^-2 0.000  1.900
O2    shel                  Three-body angl  109.47000    degrees   0.000  1.900
õ(2   shel                  Three-body k4    0.0000000    eV*rad^-4 0.000  3.500
                            Three-body k3    0.0000000    eV*rad^-3 
--------------------------------------------------------------------------------
Si    core    Harmonic      Three-body cnst  1.2614000    eV*rad^-2 0.000  1.900
õ(2   shel                  Three-body angl  109.47000    degrees   0.000  1.900
õ(2   shel                  Three-body k4    0.0000000    eV*rad^-4 0.000  3.500
                            Three-body k3    0.0000000    eV*rad^-3 
--------------------------------------------------------------------------------

********************************************************************************
*  Output for configuration   1 : c00035.vasp                                  *
********************************************************************************


  Components of energy : 

--------------------------------------------------------------------------------
  Interatomic potentials     =         400.30553071 eV    
  Three-body potentials      =           0.00005093 eV    
  Monopole - monopole (real) =       -1236.99964305 eV    
  Monopole - monopole (recip)=        -659.26603192 eV    
  Monopole - monopole (total)=       -1896.26567496 eV    
--------------------------------------------------------------------------------
  Total lattice energy       =       -1495.96009332 eV    
--------------------------------------------------------------------------------
  Total lattice energy       =         -144337.2812 kJ/(mole unit cells)
--------------------------------------------------------------------------------


  Number of variables =      183

  Maximum number of calculations  =          1000
  Maximum Hessian update interval =            10
  Maximum step size               =   0.100000000
  Maximum parameter tolerance     =   0.000010000
  Maximum function  tolerance     =   0.000010000
  Maximum gradient  tolerance     =   0.001000000
  Maximum gradient  component     =   0.010000000

  Symmetry not applied to optimisation

  Cell parameters to be optimised using strains

  Newton-Raphson optimiser to be used

  BFGS hessian update to be used

  Lower half triangular hessian to be used

  Minimiser to switch to RFO
  When gradient norm is less than     0.050000

  Dumpfile to be written after every cycle

  Start of bulk optimisation :

  Cycle:      0 Energy:     -1495.960093  Gnorm:      5.608881  CPU:    0.030
  ** Hessian calculated **
  Cycle:      1 Energy:     -1512.121687  Gnorm:      1.447196  CPU:    0.067
  ** Hessian calculated **
  Cycle:      2 Energy:     -1514.687452  Gnorm:      0.928777  CPU:    0.134
  ** Hessian calculated **
  Cycle:      3 Energy:     -1515.971894  Gnorm:      0.568855  CPU:    0.193
  ** Hessian calculated **
  Cycle:      4 Energy:     -1516.230700  Gnorm:      0.331255  CPU:    0.251
  Cycle:      5 Energy:     -1516.360933  Gnorm:      0.211703  CPU:    0.288
  Cycle:      6 Energy:     -1516.476731  Gnorm:      0.162262  CPU:    0.330
  Cycle:      7 Energy:     -1516.573165  Gnorm:      0.134427  CPU:    0.373
  Cycle:      8 Energy:     -1516.623108  Gnorm:      0.107087  CPU:    0.409
  Cycle:      9 Energy:     -1516.652710  Gnorm:      0.083764  CPU:    0.446
  Cycle:     10 Energy:     -1516.665656  Gnorm:      0.053619  CPU:    0.482
  Cycle:     11 Energy:     -1516.672160  Gnorm:      0.041455  CPU:    0.517
  ** Hessian has required structure
  Cycle:     12 Energy:     -1516.676117  Gnorm:      0.070174  CPU:    0.554
  ** Hessian has required structure
  Cycle:     13 Energy:     -1516.682510  Gnorm:      0.074496  CPU:    0.597
  ** Hessian has wrong structure
  ** Imaginary eigenvectors =   2
  ** Hessian has wrong structure
  ** Imaginary eigenvectors =   2
  Cycle:     14 Energy:     -1516.683820  Gnorm:      0.074538  CPU:    0.776
  ** Hessian has wrong structure
  ** Imaginary eigenvectors =   2
  ** Hessian has wrong structure
  ** Imaginary eigenvectors =   2
  Cycle:     15 Energy:     -1516.687386  Gnorm:      0.074648  CPU:    0.953
  ** Hessian has wrong structure
  ** Imaginary eigenvectors =   2
  ** Hessian has wrong structure
  ** Imaginary eigenvectors =   2
  Cycle:     16 Energy:     -1516.694844  Gnorm:      0.074897  CPU:    1.124
  ** Hessian has wrong structure
  ** Imaginary eigenvectors =   2
  ** Hessian has wrong structure
  ** Imaginary eigenvectors =   2
  Cycle:     17 Energy:     -1516.709188  Gnorm:      0.075755  CPU:    1.272
  ** Hessian has wrong structure
  ** Imaginary eigenvectors =   2
  ** Hessian has wrong structure
  ** Imaginary eigenvectors =   2
  Cycle:     18 Energy:     -1516.729381  Gnorm:      0.076841  CPU:    1.416
  ** Hessian has wrong structure
  ** Imaginary eigenvectors =   1
  ** Hessian has required structure
  Cycle:     19 Energy:     -1516.818316  Gnorm:      0.062019  CPU:    1.559
  ** Hessian has required structure
  Cycle:     20 Energy:     -1516.895425  Gnorm:      0.046454  CPU:    1.612
  ** Hessian has required structure
  Cycle:     21 Energy:     -1516.955878  Gnorm:      0.031359  CPU:    1.665
  ** Hessian has required structure
  Cycle:     22 Energy:     -1516.961474  Gnorm:      0.037588  CPU:    1.703
  ** Hessian has required structure
  Cycle:     23 Energy:     -1516.993797  Gnorm:      0.023750  CPU:    1.755
  ** Hessian has required structure
  Cycle:     24 Energy:     -1516.995304  Gnorm:      0.018281  CPU:    1.794
  ** Hessian has required structure
  Cycle:     25 Energy:     -1516.997815  Gnorm:      0.018808  CPU:    1.846
  ** Hessian has required structure
  Cycle:     26 Energy:     -1516.999731  Gnorm:      0.011108  CPU:    1.891
  ** Hessian has required structure
  Cycle:     27 Energy:     -1517.000642  Gnorm:      0.009374  CPU:    1.944
  ** Hessian has required structure
  Cycle:     28 Energy:     -1517.001518  Gnorm:      0.007813  CPU:    1.998
  ** Hessian has required structure
  Cycle:     29 Energy:     -1517.002328  Gnorm:      0.003825  CPU:    2.074
  ** Hessian has required structure
  Cycle:     30 Energy:     -1517.002545  Gnorm:      0.001955  CPU:    2.127
  ** Hessian has required structure
  Cycle:     31 Energy:     -1517.002615  Gnorm:      0.000968  CPU:    2.179
  ** Hessian has required structure
  Cycle:     32 Energy:     -1517.002633  Gnorm:      0.000599  CPU:    2.225
  ** Hessian has required structure
  Cycle:     33 Energy:     -1517.002643  Gnorm:      0.000362  CPU:    2.270
  ** Hessian has required structure
  Cycle:     34 Energy:     -1517.002645  Gnorm:      0.000256  CPU:    2.307
  ** Hessian has required structure


  **** Optimisation achieved ****


  Final energy =   -1517.00264667 eV      
  Final Gnorm  =       0.00017927

  Components of energy : 

--------------------------------------------------------------------------------
  Interatomic potentials     =         402.86503883 eV    
  Three-body potentials      =           0.02347410 eV    
  Monopole - monopole (real) =        -844.00992839 eV    
  Monopole - monopole (recip)=       -1075.88123120 eV    
  Monopole - monopole (total)=       -1919.89115959 eV    
--------------------------------------------------------------------------------
  Total lattice energy       =       -1517.00264667 eV    
--------------------------------------------------------------------------------
  Total lattice energy       =         -146367.5659 kJ/(mole unit cells)
--------------------------------------------------------------------------------

  Final fractional coordinates of atoms :

--------------------------------------------------------------------------------
   No.  Atomic        x           y          z          Radius
        Label       (Frac)      (Frac)     (Frac)       (Angs) 
--------------------------------------------------------------------------------
     1  Ge    c     0.313820    0.296860    0.309830    0.000000
     2  Ge    c     0.726656    0.643694    0.721562    0.000000
     3  Ge    c     0.693269    0.284788    0.390206    0.000000
     4  Ge    c     0.149469    0.963462    0.679958    0.000000
     5  Si    c     0.716404    0.247742    0.698886    0.000000
     6  Si    c     0.336649    0.699673    0.329417    0.000000
     7  Si    c     0.350492    0.265405    0.618342    0.000000
     8  Si    c     0.702465    0.680389    0.408777    0.000000
     9  Si    c     0.358346    0.664064    0.634047    0.000000
    10  Si    c     0.904491    0.985830    0.371493    0.000000
    11  Si    c     0.108865    0.995031    0.178300    0.000000
    12  Si    c     0.936203    0.943787    0.868178    0.000000
    13  O3    c     0.268080    0.251016    0.457012    0.000000
    14  O3    c     0.767660    0.255233    0.566099    0.000000
    15  O3    c     0.769783    0.674004    0.572433    0.000000
    16  O2    c     0.299979    0.710218    0.470810    0.000000
    17  O3    c     0.289098    0.515933    0.267526    0.000000
    18  O3    c     0.752143    0.426368    0.772602    0.000000
    19  O1    c     0.500246    0.237757    0.326376    0.000000
    20  O2    c     0.530973    0.217790    0.646151    0.000000
    21  O3    c     0.538824    0.709024    0.700808    0.000000
    22  O2    c     0.519718    0.728312    0.364186    0.000000
    23  O3    c     0.183198    0.182108    0.185475    0.000000
    24  O2    c     0.801048    0.086242    0.796941    0.000000
    25  O3    c     0.860910    0.757261    0.841816    0.000000
    26  O2    c     0.247987    0.851910    0.221846    0.000000
    27  O2    c     0.336585    0.460275    0.661014    0.000000
    28  O3    c     0.721526    0.498824    0.350877    0.000000
    29  O3    c     0.274785    0.135695    0.699918    0.000000
    30  O3    c     0.801419    0.159105    0.322471    0.000000
    31  O2    c     0.788385    0.824302    0.345519    0.000000
    32  O3    c     0.253241    0.772307    0.696532    0.000000
    33  O3    c     0.996808    0.987634    0.531528    0.000000
    34  O2    c     0.016836    0.966884    0.284532    0.000000
    35  O3    c     0.081499    0.964380    0.815512    0.000000
    36  O2    c     0.992649    0.968068    0.028795    0.000000
    37  O3    s     0.279487    0.255821    0.461134    0.000000
    38  O3    s     0.756672    0.256817    0.565437    0.000000
    39  O3    s     0.759806    0.672233    0.568475    0.000000
    40  O2    s     0.309701    0.704496    0.472852    0.000000
    41  O3    s     0.295811    0.516819    0.277072    0.000000
    42  O3    s     0.746665    0.425866    0.761423    0.000000
    43  O1    s     0.500856    0.246123    0.330108    0.000000
    44  O2    s     0.531343    0.226145    0.648715    0.000000
    45  O3    s     0.536384    0.699278    0.695957    0.000000
    46  O2    s     0.519168    0.719950    0.365222    0.000000
    47  O3    s     0.186284    0.172714    0.194741    0.000000
    48  O2    s     0.806050    0.089096    0.793541    0.000000
    49  O3    s     0.857116    0.766328    0.834319    0.000000
    50  O2    s     0.243091    0.850144    0.229169    0.000000
    51  O2    s     0.340344    0.461218    0.653726    0.000000
    52  O3    s     0.717367    0.500028    0.359796    0.000000
    53  O3    s     0.272742    0.135575    0.689729    0.000000
    54  O3    s     0.802669    0.152436    0.332847    0.000000
    55  O2    s     0.791119    0.825336    0.355365    0.000000
    56  O3    s     0.255816    0.776437    0.688667    0.000000
    57  O3    s     0.000865    0.985326    0.528341    0.000000
    58  O2    s     0.014028    0.972269    0.282892    0.000000
    59  O3    s     0.072417    0.962212    0.809535    0.000000
    60  O2    s     0.999808    0.968494    0.028083    0.000000
--------------------------------------------------------------------------------

  Final Cartesian lattice vectors (Angstroms) :

        9.095834   -0.003448   -0.068765
       -0.003348    7.756763    0.212503
       -3.373387    0.281004    9.835396


  Final cell parameters and derivatives :

--------------------------------------------------------------------------------
       a            9.096094 Angstrom     dE/de1(xx)     0.009888 eV/strain
       b            7.759674 Angstrom     dE/de2(yy)     0.008075 eV/strain
       c           10.401621 Angstrom     dE/de3(zz)     0.007683 eV/strain
       alpha       86.959611 Degrees      dE/de4(yz)    -0.000600 eV/strain
       beta       109.357589 Degrees      dE/de5(xz)     0.001437 eV/strain
       gamma       90.058287 Degrees      dE/de6(xy)    -0.000083 eV/strain
--------------------------------------------------------------------------------

  Primitive cell volume =           691.588683 Angs**3

  Density of cell =      2.158963 g/cm**3

  Non-primitive cell volume =           691.588683 Angs**3


  Final internal derivatives :

--------------------------------------------------------------------------------
   No.  Atomic          a             b             c           Radius
        Label          (eV)          (eV)          (eV)        (eV/Angs)
--------------------------------------------------------------------------------
      1 Ge    c       0.000000      0.000000      0.000000      0.000000
      2 Ge    c       0.000711      0.000134      0.000162      0.000000
      3 Ge    c       0.003076     -0.004488     -0.000897      0.000000
      4 Ge    c       0.002263     -0.001181      0.000620      0.000000
      5 Si    c       0.000971      0.001423     -0.002493      0.000000
      6 Si    c      -0.003156     -0.000608      0.007012      0.000000
      7 Si    c      -0.001843      0.000887      0.002247      0.000000
      8 Si    c       0.003173     -0.001500      0.000878      0.000000
      9 Si    c      -0.001104      0.001522     -0.001039      0.000000
     10 Si    c      -0.004884      0.002944      0.000563      0.000000
     11 Si    c       0.002585      0.001562      0.001304      0.000000
     12 Si    c       0.000720      0.001048      0.001106      0.000000
     13 O3    c      -0.000271      0.000347     -0.000072      0.000000
     14 O3    c      -0.001068      0.000837      0.000935      0.000000
     15 O3    c      -0.000232      0.000706     -0.002248      0.000000
     16 O2    c       0.000849      0.000617     -0.002240      0.000000
     17 O3    c      -0.000658     -0.005623     -0.004212      0.000000
     18 O3    c       0.000595      0.001990      0.000628      0.000000
     19 O1    c       0.001369     -0.001929     -0.001652      0.000000
     20 O2    c      -0.001114     -0.001663      0.000211      0.000000
     21 O3    c       0.001194      0.000991     -0.000713      0.000000
     22 O2    c       0.002334      0.003607     -0.000600      0.000000
     23 O3    c       0.004153      0.005077     -0.000736      0.000000
     24 O2    c      -0.000014     -0.001525      0.001373      0.000000
     25 O3    c      -0.003643     -0.004489     -0.001484      0.000000
     26 O2    c       0.001502      0.000763     -0.004584      0.000000
     27 O2    c      -0.001777     -0.003503      0.001363      0.000000
     28 O3    c       0.001714      0.007885     -0.002560      0.000000
     29 O3    c      -0.001537     -0.001057     -0.000491      0.000000
     30 O3    c       0.000300     -0.000536      0.001443      0.000000
     31 O2    c      -0.000120     -0.000149      0.000873      0.000000
     32 O3    c      -0.001879      0.000900      0.001439      0.000000
     33 O3    c      -0.002339      0.000292      0.005758      0.000000
     34 O2    c       0.001141     -0.002314      0.004797      0.000000
     35 O3    c       0.001988      0.000409     -0.001253      0.000000
     36 O2    c      -0.004594     -0.002049     -0.008695      0.000000
     37 O3    s      -0.000809     -0.000723     -0.000162      0.000000
     38 O3    s       0.001696     -0.001113     -0.000185      0.000000
     39 O3    s       0.001127     -0.001691      0.001761      0.000000
     40 O2    s      -0.003133     -0.000863      0.003458      0.000000
     41 O3    s      -0.000957     -0.001246      0.001596      0.000000
     42 O3    s      -0.000869      0.000628      0.000080      0.000000
     43 O1    s      -0.003010      0.000434      0.001390      0.000000
     44 O2    s      -0.001898      0.000861     -0.000438      0.000000
     45 O3    s       0.000821     -0.000796      0.001738      0.000000
     46 O2    s       0.003958      0.000945     -0.002357      0.000000
     47 O3    s       0.000644      0.002648      0.001081      0.000000
     48 O2    s       0.000065      0.001778     -0.000282      0.000000
     49 O3    s       0.000254     -0.000314      0.000883      0.000000
     50 O2    s       0.002798     -0.001488     -0.002989      0.000000
     51 O2    s       0.002618     -0.000714     -0.001397      0.000000
     52 O3    s      -0.001093     -0.003110      0.002017      0.000000
     53 O3    s       0.001377      0.000166     -0.001134      0.000000
     54 O3    s      -0.001466      0.000182     -0.001315      0.000000
     55 O2    s      -0.002541     -0.001170     -0.000189      0.000000
     56 O3    s       0.000878      0.001304     -0.000098      0.000000
     57 O3    s       0.002051      0.001013      0.000759      0.000000
     58 O2    s      -0.003794      0.001553      0.000852      0.000000
     59 O3    s       0.001397      0.000129      0.000013      0.000000
     60 O2    s      -0.000362     -0.000992     -0.000832      0.000000
--------------------------------------------------------------------------------
  Maximum abs         0.004884      0.007885      0.008695      0.000000
--------------------------------------------------------------------------------


  Born effective charge tensors : 

-------------------------------------------------------------------------------
  Atom             x           y             z
-------------------------------------------------------------------------------
    1 Ge    x       3.8897      0.1412      0.2933
            y       0.2796      4.2246      0.3406
            z       0.1437      0.2168      3.5196
-------------------------------------------------------------------------------
    2 Ge    x       3.8158      0.1121      0.2777
            y       0.3683      4.1500      0.2796
            z       0.1967      0.2295      3.5632
-------------------------------------------------------------------------------
    3 Ge    x       4.1012     -0.2574     -0.0967
            y      -0.3214      4.1528      0.1055
            z       0.1584      0.1246      3.2994
-------------------------------------------------------------------------------
    4 Ge    x       4.4704     -0.1096     -0.1788
            y       0.0431      3.9561      0.0397
            z      -0.2853      0.0132      3.6758
-------------------------------------------------------------------------------
    5 Si    x       3.2457     -0.2315      0.1414
            y      -0.2101      3.7643      0.0892
            z      -0.0609     -0.1414      3.2159
-------------------------------------------------------------------------------
    6 Si    x       3.1269     -0.1970      0.3094
            y      -0.0644      3.7234      0.0100
            z       0.1078     -0.0775      2.9787
-------------------------------------------------------------------------------
    7 Si    x       3.4908      0.4059     -0.2932
            y       0.4079      3.6398     -0.1353
            z       0.0499     -0.1099      3.0850
-------------------------------------------------------------------------------
    8 Si    x       3.4087      0.2056     -0.1563
            y       0.1487      3.7191      0.1816
            z       0.0632      0.0478      3.0749
-------------------------------------------------------------------------------
    9 Si    x       3.8688     -0.2947     -0.0887
            y      -0.4272      3.5878      0.2004
            z       0.0635      0.1493      2.9034
-------------------------------------------------------------------------------
   10 Si    x       3.8208     -0.1902      0.2308
            y      -0.0945      3.5286     -0.0935
            z      -0.3086      0.0427      3.2703
-------------------------------------------------------------------------------
   11 Si    x       3.2857      0.2625     -0.1016
            y       0.0368      3.5148      0.0015
            z       0.3923      0.2170      3.8540
-------------------------------------------------------------------------------
   12 Si    x       3.6991      0.3023      0.0893
            y       0.0485      3.5533      0.0060
            z      -0.1118      0.2658      4.0443
-------------------------------------------------------------------------------
   13 O3    x      -1.4400     -0.1423      0.1101
            y      -0.1541     -1.4035     -0.0803
            z       0.1655     -0.0209     -2.5083
-------------------------------------------------------------------------------
   14 O3    x      -1.5763      0.0818      0.4837
            y       0.0984     -1.3743      0.1014
            z       0.4111      0.1154     -2.4153
-------------------------------------------------------------------------------
   15 O3    x      -1.4697     -0.1210      0.2553
            y      -0.1446     -1.3688      0.0434
            z       0.2757      0.0639     -2.5541
-------------------------------------------------------------------------------
   16 O2    x      -1.3213      0.0803      0.2613
            y       0.0877     -1.2732      0.1047
            z       0.2420      0.1237     -1.9743
-------------------------------------------------------------------------------
   17 O3    x      -1.2269     -0.0836     -0.1226
            y      -0.1185     -3.1598     -0.2582
            z      -0.0811     -0.2223     -1.3281
-------------------------------------------------------------------------------
   18 O3    x      -1.2336      0.0005     -0.1070
            y      -0.0213     -3.0876     -0.2611
            z      -0.0675     -0.1984     -1.3626
-------------------------------------------------------------------------------
   19 O1    x      -3.1196      0.0550     -0.4447
            y       0.0417     -1.5006     -0.0803
            z      -0.4776     -0.0744     -1.3514
-------------------------------------------------------------------------------
   20 O2    x      -2.3287      0.0901     -0.3163
            y       0.0651     -1.2861      0.0182
            z      -0.3448      0.0577     -1.1317
-------------------------------------------------------------------------------
   21 O3    x      -2.8641      0.0096     -0.5091
            y      -0.0506     -1.4113     -0.0916
            z      -0.5350     -0.0800     -1.3318
-------------------------------------------------------------------------------
   22 O2    x      -2.4075      0.0404     -0.3090
            y       0.0272     -1.2436      0.0262
            z      -0.3197      0.0478     -1.1087
-------------------------------------------------------------------------------
   23 O3    x      -1.6328     -0.7646     -0.3695
            y      -0.7342     -2.5623     -0.5812
            z      -0.4261     -0.6113     -1.7610
-------------------------------------------------------------------------------
   24 O2    x      -1.4666      0.5156     -0.4062
            y       0.5258     -1.9451      0.5488
            z      -0.3507      0.5439     -1.5932
-------------------------------------------------------------------------------
   25 O3    x      -1.6310     -0.7282     -0.4766
            y      -0.7205     -2.5622     -0.6782
            z      -0.4648     -0.7246     -1.8312
-------------------------------------------------------------------------------
   26 O2    x      -1.5419      0.5631     -0.3574
            y       0.5571     -1.8773      0.5087
            z      -0.3552      0.4731     -1.5446
-------------------------------------------------------------------------------
   27 O2    x      -1.2259     -0.0015      0.0680
            y       0.0176     -2.4993     -0.0688
            z       0.0221     -0.0453     -1.0614
-------------------------------------------------------------------------------
   28 O3    x      -1.3630      0.0876      0.1287
            y       0.0577     -3.0913     -0.2375
            z       0.0605     -0.1678     -1.2081
-------------------------------------------------------------------------------
   29 O3    x      -2.2217     -1.0493      0.3577
            y      -1.0135     -2.3704      0.3076
            z       0.2705      0.2725     -1.3156
-------------------------------------------------------------------------------
   30 O3    x      -2.1300      0.9842      0.1152
            y       0.9575     -2.4460     -0.0279
            z       0.1672     -0.0657     -1.2665
-------------------------------------------------------------------------------
   31 O2    x      -1.8603     -0.7499      0.1162
            y      -0.7235     -1.9370      0.1009
            z       0.1371      0.0907     -1.1037
-------------------------------------------------------------------------------
   32 O3    x      -2.3040      1.0639      0.3781
            y       1.0193     -2.3485     -0.2898
            z       0.3451     -0.2776     -1.3050
-------------------------------------------------------------------------------
   33 O3    x      -1.7537      0.0286     -0.6852
            y      -0.0086     -1.2773     -0.0263
            z      -0.4154     -0.0049     -2.5966
-------------------------------------------------------------------------------
   34 O2    x      -2.1662     -0.0037      0.7141
            y       0.0258     -1.1424      0.0045
            z       0.6926     -0.0174     -1.7167
-------------------------------------------------------------------------------
   35 O3    x      -2.7719     -0.0514      0.9315
            y      -0.0118     -1.2274      0.0185
            z       0.9749      0.0024     -2.0900
-------------------------------------------------------------------------------
   36 O2    x      -1.1667     -0.0545     -0.2429
            y       0.0049     -1.1194     -0.1271
            z      -0.3352     -0.2583     -3.0246
-------------------------------------------------------------------------------




  Elastic Constant Matrix: (Units=GPa)

-------------------------------------------------------------------------------
  Indices      1         2         3         4         5         6    
-------------------------------------------------------------------------------
       1     50.3190   42.6962   12.9012    6.6140   -1.1028    0.9064
       2     42.6962   76.8083   14.5743    6.6499    2.3315    8.4703
       3     12.9012   14.5743   29.8340    5.0618    8.8179    7.5312
       4      6.6140    6.6499    5.0618   12.8243    3.3793    8.0665
       5     -1.1028    2.3315    8.8179    3.3793    8.6458    5.7634
       6      0.9064    8.4703    7.5312    8.0665    5.7634   17.1046
-------------------------------------------------------------------------------


  Elastic Compliance Matrix: (Units=1/GPa)

-------------------------------------------------------------------------------
  Indices      1         2         3         4         5         6    
-------------------------------------------------------------------------------
       1    0.049106 -0.024720 -0.018218 -0.025403  0.027961  0.020219
       2   -0.024720  0.027642  0.000985  0.009007 -0.004850 -0.015426
       3   -0.018218  0.000985  0.059838  0.006619 -0.060460 -0.008619
       4   -0.025403  0.009007  0.006619  0.126232 -0.023287 -0.057713
       5    0.027961 -0.004850 -0.060460 -0.023287  0.213601 -0.033450
       6    0.020219 -0.015426 -0.008619 -0.057713 -0.033450  0.107315
-------------------------------------------------------------------------------

  Mechanical properties :

-------------------------------------------------------------------------------
  Convention :                    Reuss         Voigt         Hill
-------------------------------------------------------------------------------
  Bulk  Modulus (GPa)     =      18.98158      33.03384      26.00771
  Shear Modulus (GPa)     =       7.29714      13.50094      10.39904
-------------------------------------------------------------------------------
  Velocity S-wave (km/s)  =       1.83846       2.50069       2.19469
  Velocity P-wave (km/s)  =       3.64672       4.86197       4.29752
-------------------------------------------------------------------------------
  Compressibility (1/GPa) =    0.05268264
-------------------------------------------------------------------------------
  Stress axis :                     x             y             z
-------------------------------------------------------------------------------
  Youngs Moduli (GPa)     =      20.36390      36.17665      16.71180
-------------------------------------------------------------------------------
  Poissons Ratio (x)      =                     0.89427       0.30445
  Poissons Ratio (y)      =       0.50339                    -0.01647
  Poissons Ratio (z)      =       0.37098      -0.03565
-------------------------------------------------------------------------------


  Piezoelectric Strain Matrix: (Units=C/m**2)

-------------------------------------------------------------------------------
  Indices      1         2         3         4         5         6    
-------------------------------------------------------------------------------
       x     0.18487   0.75040  -0.66991  -0.06379   0.20652  -0.21405
       y     0.08744   0.26604  -0.66194  -0.46743   0.19961   0.31032
       z     0.19558  -0.12632   0.66023  -0.02265  -0.82939  -0.28425
-------------------------------------------------------------------------------


  Piezoelectric Stress Matrix: (Units=10**-11 C/N)

-------------------------------------------------------------------------------
  Indices      1         2         3         4         5         6    
-------------------------------------------------------------------------------
       x     0.57997   1.72387  -5.37780  -0.28791   9.47909  -2.82619
       y     3.35063  -0.54253  -5.87771  -8.57692   8.43173   5.69711
       z    -2.76636   0.05273   8.82648   3.11244 -20.09601  -0.12414
-------------------------------------------------------------------------------


  Static dielectric constant tensor : 

-------------------------------------------------------------------------------
              x         y         z
-------------------------------------------------------------------------------
       x     4.56443   0.00278   0.06044
       y     0.00278   4.90966   0.19123
       z     0.06044   0.19123   3.54598
--------------------------------------------------------------------------------

  High frequency dielectric constant tensor : 

-------------------------------------------------------------------------------
              x         y         z
-------------------------------------------------------------------------------
       x     1.62289  -0.00071   0.00631
       y    -0.00071   1.63379   0.00506
       z     0.00631   0.00506   1.57909
-------------------------------------------------------------------------------

  Static refractive indices : 

-------------------------------------------------------------------------------
    1 =    1.87518      2 =    2.13717      3 =    2.22178
-------------------------------------------------------------------------------

  High frequency refractive indices : 

-------------------------------------------------------------------------------
    1 =    1.25608      2 =    1.27428      3 =    1.27838
-------------------------------------------------------------------------------


  Time to end of optimisation =       2.3954 seconds


  Peak dynamic memory used =       2.76 MB 


  Timing analysis for GULP :

--------------------------------------------------------------------------------
  Task / Subroutine                                          Time (Seconds)
--------------------------------------------------------------------------------
  Calculation of reciprocal space energy and derivatives          0.1696
  Calculation of real space energy and derivatives                1.9421
  Calculation of three-body energy and derivatives                0.0444
  Calculation and manipulation of Hessian matrix                  0.5608
  Calculation of matrix inversion                                 0.0030
--------------------------------------------------------------------------------
  Total CPU time                                                  2.3955
--------------------------------------------------------------------------------


  Dump file written as c00035.vasp.grs
  CIF file written as c00035.vasp.cif


  Job Finished at 22:38.31  6th October    2025                               

