********************************************************************************
*                       GENERAL UTILITY LATTICE PROGRAM                        *
*                                 Julian Gale                                  *
*                       Curtin Institute for Computation                       *
*                    School of Molecular and Life Sciences                     *
*                    Curtin University, Western Australia                      *
********************************************************************************
* Version = 6.1.2 * Last modified =   3rd November 2022                        *
********************************************************************************
*  optimise     - perform optimisation run                                     *
*  conp         - constant pressure calculation                                *
*  property     - calculate properties for final geometry                      *
********************************************************************************

  Job Started  at 22:38.39  6th October    2025                               

  Number of CPUs =     1


  Total number of configurations input =      1

********************************************************************************
*  Input for Configuration =   1 : c00038.vasp                                 *
********************************************************************************

  Formula = Ge4Si8O24                                                   

  Number of irreducible atoms/shells =      60


  Total number atoms/shells =      60

  Dimensionality = 3               :  Bulk   



  Cartesian lattice vectors (Angstroms) :

        9.086940    0.000000    0.000000
        0.000000    7.554810    0.000000
       -3.295144    0.000000    9.944380

  Cell parameters (Angstroms/Degrees):

  a =       9.0869    alpha =  90.0000
  b =       7.5548    beta  = 108.3330
  c =      10.4761    gamma =  90.0000

  Initial cell volume =         682.682735 Angs**3

  Temperature of configuration =   0.00     K 

  Pressure of configuration =         0.000 GPa 

  Fractional coordinates of asymmetric unit :

--------------------------------------------------------------------------------
   No.  Atomic       x           y          z         Charge      Occupancy
        Label      (Frac)      (Frac)     (Frac)        (e)         (Frac)  
--------------------------------------------------------------------------------
      1 Ge    c    0.313820    0.296860    0.309830     4.00000    1.000000    
      2 Ge    c    0.686180 *  0.703140 *  0.690170 *   4.00000    1.000000    
      3 Ge    c    0.879680 *  0.000000 *  0.350160 *   4.00000    1.000000    
      4 Ge    c    0.120320 *  0.000000 *  0.649840 *   4.00000    1.000000    
      5 Si    c    0.686180 *  0.296860 *  0.690170 *   4.00000    1.000000    
      6 Si    c    0.313820 *  0.703140 *  0.309830 *   4.00000    1.000000    
      7 Si    c    0.331050 *  0.296920 *  0.607380 *   4.00000    1.000000    
      8 Si    c    0.668950 *  0.296920 *  0.392620 *   4.00000    1.000000    
      9 Si    c    0.668950 *  0.703080 *  0.392620 *   4.00000    1.000000    
     10 Si    c    0.331050 *  0.703080 *  0.607380 *   4.00000    1.000000    
     11 Si    c    0.093070 *  0.000000 *  0.158230 *   4.00000    1.000000    
     12 Si    c    0.906930 *  0.000000 *  0.841770 *   4.00000    1.000000    
     13 O3    c    0.268740 *  0.279030 *  0.446100 *   1.33043    1.000000    
     14 O2    c    0.731260 *  0.279030 *  0.553900 *   0.87073    1.000000    
     15 O3    c    0.731260 *  0.720970 *  0.553900 *   1.33043    1.000000    
     16 O2    c    0.268740 *  0.720970 *  0.446100 *   0.87073    1.000000    
     17 O3    c    0.295480 *  0.500000 *  0.260860 *   1.33043    1.000000    
     18 O3    c    0.704520 *  0.500000 *  0.739140 *   1.33043    1.000000    
     19 O3    c    0.490600 *  0.234690 *  0.337530 *   1.33043    1.000000    
     20 O2    c    0.509400 *  0.234690 *  0.662470 *   0.87073    1.000000    
     21 O3    c    0.509400 *  0.765310 *  0.662470 *   1.33043    1.000000    
     22 O2    c    0.490600 *  0.765310 *  0.337530 *   0.87073    1.000000    
     23 O3    c    0.200440 *  0.174000 *  0.194980 *   1.33043    1.000000    
     24 O2    c    0.799560 *  0.174000 *  0.805020 *   0.87073    1.000000    
     25 O3    c    0.799560 *  0.826000 *  0.805020 *   1.33043    1.000000    
     26 O2    c    0.200440 *  0.826000 *  0.194980 *   0.87073    1.000000    
     27 O2    c    0.317860 *  0.500000 *  0.649090 *   0.87073    1.000000    
     28 O2    c    0.682140 *  0.500000 *  0.350910 *   0.87073    1.000000    
     29 O3    c    0.227920 *  0.173870 *  0.671620 *   1.33043    1.000000    
     30 O3    c    0.772080 *  0.173870 *  0.328380 *   1.33043    1.000000    
     31 O3    c    0.772080 *  0.826130 *  0.328380 *   1.33043    1.000000    
     32 O3    c    0.227920 *  0.826130 *  0.671620 *   1.33043    1.000000    
     33 O1    c    0.000000 *  0.000000 *  0.500000 *   1.73396    1.000000    
     34 O3    c    0.971960 *  0.000000 *  0.241930 *   1.33043    1.000000    
     35 O3    c    0.028040 *  0.000000 *  0.758070 *   1.33043    1.000000    
     36 O2    c    0.000000 *  0.000000 *  0.000000 *   0.87073    1.000000    
     37 O3    s    0.268740 *  0.279030 *  0.446100 *  -3.33043    1.000000    
     38 O2    s    0.731260 *  0.279030 *  0.553900 *  -2.87073    1.000000    
     39 O3    s    0.731260 *  0.720970 *  0.553900 *  -3.33043    1.000000    
     40 O2    s    0.268740 *  0.720970 *  0.446100 *  -2.87073    1.000000    
     41 O3    s    0.295480 *  0.500000 *  0.260860 *  -3.33043    1.000000    
     42 O3    s    0.704520 *  0.500000 *  0.739140 *  -3.33043    1.000000    
     43 O3    s    0.490600 *  0.234690 *  0.337530 *  -3.33043    1.000000    
     44 O2    s    0.509400 *  0.234690 *  0.662470 *  -2.87073    1.000000    
     45 O3    s    0.509400 *  0.765310 *  0.662470 *  -3.33043    1.000000    
     46 O2    s    0.490600 *  0.765310 *  0.337530 *  -2.87073    1.000000    
     47 O3    s    0.200440 *  0.174000 *  0.194980 *  -3.33043    1.000000    
     48 O2    s    0.799560 *  0.174000 *  0.805020 *  -2.87073    1.000000    
     49 O3    s    0.799560 *  0.826000 *  0.805020 *  -3.33043    1.000000    
     50 O2    s    0.200440 *  0.826000 *  0.194980 *  -2.87073    1.000000    
     51 O2    s    0.317860 *  0.500000 *  0.649090 *  -2.87073    1.000000    
     52 O2    s    0.682140 *  0.500000 *  0.350910 *  -2.87073    1.000000    
     53 O3    s    0.227920 *  0.173870 *  0.671620 *  -3.33043    1.000000    
     54 O3    s    0.772080 *  0.173870 *  0.328380 *  -3.33043    1.000000    
     55 O3    s    0.772080 *  0.826130 *  0.328380 *  -3.33043    1.000000    
     56 O3    s    0.227920 *  0.826130 *  0.671620 *  -3.33043    1.000000    
     57 O1    s    0.000000 *  0.000000 *  0.500000 *  -3.73396    1.000000    
     58 O3    s    0.971960 *  0.000000 *  0.241930 *  -3.33043    1.000000    
     59 O3    s    0.028040 *  0.000000 *  0.758070 *  -3.33043    1.000000    
     60 O2    s    0.000000 *  0.000000 *  0.000000 *  -2.87073    1.000000    
--------------------------------------------------------------------------------



********************************************************************************
*  General input information                                                   *
********************************************************************************

  Species output for all configurations : 

--------------------------------------------------------------------------------
  Species    Type    Atomic    Atomic    Charge       Radii (Angs)     Library
                     Number     Mass       (e)     Cova   Ionic  VDW   Symbol
--------------------------------------------------------------------------------
    Ge       Core       32      72.61   4.000000   1.170  0.000  1.750 Ge       
    Si       Core       14      28.09   4.000000   1.200  0.000  2.100 Si       
    O1       Core        8      16.00   1.733957   0.730  0.000  1.360 O1       
    O2       Core        8      16.00   0.870733   0.730  0.000  1.360 O2       
    O3       Core        8      16.00   1.330431   0.730  0.000  1.360 O3       
    O1       Shell       8       0.00  -3.733957   0.730  0.000  0.000 O1       
    O2       Shell       8       0.00  -2.870733   0.730  0.000  0.000 O2       
    O3       Shell       8       0.00  -3.330431   0.730  0.000  0.000 O3       
--------------------------------------------------------------------------------


  Lattice summation method               =    Ewald          (3-D)
                                         =    Parry          (2-D)
                                         =    Saunders et al (1-D)
  Accuracy factor for lattice sums       =   12.000


  Analytic derivatives to be used

  Time limit = Infinity

  Maximum range for interatomic potentials =    100000.000000 Angstroms

  General interatomic potentials :

--------------------------------------------------------------------------------
Atom  Types   Potential      Parameter       Value         Units   Cutoffs(Ang)
  1     2                                                            Min /  Max 
--------------------------------------------------------------------------------
Si   c O1   s Buckingham    Buckingham A     1315.2478    eV        0.000 16.000
                            Buckingham rho  0.31775900    Ang       
                            Buckingham C     10.141118    eV*Ang^6  
--------------------------------------------------------------------------------
Si   c O2   s Buckingham    Buckingham A     1315.2478    eV        0.000 16.000
                            Buckingham rho  0.31775900    Ang       
                            Buckingham C     10.141118    eV*Ang^6  
--------------------------------------------------------------------------------
Si   c O3   s Buckingham    Buckingham A     1315.2478    eV        0.000 16.000
                            Buckingham rho  0.31775900    Ang       
                            Buckingham C     10.141118    eV*Ang^6  
--------------------------------------------------------------------------------
Ge   c O1   s Buckingham    Buckingham A     1497.3996    eV        0.000 16.000
                            Buckingham rho  0.32564600    Ang       
                            Buckingham C     16.808599    eV*Ang^6  
--------------------------------------------------------------------------------
Ge   c O2   s Buckingham    Buckingham A     1497.3996    eV        0.000 16.000
                            Buckingham rho  0.32564600    Ang       
                            Buckingham C     16.808599    eV*Ang^6  
--------------------------------------------------------------------------------
Ge   c O3   s Buckingham    Buckingham A     1497.3996    eV        0.000 16.000
                            Buckingham rho  0.32564600    Ang       
                            Buckingham C     16.808599    eV*Ang^6  
--------------------------------------------------------------------------------
O1   s O1   s Buckingham    Buckingham A     22764.000    eV        0.000 16.000
                            Buckingham rho  0.14900000    Ang       
                            Buckingham C     10.937044    eV*Ang^6  
--------------------------------------------------------------------------------
O1   s O2   s Buckingham    Buckingham A     22764.000    eV        0.000 16.000
                            Buckingham rho  0.14900000    Ang       
                            Buckingham C     10.937044    eV*Ang^6  
--------------------------------------------------------------------------------
O1   s O3   s Buckingham    Buckingham A     22764.000    eV        0.000 16.000
                            Buckingham rho  0.14900000    Ang       
                            Buckingham C     10.937044    eV*Ang^6  
--------------------------------------------------------------------------------
O2   s O2   s Buckingham    Buckingham A     22764.000    eV        0.000 16.000
                            Buckingham rho  0.14900000    Ang       
                            Buckingham C     10.937044    eV*Ang^6  
--------------------------------------------------------------------------------
O2   s O3   s Buckingham    Buckingham A     22764.000    eV        0.000 16.000
                            Buckingham rho  0.14900000    Ang       
                            Buckingham C     10.937044    eV*Ang^6  
--------------------------------------------------------------------------------
O3   s O3   s Buckingham    Buckingham A     22764.000    eV        0.000 16.000
                            Buckingham rho  0.14900000    Ang       
                            Buckingham C     10.937044    eV*Ang^6  
--------------------------------------------------------------------------------
O1   c O1   s Spring (c-s)  Spring k 2       180.31577    eV*Ang^-2 0.000  0.800
                            Spring k 4       0.0000000    eV*Ang^-4 
--------------------------------------------------------------------------------
O2   c O2   s Spring (c-s)  Spring k 2       75.969800    eV*Ang^-2 0.000  0.800
                            Spring k 4       0.0000000    eV*Ang^-4 
--------------------------------------------------------------------------------
O3   c O3   s Spring (c-s)  Spring k 2       128.14270    eV*Ang^-2 0.000  0.800
                            Spring k 4       0.0000000    eV*Ang^-4 
--------------------------------------------------------------------------------

  General Three-body potentials :

--------------------------------------------------------------------------------
  Atoms       Potential      Parameter       Value         Units   Cutoffs(Ang)
  1 / 2 / 3                                                          Min /  Max 
--------------------------------------------------------------------------------
Si    core    Harmonic      Three-body cnst  1.2614000    eV*rad^-2 0.000  1.900
O1    shel                  Three-body angl  109.47000    degrees   0.000  1.900
O1    shel                  Three-body k4    0.0000000    eV*rad^-4 0.000  3.500
                            Three-body k3    0.0000000    eV*rad^-3 
--------------------------------------------------------------------------------
Si    core    Harmonic      Three-body cnst  1.2614000    eV*rad^-2 0.000  1.900
O1    shel                  Three-body angl  109.47000    degrees   0.000  1.900
õ(1   shel                  Three-body k4    0.0000000    eV*rad^-4 0.000  3.500
                            Three-body k3    0.0000000    eV*rad^-3 
--------------------------------------------------------------------------------
Si    core    Harmonic      Three-body cnst  1.2614000    eV*rad^-2 0.000  1.900
õ(1   shel                  Three-body angl  109.47000    degrees   0.000  1.900
õ(1   shel                  Three-body k4    0.0000000    eV*rad^-4 0.000  3.500
                            Three-body k3    0.0000000    eV*rad^-3 
--------------------------------------------------------------------------------
Si    core    Harmonic      Three-body cnst  1.2614000    eV*rad^-2 0.000  1.900
O1    shel                  Three-body angl  109.47000    degrees   0.000  1.900
O2    shel                  Three-body k4    0.0000000    eV*rad^-4 0.000  3.500
                            Three-body k3    0.0000000    eV*rad^-3 
--------------------------------------------------------------------------------
Si    core    Harmonic      Three-body cnst  1.2614000    eV*rad^-2 0.000  1.900
O1    shel                  Three-body angl  109.47000    degrees   0.000  1.900
õ(2   shel                  Three-body k4    0.0000000    eV*rad^-4 0.000  3.500
                            Three-body k3    0.0000000    eV*rad^-3 
--------------------------------------------------------------------------------
Si    core    Harmonic      Three-body cnst  1.2614000    eV*rad^-2 0.000  1.900
O2    shel                  Three-body angl  109.47000    degrees   0.000  1.900
õ(1   shel                  Three-body k4    0.0000000    eV*rad^-4 0.000  3.500
                            Three-body k3    0.0000000    eV*rad^-3 
--------------------------------------------------------------------------------
Si    core    Harmonic      Three-body cnst  1.2614000    eV*rad^-2 0.000  1.900
õ(1   shel                  Three-body angl  109.47000    degrees   0.000  1.900
õ(2   shel                  Three-body k4    0.0000000    eV*rad^-4 0.000  3.500
                            Three-body k3    0.0000000    eV*rad^-3 
--------------------------------------------------------------------------------
Si    core    Harmonic      Three-body cnst  1.2614000    eV*rad^-2 0.000  1.900
O2    shel                  Three-body angl  109.47000    degrees   0.000  1.900
O2    shel                  Three-body k4    0.0000000    eV*rad^-4 0.000  3.500
                            Three-body k3    0.0000000    eV*rad^-3 
--------------------------------------------------------------------------------
Si    core    Harmonic      Three-body cnst  1.2614000    eV*rad^-2 0.000  1.900
O2    shel                  Three-body angl  109.47000    degrees   0.000  1.900
õ(2   shel                  Three-body k4    0.0000000    eV*rad^-4 0.000  3.500
                            Three-body k3    0.0000000    eV*rad^-3 
--------------------------------------------------------------------------------
Si    core    Harmonic      Three-body cnst  1.2614000    eV*rad^-2 0.000  1.900
õ(2   shel                  Three-body angl  109.47000    degrees   0.000  1.900
õ(2   shel                  Three-body k4    0.0000000    eV*rad^-4 0.000  3.500
                            Three-body k3    0.0000000    eV*rad^-3 
--------------------------------------------------------------------------------

********************************************************************************
*  Output for configuration   1 : c00038.vasp                                  *
********************************************************************************


  Components of energy : 

--------------------------------------------------------------------------------
  Interatomic potentials     =         400.32428565 eV    
  Three-body potentials      =           0.00002227 eV    
  Monopole - monopole (real) =       -1236.99964305 eV    
  Monopole - monopole (recip)=        -659.26603192 eV    
  Monopole - monopole (total)=       -1896.26567496 eV    
--------------------------------------------------------------------------------
  Total lattice energy       =       -1495.94136705 eV    
--------------------------------------------------------------------------------
  Total lattice energy       =         -144335.4744 kJ/(mole unit cells)
--------------------------------------------------------------------------------


  Number of variables =      183

  Maximum number of calculations  =          1000
  Maximum Hessian update interval =            10
  Maximum step size               =   0.100000000
  Maximum parameter tolerance     =   0.000010000
  Maximum function  tolerance     =   0.000010000
  Maximum gradient  tolerance     =   0.001000000
  Maximum gradient  component     =   0.010000000

  Symmetry not applied to optimisation

  Cell parameters to be optimised using strains

  Newton-Raphson optimiser to be used

  BFGS hessian update to be used

  Lower half triangular hessian to be used

  Minimiser to switch to RFO
  When gradient norm is less than     0.050000

  Dumpfile to be written after every cycle

  Start of bulk optimisation :

  Cycle:      0 Energy:     -1495.941367  Gnorm:      5.520485  CPU:    0.030
  ** Hessian calculated **
  Cycle:      1 Energy:     -1512.163540  Gnorm:      1.395532  CPU:    0.068
  ** Hessian calculated **
  Cycle:      2 Energy:     -1514.067623  Gnorm:      1.043766  CPU:    0.137
  ** Hessian calculated **
  Cycle:      3 Energy:     -1515.004076  Gnorm:      0.609083  CPU:    0.199
  Cycle:      4 Energy:     -1515.463765  Gnorm:      0.393282  CPU:    0.237
  Cycle:      5 Energy:     -1515.885987  Gnorm:      0.312431  CPU:    0.280
  Cycle:      6 Energy:     -1516.248244  Gnorm:      0.251884  CPU:    0.325
  Cycle:      7 Energy:     -1516.427766  Gnorm:      0.190108  CPU:    0.365
  Cycle:      8 Energy:     -1516.528280  Gnorm:      0.145149  CPU:    0.404
  Cycle:      9 Energy:     -1516.576826  Gnorm:      0.103080  CPU:    0.443
  Cycle:     10 Energy:     -1516.600214  Gnorm:      0.076522  CPU:    0.483
  Cycle:     11 Energy:     -1516.618971  Gnorm:      0.069997  CPU:    0.529
  Cycle:     12 Energy:     -1516.636132  Gnorm:      0.073504  CPU:    0.576
  ** Hessian calculated **
  Cycle:     13 Energy:     -1516.651659  Gnorm:      0.071944  CPU:    0.648
  Cycle:     14 Energy:     -1516.677204  Gnorm:      0.069287  CPU:    0.703
  Cycle:     15 Energy:     -1516.714748  Gnorm:      0.065152  CPU:    0.758
  Cycle:     16 Energy:     -1516.758248  Gnorm:      0.059965  CPU:    0.805
  Cycle:     17 Energy:     -1516.823089  Gnorm:      0.051311  CPU:    0.860
  Cycle:     18 Energy:     -1516.890497  Gnorm:      0.040944  CPU:    0.908
  ** Hessian has wrong structure
  ** Imaginary eigenvectors =   3
  Cycle:     19 Energy:     -1516.896923  Gnorm:      0.081319  CPU:    1.000
  ** Hessian has wrong structure
  ** Imaginary eigenvectors =   2
  ** Hessian has wrong structure
  ** Imaginary eigenvectors =   1
  Cycle:     20 Energy:     -1516.910169  Gnorm:      0.096502  CPU:    1.147
  ** Hessian has required structure
  Cycle:     21 Energy:     -1516.990266  Gnorm:      0.051587  CPU:    1.226
  ** Hessian has required structure
  Cycle:     22 Energy:     -1517.018200  Gnorm:      0.028937  CPU:    1.279
  ** Hessian has required structure
  Cycle:     23 Energy:     -1517.030885  Gnorm:      0.015175  CPU:    1.333
  ** Hessian has required structure
  Cycle:     24 Energy:     -1517.035730  Gnorm:      0.014993  CPU:    1.387
  ** Hessian has required structure
  Cycle:     25 Energy:     -1517.040770  Gnorm:      0.008532  CPU:    1.434
  ** Hessian has required structure
  Cycle:     26 Energy:     -1517.042818  Gnorm:      0.009956  CPU:    1.480
  ** Hessian has required structure
  Cycle:     27 Energy:     -1517.045043  Gnorm:      0.013994  CPU:    1.534
  ** Hessian has required structure
  Cycle:     28 Energy:     -1517.047700  Gnorm:      0.010977  CPU:    1.588
  ** Hessian has required structure
  Cycle:     29 Energy:     -1517.050937  Gnorm:      0.013748  CPU:    1.642
  ** Hessian has required structure
  Cycle:     30 Energy:     -1517.056541  Gnorm:      0.016373  CPU:    1.697
  ** Hessian has wrong structure
  ** Imaginary eigenvectors =   1
  Cycle:     31 Energy:     -1517.064067  Gnorm:      0.026574  CPU:    1.815
  ** Hessian has required structure
  Cycle:     32 Energy:     -1517.078380  Gnorm:      0.018369  CPU:    1.893
  ** Hessian has required structure
  Cycle:     33 Energy:     -1517.084330  Gnorm:      0.011853  CPU:    1.948
  ** Hessian has required structure
  Cycle:     34 Energy:     -1517.086923  Gnorm:      0.006054  CPU:    2.003
  ** Hessian has required structure
  Cycle:     35 Energy:     -1517.087700  Gnorm:      0.005355  CPU:    2.050
  ** Hessian has required structure
  Cycle:     36 Energy:     -1517.088104  Gnorm:      0.000682  CPU:    2.097
  ** Hessian has required structure
  Cycle:     37 Energy:     -1517.088216  Gnorm:      0.000527  CPU:    2.144
  ** Hessian has required structure
  Cycle:     38 Energy:     -1517.088238  Gnorm:      0.000399  CPU:    2.191
  ** Hessian has required structure
  Cycle:     39 Energy:     -1517.088247  Gnorm:      0.000271  CPU:    2.238
  ** Hessian has required structure
  Cycle:     40 Energy:     -1517.088249  Gnorm:      0.000236  CPU:    2.277
  ** Hessian has required structure
  Cycle:     41 Energy:     -1517.088250  Gnorm:      0.000180  CPU:    2.316
  ** Hessian has required structure


  **** Optimisation achieved ****


  Final energy =   -1517.08825160 eV      
  Final Gnorm  =       0.00014188

  Components of energy : 

--------------------------------------------------------------------------------
  Interatomic potentials     =         403.98203037 eV    
  Three-body potentials      =           0.02641993 eV    
  Monopole - monopole (real) =        -841.18590030 eV    
  Monopole - monopole (recip)=       -1079.91080159 eV    
  Monopole - monopole (total)=       -1921.09670190 eV    
--------------------------------------------------------------------------------
  Total lattice energy       =       -1517.08825160 eV    
--------------------------------------------------------------------------------
  Total lattice energy       =         -146375.8255 kJ/(mole unit cells)
--------------------------------------------------------------------------------

  Final fractional coordinates of atoms :

--------------------------------------------------------------------------------
   No.  Atomic        x           y          z          Radius
        Label       (Frac)      (Frac)     (Frac)       (Angs) 
--------------------------------------------------------------------------------
     1  Ge    c     0.313820    0.296860    0.309830    0.000000
     2  Ge    c     0.739954    0.634251    0.720001    0.000000
     3  Ge    c     0.894590    0.963858    0.337569    0.000000
     4  Ge    c     0.154290    0.968331    0.649891    0.000000
     5  Si    c     0.711502    0.231397    0.700455    0.000000
     6  Si    c     0.345118    0.702778    0.332094    0.000000
     7  Si    c     0.355690    0.273176    0.629557    0.000000
     8  Si    c     0.674684    0.259921    0.387749    0.000000
     9  Si    c     0.696965    0.663394    0.401057    0.000000
    10  Si    c     0.381565    0.668092    0.647609    0.000000
    11  Si    c     0.107845    0.997881    0.157635    0.000000
    12  Si    c     0.944072    0.936867    0.846371    0.000000
    13  O3    c     0.309105    0.227428    0.469261    0.000000
    14  O2    c     0.706098    0.187852    0.545307    0.000000
    15  O3    c     0.741873    0.711610    0.560620    0.000000
    16  O2    c     0.360452    0.733511    0.490778    0.000000
    17  O3    c     0.271680    0.518902    0.284494    0.000000
    18  O3    c     0.788991    0.414920    0.742354    0.000000
    19  O3    c     0.494895    0.254792    0.300636    0.000000
    20  O2    c     0.538661    0.240809    0.704094    0.000000
    21  O3    c     0.560956    0.667369    0.736017    0.000000
    22  O2    c     0.515619    0.705810    0.320924    0.000000
    23  O3    c     0.172264    0.190141    0.187983    0.000000
    24  O2    c     0.801887    0.078861    0.808268    0.000000
    25  O3    c     0.875766    0.746787    0.843373    0.000000
    26  O2    c     0.245867    0.862140    0.240332    0.000000
    27  O2    c     0.315273    0.474890    0.643590    0.000000
    28  O2    c     0.730782    0.458010    0.393291    0.000000
    29  O3    c     0.259898    0.154064    0.697186    0.000000
    30  O3    c     0.772632    0.142662    0.321154    0.000000
    31  O3    c     0.797401    0.773037    0.331527    0.000000
    32  O3    c     0.282645    0.792311    0.708028    0.000000
    33  O1    c     0.059601    0.967119    0.475948    0.000000
    34  O3    c     0.955326    0.970904    0.195058    0.000000
    35  O3    c     0.019421    0.961981    0.728774    0.000000
    36  O2    c     0.068304    0.968085    0.994870    0.000000
    37  O3    s     0.313958    0.237417    0.471833    0.000000
    38  O2    s     0.703481    0.199610    0.545146    0.000000
    39  O3    s     0.737426    0.700901    0.557776    0.000000
    40  O2    s     0.361006    0.723520    0.490224    0.000000
    41  O3    s     0.282236    0.519783    0.291161    0.000000
    42  O3    s     0.777404    0.414444    0.736444    0.000000
    43  O3    s     0.498159    0.258677    0.309989    0.000000
    44  O2    s     0.537863    0.243323    0.695717    0.000000
    45  O3    s     0.557433    0.664772    0.725899    0.000000
    46  O2    s     0.516592    0.701026    0.330464    0.000000
    47  O3    s     0.177723    0.180247    0.195141    0.000000
    48  O2    s     0.806522    0.081122    0.800254    0.000000
    49  O3    s     0.871431    0.756254    0.833636    0.000000
    50  O2    s     0.242381    0.858525    0.241994    0.000000
    51  O2    s     0.326546    0.473593    0.642506    0.000000
    52  O2    s     0.721328    0.458969    0.393538    0.000000
    53  O3    s     0.261502    0.151819    0.686431    0.000000
    54  O3    s     0.772323    0.140329    0.329522    0.000000
    55  O3    s     0.794856    0.777123    0.339250    0.000000
    56  O3    s     0.282786    0.793279    0.697112    0.000000
    57  O1    s     0.053770    0.966941    0.478654    0.000000
    58  O3    s     0.965902    0.973058    0.202576    0.000000
    59  O3    s     0.023694    0.959936    0.733964    0.000000
    60  O2    s     0.058670    0.967762    0.995747    0.000000
--------------------------------------------------------------------------------

  Final Cartesian lattice vectors (Angstroms) :

        9.213614    0.098221   -0.047690
        0.082069    7.687277    0.141724
       -3.394093    0.152484    9.677805


  Final cell parameters and derivatives :

--------------------------------------------------------------------------------
       a            9.214261 Angstrom     dE/de1(xx)    -0.000111 eV/strain
       b            7.689021 Angstrom     dE/de2(yy)     0.004233 eV/strain
       c           10.256853 Angstrom     dE/de3(zz)     0.005150 eV/strain
       alpha       88.354089 Degrees      dE/de4(yz)     0.000505 eV/strain
       beta       109.609729 Degrees      dE/de5(xz)     0.000042 eV/strain
       gamma       88.783257 Degrees      dE/de6(xy)    -0.001528 eV/strain
--------------------------------------------------------------------------------

  Primitive cell volume =           683.886498 Angs**3

  Density of cell =      2.183278 g/cm**3

  Non-primitive cell volume =           683.886498 Angs**3


  Final internal derivatives :

--------------------------------------------------------------------------------
   No.  Atomic          a             b             c           Radius
        Label          (eV)          (eV)          (eV)        (eV/Angs)
--------------------------------------------------------------------------------
      1 Ge    c       0.000000      0.000000      0.000000      0.000000
      2 Ge    c      -0.001489     -0.000366     -0.000236      0.000000
      3 Ge    c       0.000962     -0.000556     -0.000073      0.000000
      4 Ge    c      -0.001929      0.000740      0.001127      0.000000
      5 Si    c      -0.001902      0.000696      0.001696      0.000000
      6 Si    c       0.004167      0.001077      0.001808      0.000000
      7 Si    c      -0.000152     -0.005253      0.003687      0.000000
      8 Si    c       0.000549      0.001354     -0.000817      0.000000
      9 Si    c       0.000204      0.000914      0.000350      0.000000
     10 Si    c       0.001841      0.000088     -0.000638      0.000000
     11 Si    c      -0.002734      0.001395      0.003775      0.000000
     12 Si    c       0.001768      0.000394     -0.002653      0.000000
     13 O3    c      -0.007122     -0.001098     -0.003319      0.000000
     14 O2    c       0.001786     -0.000788      0.000006      0.000000
     15 O3    c      -0.000165      0.000063      0.000789      0.000000
     16 O2    c      -0.001464     -0.000687      0.003170      0.000000
     17 O3    c      -0.002051     -0.004952     -0.004769      0.000000
     18 O3    c      -0.000724      0.000704      0.000316      0.000000
     19 O3    c       0.000334     -0.000835     -0.000589      0.000000
     20 O2    c       0.005495     -0.000332     -0.000425      0.000000
     21 O3    c      -0.000392     -0.000970     -0.001746      0.000000
     22 O2    c      -0.003385     -0.000157      0.000776      0.000000
     23 O3    c       0.000744      0.000871     -0.000295      0.000000
     24 O2    c      -0.000017     -0.000122     -0.000078      0.000000
     25 O3    c       0.000020      0.000528     -0.000134      0.000000
     26 O2    c       0.000055      0.001551      0.000159      0.000000
     27 O2    c      -0.000993      0.009515      0.005611      0.000000
     28 O2    c      -0.000207     -0.002570     -0.000164      0.000000
     29 O3    c       0.000788      0.000532     -0.001648      0.000000
     30 O3    c       0.000330     -0.000551     -0.001024      0.000000
     31 O3    c      -0.000677     -0.000720      0.000378      0.000000
     32 O3    c       0.000674     -0.000504     -0.001067      0.000000
     33 O1    c      -0.000978     -0.000360     -0.000355      0.000000
     34 O3    c       0.002214      0.000185     -0.001202      0.000000
     35 O3    c       0.002164      0.000227      0.001515      0.000000
     36 O2    c      -0.001129     -0.001396     -0.006582      0.000000
     37 O3    s       0.002844     -0.000810     -0.002718      0.000000
     38 O2    s      -0.001575      0.000611     -0.000077      0.000000
     39 O3    s      -0.000277     -0.000180      0.000670      0.000000
     40 O2    s       0.001023      0.000130      0.002789      0.000000
     41 O3    s       0.001852      0.001786     -0.000313      0.000000
     42 O3    s       0.000043     -0.000560      0.000370      0.000000
     43 O3    s      -0.000007      0.000398      0.000408      0.000000
     44 O2    s       0.002608     -0.002967     -0.001163      0.000000
     45 O3    s      -0.000638      0.001036     -0.000381      0.000000
     46 O2    s       0.001387      0.000643     -0.000441      0.000000
     47 O3    s      -0.000747      0.001125      0.000284      0.000000
     48 O2    s       0.000832     -0.000063      0.000323      0.000000
     49 O3    s       0.001012      0.000146      0.000351      0.000000
     50 O2    s       0.001001     -0.000012     -0.000734      0.000000
     51 O2    s      -0.002685      0.001176      0.003182      0.000000
     52 O2    s       0.000141      0.000053     -0.000651      0.000000
     53 O3    s      -0.002871     -0.002538      0.003580      0.000000
     54 O3    s       0.000709      0.000562     -0.000139      0.000000
     55 O3    s       0.000809      0.000880     -0.000426      0.000000
     56 O3    s       0.000013     -0.000298      0.000701      0.000000
     57 O1    s       0.000026      0.000481      0.001257      0.000000
     58 O3    s      -0.002324      0.000255      0.001162      0.000000
     59 O3    s      -0.000769     -0.000051      0.000727      0.000000
     60 O2    s      -0.000386     -0.000168     -0.000848      0.000000
--------------------------------------------------------------------------------
  Maximum abs         0.007122      0.009515      0.006582      0.000000
--------------------------------------------------------------------------------


  Born effective charge tensors : 

-------------------------------------------------------------------------------
  Atom             x           y             z
-------------------------------------------------------------------------------
    1 Ge    x       3.7884      0.2511      0.1839
            y       0.2863      4.1962      0.3731
            z       0.2973      0.1345      3.5484
-------------------------------------------------------------------------------
    2 Ge    x       3.7613      0.2977      0.1750
            y       0.2355      4.1820      0.3968
            z       0.2750      0.1259      3.5075
-------------------------------------------------------------------------------
    3 Ge    x       4.6190      0.0772     -0.1554
            y      -0.0355      3.9391     -0.0295
            z      -0.1956      0.0153      3.6870
-------------------------------------------------------------------------------
    4 Ge    x       4.5080      0.0702      0.2496
            y      -0.0369      3.9167      0.0045
            z      -0.4850      0.0169      3.5835
-------------------------------------------------------------------------------
    5 Si    x       3.1071     -0.2511      0.1860
            y       0.0833      3.6946     -0.1071
            z       0.2048     -0.0827      2.9361
-------------------------------------------------------------------------------
    6 Si    x       3.1374     -0.2297      0.1279
            y       0.0202      3.7521     -0.0400
            z       0.2543     -0.1128      2.9395
-------------------------------------------------------------------------------
    7 Si    x       3.5379      0.4416     -0.1413
            y       0.4110      3.5682     -0.1429
            z      -0.1038      0.0463      3.0707
-------------------------------------------------------------------------------
    8 Si    x       3.7900     -0.4359     -0.0015
            y      -0.3728      3.5944      0.3012
            z      -0.0091      0.0540      2.9545
-------------------------------------------------------------------------------
    9 Si    x       3.5881      0.3822     -0.1854
            y       0.4306      3.5854     -0.1870
            z      -0.1629      0.0182      3.1220
-------------------------------------------------------------------------------
   10 Si    x       3.7507     -0.4844      0.0611
            y      -0.3636      3.5723      0.2440
            z       0.0130      0.0179      2.9009
-------------------------------------------------------------------------------
   11 Si    x       3.7105      0.3591      0.2296
            y       0.0281      3.5549     -0.0125
            z      -0.1050      0.2563      3.9936
-------------------------------------------------------------------------------
   12 Si    x       3.5222      0.3390     -0.3573
            y       0.0598      3.5581     -0.0552
            z       0.2939      0.1756      4.0305
-------------------------------------------------------------------------------
   13 O3    x      -1.3801     -0.1526      0.2421
            y      -0.1187     -1.4535     -0.0920
            z       0.2462     -0.0454     -2.5324
-------------------------------------------------------------------------------
   14 O2    x      -1.2442      0.0921      0.2347
            y       0.0502     -1.3180      0.0790
            z       0.2226      0.1111     -2.0022
-------------------------------------------------------------------------------
   15 O3    x      -1.3628     -0.1377      0.2276
            y      -0.1099     -1.4680     -0.1026
            z       0.2370     -0.0481     -2.5434
-------------------------------------------------------------------------------
   16 O2    x      -1.2575      0.0956      0.2335
            y       0.0414     -1.3066      0.0939
            z       0.2350      0.1206     -2.0110
-------------------------------------------------------------------------------
   17 O3    x      -1.3080     -0.1514     -0.1155
            y      -0.2054     -3.1535     -0.2199
            z      -0.1530     -0.1696     -1.2640
-------------------------------------------------------------------------------
   18 O3    x      -1.3215     -0.1435     -0.1229
            y      -0.2028     -3.1021     -0.1924
            z      -0.1557     -0.1531     -1.2438
-------------------------------------------------------------------------------
   19 O3    x      -2.8276      0.0935     -0.4766
            y       0.0377     -1.3608     -0.0880
            z      -0.4962     -0.0174     -1.3928
-------------------------------------------------------------------------------
   20 O2    x      -2.3085      0.1542     -0.2500
            y       0.0942     -1.2525      0.0714
            z      -0.2760      0.0558     -1.1324
-------------------------------------------------------------------------------
   21 O3    x      -2.7958      0.0865     -0.4481
            y       0.0439     -1.3488     -0.0752
            z      -0.4974     -0.0066     -1.4005
-------------------------------------------------------------------------------
   22 O2    x      -2.3043      0.1419     -0.2263
            y       0.0804     -1.2526      0.0780
            z      -0.2637      0.0673     -1.1495
-------------------------------------------------------------------------------
   23 O3    x      -1.6268     -0.7171     -0.4916
            y      -0.6774     -2.5748     -0.6827
            z      -0.4769     -0.6875     -1.8259
-------------------------------------------------------------------------------
   24 O2    x      -1.5376      0.5497     -0.3366
            y       0.5365     -1.8726      0.5090
            z      -0.3859      0.4490     -1.5472
-------------------------------------------------------------------------------
   25 O3    x      -1.6580     -0.7822     -0.3616
            y      -0.7281     -2.5550     -0.5487
            z      -0.4796     -0.5679     -1.7332
-------------------------------------------------------------------------------
   26 O2    x      -1.5102      0.5324     -0.4522
            y       0.5448     -1.9177      0.5823
            z      -0.4307      0.5434     -1.6240
-------------------------------------------------------------------------------
   27 O2    x      -1.2725     -0.0193      0.0135
            y      -0.0633     -2.4025     -0.0602
            z       0.0380     -0.0362     -1.0261
-------------------------------------------------------------------------------
   28 O2    x      -1.2526     -0.0261      0.0195
            y      -0.0610     -2.4989     -0.0433
            z       0.0346     -0.0330     -1.0337
-------------------------------------------------------------------------------
   29 O3    x      -2.2157     -1.0319      0.1826
            y      -0.9675     -2.3540      0.1362
            z       0.2814      0.1475     -1.2612
-------------------------------------------------------------------------------
   30 O3    x      -2.3239      1.0529      0.3849
            y       1.0392     -2.3113     -0.3156
            z       0.3840     -0.2871     -1.3180
-------------------------------------------------------------------------------
   31 O3    x      -2.3296     -1.0604      0.3827
            y      -1.0065     -2.3388      0.3080
            z       0.3578      0.2561     -1.2828
-------------------------------------------------------------------------------
   32 O3    x      -2.2290      1.0169      0.1606
            y       1.0075     -2.3186     -0.1316
            z       0.2888     -0.1586     -1.2816
-------------------------------------------------------------------------------
   33 O1    x      -1.9998     -0.0411     -0.7830
            y      -0.0052     -1.3344     -0.0480
            z      -0.5134     -0.0551     -2.6758
-------------------------------------------------------------------------------
   34 O3    x      -2.8004     -0.1687      0.8243
            y      -0.0560     -1.2230      0.0617
            z       0.8598      0.0512     -2.0086
-------------------------------------------------------------------------------
   35 O3    x      -2.7379     -0.1294      1.0152
            y      -0.0268     -1.2628      0.0614
            z       0.9634      0.0744     -2.0673
-------------------------------------------------------------------------------
   36 O2    x      -1.2162     -0.0713     -0.2288
            y       0.0067     -1.1331     -0.1259
            z      -0.2969     -0.2759     -2.9165
-------------------------------------------------------------------------------




  Elastic Constant Matrix: (Units=GPa)

-------------------------------------------------------------------------------
  Indices      1         2         3         4         5         6    
-------------------------------------------------------------------------------
       1     50.6338   28.9181    5.6896    1.5650   -0.4564   10.9045
       2     28.9181   64.8679   10.2471    4.0324    0.7986   18.8902
       3      5.6896   10.2471   24.8627    5.8849    8.9520    8.4073
       4      1.5650    4.0324    5.8849   13.3045    2.4271    7.0905
       5     -0.4564    0.7986    8.9520    2.4271    8.3201    6.1178
       6     10.9045   18.8902    8.4073    7.0905    6.1178   22.0145
-------------------------------------------------------------------------------


  Elastic Compliance Matrix: (Units=1/GPa)

-------------------------------------------------------------------------------
  Indices      1         2         3         4         5         6    
-------------------------------------------------------------------------------
       1    0.027524 -0.009361 -0.005251  0.004088  0.013169 -0.008572
       2   -0.009361  0.027555 -0.011638  0.005802  0.024826 -0.023332
       3   -0.005251 -0.011638  0.077998 -0.021973 -0.087022  0.014060
       4    0.004088  0.005802 -0.021973  0.097994  0.021253 -0.036080
       5    0.013169  0.024826 -0.087022  0.021253  0.260184 -0.073743
       6   -0.008572 -0.023332  0.014060 -0.036080 -0.073743  0.096435
-------------------------------------------------------------------------------

  Mechanical properties :

-------------------------------------------------------------------------------
  Convention :                    Reuss         Voigt         Hill
-------------------------------------------------------------------------------
  Bulk  Modulus (GPa)     =      12.41017      25.56379      18.98698
  Shear Modulus (GPa)     =       7.49569      15.09513      11.29541
-------------------------------------------------------------------------------
  Velocity S-wave (km/s)  =       1.85290       2.62944       2.27456
  Velocity P-wave (km/s)  =       3.20341       4.57466       3.94901
-------------------------------------------------------------------------------
  Compressibility (1/GPa) =    0.08057908
-------------------------------------------------------------------------------
  Stress axis :                     x             y             z
-------------------------------------------------------------------------------
  Youngs Moduli (GPa)     =      36.33146      36.29047      12.82080
-------------------------------------------------------------------------------
  Poissons Ratio (x)      =                     0.33970       0.06732
  Poissons Ratio (y)      =       0.34009                     0.14920
  Poissons Ratio (z)      =       0.19078       0.42233
-------------------------------------------------------------------------------


  Piezoelectric Strain Matrix: (Units=C/m**2)

-------------------------------------------------------------------------------
  Indices      1         2         3         4         5         6    
-------------------------------------------------------------------------------
       x    -0.31775   0.00254   0.18248  -0.25864   0.37459  -0.36887
       y     0.43272   0.70628   0.17280   0.19633   0.28096   0.04887
       z    -0.60257  -0.19605  -0.33044  -0.09527   1.00499   0.02195
-------------------------------------------------------------------------------


  Piezoelectric Stress Matrix: (Units=10**-11 C/N)

-------------------------------------------------------------------------------
  Indices      1         2         3         4         5         6    
-------------------------------------------------------------------------------
       x    -0.26900   1.73259  -1.62286  -0.93689   9.91655  -4.86330
       y     0.84754   2.03743  -2.50895   2.55167   8.18645  -4.08480
       z    -0.03580   2.79693 -10.53816   1.48908  27.37916  -6.34631
-------------------------------------------------------------------------------


  Static dielectric constant tensor : 

-------------------------------------------------------------------------------
              x         y         z
-------------------------------------------------------------------------------
       x     4.81118   0.12091   0.02893
       y     0.12091   4.83296   0.14734
       z     0.02893   0.14734   3.58794
--------------------------------------------------------------------------------

  High frequency dielectric constant tensor : 

-------------------------------------------------------------------------------
              x         y         z
-------------------------------------------------------------------------------
       x     1.62974   0.00119   0.00718
       y     0.00119   1.64043   0.00240
       z     0.00718   0.00240   1.58321
-------------------------------------------------------------------------------

  Static refractive indices : 

-------------------------------------------------------------------------------
    1 =    1.88959      2 =    2.16929      3 =    2.22614
-------------------------------------------------------------------------------

  High frequency refractive indices : 

-------------------------------------------------------------------------------
    1 =    1.25779      2 =    1.27695      3 =    1.28092
-------------------------------------------------------------------------------


  Time to end of optimisation =       2.4277 seconds


  Peak dynamic memory used =       2.76 MB 


  Timing analysis for GULP :

--------------------------------------------------------------------------------
  Task / Subroutine                                          Time (Seconds)
--------------------------------------------------------------------------------
  Calculation of reciprocal space energy and derivatives          0.1597
  Calculation of real space energy and derivatives                2.0137
  Calculation of three-body energy and derivatives                0.0521
  Calculation and manipulation of Hessian matrix                  0.3236
  Calculation of matrix inversion                                 0.0030
--------------------------------------------------------------------------------
  Total CPU time                                                  2.4277
--------------------------------------------------------------------------------


  Dump file written as c00038.vasp.grs
  CIF file written as c00038.vasp.cif


  Job Finished at 22:38.41  6th October    2025                               

