********************************************************************************
*                       GENERAL UTILITY LATTICE PROGRAM                        *
*                                 Julian Gale                                  *
*                       Curtin Institute for Computation                       *
*                    School of Molecular and Life Sciences                     *
*                    Curtin University, Western Australia                      *
********************************************************************************
* Version = 6.1.2 * Last modified =   3rd November 2022                        *
********************************************************************************
*  optimise     - perform optimisation run                                     *
*  conp         - constant pressure calculation                                *
*  property     - calculate properties for final geometry                      *
********************************************************************************

  Job Started  at 22:41.23  6th October    2025                               

  Number of CPUs =     1


  Total number of configurations input =      1

********************************************************************************
*  Input for Configuration =   1 : c00087.vasp                                 *
********************************************************************************

  Formula = Ge4Si8O24                                                   

  Number of irreducible atoms/shells =      60


  Total number atoms/shells =      60

  Dimensionality = 3               :  Bulk   



  Cartesian lattice vectors (Angstroms) :

        9.086940    0.000000    0.000000
        0.000000    7.554810    0.000000
       -3.295144    0.000000    9.944380

  Cell parameters (Angstroms/Degrees):

  a =       9.0869    alpha =  90.0000
  b =       7.5548    beta  = 108.3330
  c =      10.4761    gamma =  90.0000

  Initial cell volume =         682.682735 Angs**3

  Temperature of configuration =   0.00     K 

  Pressure of configuration =         0.000 GPa 

  Fractional coordinates of asymmetric unit :

--------------------------------------------------------------------------------
   No.  Atomic       x           y          z         Charge      Occupancy
        Label      (Frac)      (Frac)     (Frac)        (e)         (Frac)  
--------------------------------------------------------------------------------
      1 Ge    c    0.313820    0.296860    0.309830     4.00000    1.000000    
      2 Ge    c    0.668950 *  0.296920 *  0.392620 *   4.00000    1.000000    
      3 Ge    c    0.331050 *  0.703080 *  0.607380 *   4.00000    1.000000    
      4 Ge    c    0.120320 *  0.000000 *  0.649840 *   4.00000    1.000000    
      5 Si    c    0.686180 *  0.296860 *  0.690170 *   4.00000    1.000000    
      6 Si    c    0.686180 *  0.703140 *  0.690170 *   4.00000    1.000000    
      7 Si    c    0.313820 *  0.703140 *  0.309830 *   4.00000    1.000000    
      8 Si    c    0.331050 *  0.296920 *  0.607380 *   4.00000    1.000000    
      9 Si    c    0.668950 *  0.703080 *  0.392620 *   4.00000    1.000000    
     10 Si    c    0.879680 *  0.000000 *  0.350160 *   4.00000    1.000000    
     11 Si    c    0.093070 *  0.000000 *  0.158230 *   4.00000    1.000000    
     12 Si    c    0.906930 *  0.000000 *  0.841770 *   4.00000    1.000000    
     13 O3    c    0.268740 *  0.279030 *  0.446100 *   1.33043    1.000000    
     14 O3    c    0.731260 *  0.279030 *  0.553900 *   1.33043    1.000000    
     15 O2    c    0.731260 *  0.720970 *  0.553900 *   0.87073    1.000000    
     16 O3    c    0.268740 *  0.720970 *  0.446100 *   1.33043    1.000000    
     17 O3    c    0.295480 *  0.500000 *  0.260860 *   1.33043    1.000000    
     18 O2    c    0.704520 *  0.500000 *  0.739140 *   0.87073    1.000000    
     19 O1    c    0.490600 *  0.234690 *  0.337530 *   1.73396    1.000000    
     20 O2    c    0.509400 *  0.234690 *  0.662470 *   0.87073    1.000000    
     21 O3    c    0.509400 *  0.765310 *  0.662470 *   1.33043    1.000000    
     22 O2    c    0.490600 *  0.765310 *  0.337530 *   0.87073    1.000000    
     23 O3    c    0.200440 *  0.174000 *  0.194980 *   1.33043    1.000000    
     24 O2    c    0.799560 *  0.174000 *  0.805020 *   0.87073    1.000000    
     25 O2    c    0.799560 *  0.826000 *  0.805020 *   0.87073    1.000000    
     26 O2    c    0.200440 *  0.826000 *  0.194980 *   0.87073    1.000000    
     27 O3    c    0.317860 *  0.500000 *  0.649090 *   1.33043    1.000000    
     28 O3    c    0.682140 *  0.500000 *  0.350910 *   1.33043    1.000000    
     29 O3    c    0.227920 *  0.173870 *  0.671620 *   1.33043    1.000000    
     30 O3    c    0.772080 *  0.173870 *  0.328380 *   1.33043    1.000000    
     31 O2    c    0.772080 *  0.826130 *  0.328380 *   0.87073    1.000000    
     32 O1    c    0.227920 *  0.826130 *  0.671620 *   1.73396    1.000000    
     33 O3    c    0.000000 *  0.000000 *  0.500000 *   1.33043    1.000000    
     34 O2    c    0.971960 *  0.000000 *  0.241930 *   0.87073    1.000000    
     35 O3    c    0.028040 *  0.000000 *  0.758070 *   1.33043    1.000000    
     36 O2    c    0.000000 *  0.000000 *  0.000000 *   0.87073    1.000000    
     37 O3    s    0.268740 *  0.279030 *  0.446100 *  -3.33043    1.000000    
     38 O3    s    0.731260 *  0.279030 *  0.553900 *  -3.33043    1.000000    
     39 O2    s    0.731260 *  0.720970 *  0.553900 *  -2.87073    1.000000    
     40 O3    s    0.268740 *  0.720970 *  0.446100 *  -3.33043    1.000000    
     41 O3    s    0.295480 *  0.500000 *  0.260860 *  -3.33043    1.000000    
     42 O2    s    0.704520 *  0.500000 *  0.739140 *  -2.87073    1.000000    
     43 O1    s    0.490600 *  0.234690 *  0.337530 *  -3.73396    1.000000    
     44 O2    s    0.509400 *  0.234690 *  0.662470 *  -2.87073    1.000000    
     45 O3    s    0.509400 *  0.765310 *  0.662470 *  -3.33043    1.000000    
     46 O2    s    0.490600 *  0.765310 *  0.337530 *  -2.87073    1.000000    
     47 O3    s    0.200440 *  0.174000 *  0.194980 *  -3.33043    1.000000    
     48 O2    s    0.799560 *  0.174000 *  0.805020 *  -2.87073    1.000000    
     49 O2    s    0.799560 *  0.826000 *  0.805020 *  -2.87073    1.000000    
     50 O2    s    0.200440 *  0.826000 *  0.194980 *  -2.87073    1.000000    
     51 O3    s    0.317860 *  0.500000 *  0.649090 *  -3.33043    1.000000    
     52 O3    s    0.682140 *  0.500000 *  0.350910 *  -3.33043    1.000000    
     53 O3    s    0.227920 *  0.173870 *  0.671620 *  -3.33043    1.000000    
     54 O3    s    0.772080 *  0.173870 *  0.328380 *  -3.33043    1.000000    
     55 O2    s    0.772080 *  0.826130 *  0.328380 *  -2.87073    1.000000    
     56 O1    s    0.227920 *  0.826130 *  0.671620 *  -3.73396    1.000000    
     57 O3    s    0.000000 *  0.000000 *  0.500000 *  -3.33043    1.000000    
     58 O2    s    0.971960 *  0.000000 *  0.241930 *  -2.87073    1.000000    
     59 O3    s    0.028040 *  0.000000 *  0.758070 *  -3.33043    1.000000    
     60 O2    s    0.000000 *  0.000000 *  0.000000 *  -2.87073    1.000000    
--------------------------------------------------------------------------------



********************************************************************************
*  General input information                                                   *
********************************************************************************

  Species output for all configurations : 

--------------------------------------------------------------------------------
  Species    Type    Atomic    Atomic    Charge       Radii (Angs)     Library
                     Number     Mass       (e)     Cova   Ionic  VDW   Symbol
--------------------------------------------------------------------------------
    Ge       Core       32      72.61   4.000000   1.170  0.000  1.750 Ge       
    Si       Core       14      28.09   4.000000   1.200  0.000  2.100 Si       
    O1       Core        8      16.00   1.733957   0.730  0.000  1.360 O1       
    O2       Core        8      16.00   0.870733   0.730  0.000  1.360 O2       
    O3       Core        8      16.00   1.330431   0.730  0.000  1.360 O3       
    O1       Shell       8       0.00  -3.733957   0.730  0.000  0.000 O1       
    O2       Shell       8       0.00  -2.870733   0.730  0.000  0.000 O2       
    O3       Shell       8       0.00  -3.330431   0.730  0.000  0.000 O3       
--------------------------------------------------------------------------------


  Lattice summation method               =    Ewald          (3-D)
                                         =    Parry          (2-D)
                                         =    Saunders et al (1-D)
  Accuracy factor for lattice sums       =   12.000


  Analytic derivatives to be used

  Time limit = Infinity

  Maximum range for interatomic potentials =    100000.000000 Angstroms

  General interatomic potentials :

--------------------------------------------------------------------------------
Atom  Types   Potential      Parameter       Value         Units   Cutoffs(Ang)
  1     2                                                            Min /  Max 
--------------------------------------------------------------------------------
Si   c O1   s Buckingham    Buckingham A     1315.2478    eV        0.000 16.000
                            Buckingham rho  0.31775900    Ang       
                            Buckingham C     10.141118    eV*Ang^6  
--------------------------------------------------------------------------------
Si   c O2   s Buckingham    Buckingham A     1315.2478    eV        0.000 16.000
                            Buckingham rho  0.31775900    Ang       
                            Buckingham C     10.141118    eV*Ang^6  
--------------------------------------------------------------------------------
Si   c O3   s Buckingham    Buckingham A     1315.2478    eV        0.000 16.000
                            Buckingham rho  0.31775900    Ang       
                            Buckingham C     10.141118    eV*Ang^6  
--------------------------------------------------------------------------------
Ge   c O1   s Buckingham    Buckingham A     1497.3996    eV        0.000 16.000
                            Buckingham rho  0.32564600    Ang       
                            Buckingham C     16.808599    eV*Ang^6  
--------------------------------------------------------------------------------
Ge   c O2   s Buckingham    Buckingham A     1497.3996    eV        0.000 16.000
                            Buckingham rho  0.32564600    Ang       
                            Buckingham C     16.808599    eV*Ang^6  
--------------------------------------------------------------------------------
Ge   c O3   s Buckingham    Buckingham A     1497.3996    eV        0.000 16.000
                            Buckingham rho  0.32564600    Ang       
                            Buckingham C     16.808599    eV*Ang^6  
--------------------------------------------------------------------------------
O1   s O1   s Buckingham    Buckingham A     22764.000    eV        0.000 16.000
                            Buckingham rho  0.14900000    Ang       
                            Buckingham C     10.937044    eV*Ang^6  
--------------------------------------------------------------------------------
O1   s O2   s Buckingham    Buckingham A     22764.000    eV        0.000 16.000
                            Buckingham rho  0.14900000    Ang       
                            Buckingham C     10.937044    eV*Ang^6  
--------------------------------------------------------------------------------
O1   s O3   s Buckingham    Buckingham A     22764.000    eV        0.000 16.000
                            Buckingham rho  0.14900000    Ang       
                            Buckingham C     10.937044    eV*Ang^6  
--------------------------------------------------------------------------------
O2   s O2   s Buckingham    Buckingham A     22764.000    eV        0.000 16.000
                            Buckingham rho  0.14900000    Ang       
                            Buckingham C     10.937044    eV*Ang^6  
--------------------------------------------------------------------------------
O2   s O3   s Buckingham    Buckingham A     22764.000    eV        0.000 16.000
                            Buckingham rho  0.14900000    Ang       
                            Buckingham C     10.937044    eV*Ang^6  
--------------------------------------------------------------------------------
O3   s O3   s Buckingham    Buckingham A     22764.000    eV        0.000 16.000
                            Buckingham rho  0.14900000    Ang       
                            Buckingham C     10.937044    eV*Ang^6  
--------------------------------------------------------------------------------
O1   c O1   s Spring (c-s)  Spring k 2       180.31577    eV*Ang^-2 0.000  0.800
                            Spring k 4       0.0000000    eV*Ang^-4 
--------------------------------------------------------------------------------
O2   c O2   s Spring (c-s)  Spring k 2       75.969800    eV*Ang^-2 0.000  0.800
                            Spring k 4       0.0000000    eV*Ang^-4 
--------------------------------------------------------------------------------
O3   c O3   s Spring (c-s)  Spring k 2       128.14270    eV*Ang^-2 0.000  0.800
                            Spring k 4       0.0000000    eV*Ang^-4 
--------------------------------------------------------------------------------

  General Three-body potentials :

--------------------------------------------------------------------------------
  Atoms       Potential      Parameter       Value         Units   Cutoffs(Ang)
  1 / 2 / 3                                                          Min /  Max 
--------------------------------------------------------------------------------
Si    core    Harmonic      Three-body cnst  1.2614000    eV*rad^-2 0.000  1.900
O1    shel                  Three-body angl  109.47000    degrees   0.000  1.900
O1    shel                  Three-body k4    0.0000000    eV*rad^-4 0.000  3.500
                            Three-body k3    0.0000000    eV*rad^-3 
--------------------------------------------------------------------------------
Si    core    Harmonic      Three-body cnst  1.2614000    eV*rad^-2 0.000  1.900
O1    shel                  Three-body angl  109.47000    degrees   0.000  1.900
õ(1   shel                  Three-body k4    0.0000000    eV*rad^-4 0.000  3.500
                            Three-body k3    0.0000000    eV*rad^-3 
--------------------------------------------------------------------------------
Si    core    Harmonic      Three-body cnst  1.2614000    eV*rad^-2 0.000  1.900
õ(1   shel                  Three-body angl  109.47000    degrees   0.000  1.900
õ(1   shel                  Three-body k4    0.0000000    eV*rad^-4 0.000  3.500
                            Three-body k3    0.0000000    eV*rad^-3 
--------------------------------------------------------------------------------
Si    core    Harmonic      Three-body cnst  1.2614000    eV*rad^-2 0.000  1.900
O1    shel                  Three-body angl  109.47000    degrees   0.000  1.900
O2    shel                  Three-body k4    0.0000000    eV*rad^-4 0.000  3.500
                            Three-body k3    0.0000000    eV*rad^-3 
--------------------------------------------------------------------------------
Si    core    Harmonic      Three-body cnst  1.2614000    eV*rad^-2 0.000  1.900
O1    shel                  Three-body angl  109.47000    degrees   0.000  1.900
õ(2   shel                  Three-body k4    0.0000000    eV*rad^-4 0.000  3.500
                            Three-body k3    0.0000000    eV*rad^-3 
--------------------------------------------------------------------------------
Si    core    Harmonic      Three-body cnst  1.2614000    eV*rad^-2 0.000  1.900
O2    shel                  Three-body angl  109.47000    degrees   0.000  1.900
õ(1   shel                  Three-body k4    0.0000000    eV*rad^-4 0.000  3.500
                            Three-body k3    0.0000000    eV*rad^-3 
--------------------------------------------------------------------------------
Si    core    Harmonic      Three-body cnst  1.2614000    eV*rad^-2 0.000  1.900
õ(1   shel                  Three-body angl  109.47000    degrees   0.000  1.900
õ(2   shel                  Three-body k4    0.0000000    eV*rad^-4 0.000  3.500
                            Three-body k3    0.0000000    eV*rad^-3 
--------------------------------------------------------------------------------
Si    core    Harmonic      Three-body cnst  1.2614000    eV*rad^-2 0.000  1.900
O2    shel                  Three-body angl  109.47000    degrees   0.000  1.900
O2    shel                  Three-body k4    0.0000000    eV*rad^-4 0.000  3.500
                            Three-body k3    0.0000000    eV*rad^-3 
--------------------------------------------------------------------------------
Si    core    Harmonic      Three-body cnst  1.2614000    eV*rad^-2 0.000  1.900
O2    shel                  Three-body angl  109.47000    degrees   0.000  1.900
õ(2   shel                  Three-body k4    0.0000000    eV*rad^-4 0.000  3.500
                            Three-body k3    0.0000000    eV*rad^-3 
--------------------------------------------------------------------------------
Si    core    Harmonic      Three-body cnst  1.2614000    eV*rad^-2 0.000  1.900
õ(2   shel                  Three-body angl  109.47000    degrees   0.000  1.900
õ(2   shel                  Three-body k4    0.0000000    eV*rad^-4 0.000  3.500
                            Three-body k3    0.0000000    eV*rad^-3 
--------------------------------------------------------------------------------

********************************************************************************
*  Output for configuration   1 : c00087.vasp                                  *
********************************************************************************


  Components of energy : 

--------------------------------------------------------------------------------
  Interatomic potentials     =         400.30463393 eV    
  Three-body potentials      =           0.00006469 eV    
  Monopole - monopole (real) =       -1236.99964305 eV    
  Monopole - monopole (recip)=        -659.26603192 eV    
  Monopole - monopole (total)=       -1896.26567496 eV    
--------------------------------------------------------------------------------
  Total lattice energy       =       -1495.96097635 eV    
--------------------------------------------------------------------------------
  Total lattice energy       =         -144337.3664 kJ/(mole unit cells)
--------------------------------------------------------------------------------


  Number of variables =      183

  Maximum number of calculations  =          1000
  Maximum Hessian update interval =            10
  Maximum step size               =   0.100000000
  Maximum parameter tolerance     =   0.000010000
  Maximum function  tolerance     =   0.000010000
  Maximum gradient  tolerance     =   0.001000000
  Maximum gradient  component     =   0.010000000

  Symmetry not applied to optimisation

  Cell parameters to be optimised using strains

  Newton-Raphson optimiser to be used

  BFGS hessian update to be used

  Lower half triangular hessian to be used

  Minimiser to switch to RFO
  When gradient norm is less than     0.050000

  Dumpfile to be written after every cycle

  Start of bulk optimisation :

  Cycle:      0 Energy:     -1495.960976  Gnorm:      5.664040  CPU:    0.033
  ** Hessian calculated **
  Cycle:      1 Energy:     -1506.749639  Gnorm:      3.814686  CPU:    0.098
  ** Hessian calculated **
  Cycle:      2 Energy:     -1513.936612  Gnorm:      0.961884  CPU:    0.158
  Cycle:      3 Energy:     -1514.752034  Gnorm:      0.492330  CPU:    0.195
  Cycle:      4 Energy:     -1515.175131  Gnorm:      0.365371  CPU:    0.239
  Cycle:      5 Energy:     -1515.559306  Gnorm:      0.314700  CPU:    0.283
  Cycle:      6 Energy:     -1515.845552  Gnorm:      0.256738  CPU:    0.319
  Cycle:      7 Energy:     -1516.043045  Gnorm:      0.216652  CPU:    0.356
  Cycle:      8 Energy:     -1516.152000  Gnorm:      0.164216  CPU:    0.393
  Cycle:      9 Energy:     -1516.207055  Gnorm:      0.118423  CPU:    0.430
  Cycle:     10 Energy:     -1516.239771  Gnorm:      0.096134  CPU:    0.467
  Cycle:     11 Energy:     -1516.264866  Gnorm:      0.081786  CPU:    0.504
  ** Hessian calculated **
  Cycle:     12 Energy:     -1516.279667  Gnorm:      0.080587  CPU:    0.571
  Cycle:     13 Energy:     -1516.306617  Gnorm:      0.078263  CPU:    0.622
  Cycle:     14 Energy:     -1516.353483  Gnorm:      0.074035  CPU:    0.672
  Cycle:     15 Energy:     -1516.406122  Gnorm:      0.068725  CPU:    0.716
  Cycle:     16 Energy:     -1516.491759  Gnorm:      0.060016  CPU:    0.767
  Cycle:     17 Energy:     -1516.544105  Gnorm:      0.051724  CPU:    0.810
  Cycle:     18 Energy:     -1516.615978  Gnorm:      0.050886  CPU:    0.854
  Cycle:     19 Energy:     -1516.625567  Gnorm:      0.071430  CPU:    0.891
  ** Hessian calculated **
  Cycle:     20 Energy:     -1516.635669  Gnorm:      0.039258  CPU:    0.951
  ** Hessian has required structure
  Cycle:     21 Energy:     -1516.640591  Gnorm:      0.077332  CPU:    0.988
  ** Hessian has required structure
  Cycle:     22 Energy:     -1516.645388  Gnorm:      0.076394  CPU:    1.025
  ** Hessian has required structure
  Cycle:     23 Energy:     -1516.648684  Gnorm:      0.071025  CPU:    1.062
  ** Hessian has required structure
  Cycle:     24 Energy:     -1516.650694  Gnorm:      0.054384  CPU:    1.099
  ** Hessian has required structure
  Cycle:     25 Energy:     -1516.652382  Gnorm:      0.069075  CPU:    1.136
  ** Hessian has required structure
  Cycle:     26 Energy:     -1516.657600  Gnorm:      0.080676  CPU:    1.180
  ** Hessian has required structure
  Cycle:     27 Energy:     -1516.663198  Gnorm:      0.053741  CPU:    1.217
  ** Hessian has required structure
  Cycle:     28 Energy:     -1516.664105  Gnorm:      0.055102  CPU:    1.254
  ** Hessian has required structure
  Cycle:     29 Energy:     -1516.666217  Gnorm:      0.068801  CPU:    1.298
  ** Hessian has wrong structure
  ** Imaginary eigenvectors =   2
  Cycle:     30 Energy:     -1516.701551  Gnorm:      0.080099  CPU:    1.428
  ** Hessian has required structure
  Cycle:     31 Energy:     -1516.760210  Gnorm:      0.061040  CPU:    1.495
  ** Hessian has required structure
  Cycle:     32 Energy:     -1516.790439  Gnorm:      0.041695  CPU:    1.539
  ** Hessian has required structure
  Cycle:     33 Energy:     -1516.815570  Gnorm:      0.037867  CPU:    1.583
  ** Hessian has required structure
  Cycle:     34 Energy:     -1516.824362  Gnorm:      0.048061  CPU:    1.627
  ** Hessian has required structure
  Cycle:     35 Energy:     -1516.842524  Gnorm:      0.035886  CPU:    1.671
  ** Hessian has required structure
  Cycle:     36 Energy:     -1516.850965  Gnorm:      0.028370  CPU:    1.715
  ** Hessian has required structure
  Cycle:     37 Energy:     -1516.858000  Gnorm:      0.023161  CPU:    1.766
  ** Hessian has required structure
  Cycle:     38 Energy:     -1516.863483  Gnorm:      0.019535  CPU:    1.809
  ** Hessian has required structure
  Cycle:     39 Energy:     -1516.867312  Gnorm:      0.014624  CPU:    1.853
  ** Hessian has required structure
  Cycle:     40 Energy:     -1516.869062  Gnorm:      0.010608  CPU:    1.897
  ** Hessian has wrong structure
  ** Imaginary eigenvectors =   1
  Cycle:     41 Energy:     -1516.871460  Gnorm:      0.017189  CPU:    2.005
  ** Hessian has required structure
  Cycle:     42 Energy:     -1516.877750  Gnorm:      0.016441  CPU:    2.071
  ** Hessian has required structure
  Cycle:     43 Energy:     -1516.882490  Gnorm:      0.010354  CPU:    2.122
  ** Hessian has required structure
  Cycle:     44 Energy:     -1516.884325  Gnorm:      0.012300  CPU:    2.165
  ** Hessian has required structure
  Cycle:     45 Energy:     -1516.886417  Gnorm:      0.004447  CPU:    2.209
  ** Hessian has required structure
  Cycle:     46 Energy:     -1516.886924  Gnorm:      0.003637  CPU:    2.253
  ** Hessian has required structure
  Cycle:     47 Energy:     -1516.887256  Gnorm:      0.002769  CPU:    2.303
  ** Hessian has required structure
  Cycle:     48 Energy:     -1516.887463  Gnorm:      0.001678  CPU:    2.347
  ** Hessian has required structure
  Cycle:     49 Energy:     -1516.887653  Gnorm:      0.001787  CPU:    2.398
  ** Hessian has required structure
  Cycle:     50 Energy:     -1516.887867  Gnorm:      0.002086  CPU:    2.449
  ** Hessian has required structure
  Cycle:     51 Energy:     -1516.888218  Gnorm:      0.003619  CPU:    2.506
  ** Hessian has wrong structure
  ** Imaginary eigenvectors =   1
  Cycle:     52 Energy:     -1516.889707  Gnorm:      0.008340  CPU:    2.635
  ** Hessian has wrong structure
  ** Imaginary eigenvectors =   1
  Cycle:     53 Energy:     -1516.892488  Gnorm:      0.017397  CPU:    2.757
  ** Hessian has required structure
  Cycle:     54 Energy:     -1516.898420  Gnorm:      0.015370  CPU:    2.831
  ** Hessian has required structure
  Cycle:     55 Energy:     -1516.901808  Gnorm:      0.008695  CPU:    2.881
  ** Hessian has required structure
  Cycle:     56 Energy:     -1516.903043  Gnorm:      0.005756  CPU:    2.932
  ** Hessian has required structure
  Cycle:     57 Energy:     -1516.903473  Gnorm:      0.001684  CPU:    2.975
  ** Hessian has required structure
  Cycle:     58 Energy:     -1516.903701  Gnorm:      0.001900  CPU:    3.026
  ** Hessian has required structure
  Cycle:     59 Energy:     -1516.903745  Gnorm:      0.001129  CPU:    3.070
  ** Hessian has required structure
  Cycle:     60 Energy:     -1516.903768  Gnorm:      0.000522  CPU:    3.120
  ** Hessian has required structure
  Cycle:     61 Energy:     -1516.903770  Gnorm:      0.000408  CPU:    3.157
  ** Hessian has required structure
  Cycle:     62 Energy:     -1516.903771  Gnorm:      0.000314  CPU:    3.193
  ** Hessian has required structure
  Cycle:     63 Energy:     -1516.903772  Gnorm:      0.000243  CPU:    3.230
  ** Hessian has required structure


  **** Optimisation achieved ****


  Final energy =   -1516.90377284 eV      
  Final Gnorm  =       0.00017017

  Components of energy : 

--------------------------------------------------------------------------------
  Interatomic potentials     =         403.11199268 eV    
  Three-body potentials      =           0.04144908 eV    
  Monopole - monopole (real) =        -841.42950081 eV    
  Monopole - monopole (recip)=       -1078.62771379 eV    
  Monopole - monopole (total)=       -1920.05721460 eV    
--------------------------------------------------------------------------------
  Total lattice energy       =       -1516.90377284 eV    
--------------------------------------------------------------------------------
  Total lattice energy       =         -146358.0261 kJ/(mole unit cells)
--------------------------------------------------------------------------------

  Final fractional coordinates of atoms :

--------------------------------------------------------------------------------
   No.  Atomic        x           y          z          Radius
        Label       (Frac)      (Frac)     (Frac)       (Angs) 
--------------------------------------------------------------------------------
     1  Ge    c     0.313820    0.296860    0.309830    0.000000
     2  Ge    c     0.686337    0.324859    0.390100    0.000000
     3  Ge    c     0.332961    0.673087    0.632685    0.000000
     4  Ge    c     0.130156    0.975903    0.685610    0.000000
     5  Si    c     0.708570    0.300110    0.706457    0.000000
     6  Si    c     0.693779    0.692935    0.713710    0.000000
     7  Si    c     0.307298    0.702283    0.320720    0.000000
     8  Si    c     0.349011    0.268717    0.624123    0.000000
     9  Si    c     0.664295    0.721024    0.399461    0.000000
    10  Si    c     0.887022    0.019844    0.377510    0.000000
    11  Si    c     0.087683    0.996619    0.179734    0.000000
    12  Si    c     0.913223    0.993986    0.867830    0.000000
    13  O3    c     0.318683    0.212223    0.469269    0.000000
    14  O3    c     0.717059    0.259134    0.559008    0.000000
    15  O2    c     0.680556    0.746771    0.557781    0.000000
    16  O3    c     0.306522    0.757205    0.468679    0.000000
    17  O3    c     0.248213    0.507062    0.291812    0.000000
    18  O2    c     0.761885    0.498277    0.746043    0.000000
    19  O1    c     0.496116    0.292109    0.296889    0.000000
    20  O2    c     0.532291    0.279121    0.704422    0.000000
    21  O3    c     0.525978    0.700813    0.729981    0.000000
    22  O2    c     0.482300    0.714492    0.313241    0.000000
    23  O3    c     0.185070    0.173253    0.188198    0.000000
    24  O2    c     0.816124    0.168737    0.818368    0.000000
    25  O2    c     0.811634    0.822957    0.813296    0.000000
    26  O2    c     0.203335    0.835201    0.206429    0.000000
    27  O3    c     0.279870    0.457332    0.622999    0.000000
    28  O3    c     0.737260    0.541231    0.382604    0.000000
    29  O3    c     0.274163    0.130208    0.702181    0.000000
    30  O3    c     0.810702    0.206277    0.334672    0.000000
    31  O2    c     0.746746    0.878171    0.342808    0.000000
    32  O1    c     0.212637    0.777245    0.698450    0.000000
    33  O3    c     0.977630    0.006050    0.538055    0.000000
    34  O2    c     0.001728    0.985518    0.293448    0.000000
    35  O3    c     0.064398    0.998196    0.822849    0.000000
    36  O2    c     0.960617    0.983205    0.031730    0.000000
    37  O3    s     0.321156    0.224231    0.471620    0.000000
    38  O3    s     0.713717    0.268562    0.560476    0.000000
    39  O2    s     0.680194    0.738239    0.557499    0.000000
    40  O3    s     0.308650    0.745281    0.467187    0.000000
    41  O3    s     0.259373    0.509861    0.296129    0.000000
    42  O2    s     0.749473    0.497793    0.738660    0.000000
    43  O1    s     0.496846    0.294999    0.305058    0.000000
    44  O2    s     0.531879    0.280395    0.696080    0.000000
    45  O3    s     0.527629    0.697874    0.720775    0.000000
    46  O2    s     0.483708    0.713831    0.323195    0.000000
    47  O3    s     0.186043    0.165938    0.197386    0.000000
    48  O2    s     0.814559    0.164537    0.811107    0.000000
    49  O2    s     0.809174    0.826788    0.807774    0.000000
    50  O2    s     0.202377    0.837794    0.216054    0.000000
    51  O3    s     0.290920    0.456374    0.623899    0.000000
    52  O3    s     0.726017    0.541894    0.384843    0.000000
    53  O3    s     0.270180    0.132085    0.692546    0.000000
    54  O3    s     0.808156    0.197631    0.343319    0.000000
    55  O2    s     0.752125    0.875416    0.352739    0.000000
    56  O1    s     0.215878    0.784266    0.692212    0.000000
    57  O3    s     0.981409    0.004879    0.534225    0.000000
    58  O2    s     0.998084    0.990680    0.290623    0.000000
    59  O3    s     0.054271    0.995917    0.816169    0.000000
    60  O2    s     0.969700    0.985945    0.030262    0.000000
--------------------------------------------------------------------------------

  Final Cartesian lattice vectors (Angstroms) :

        9.121002   -0.125652   -0.001772
       -0.105170    7.729766    0.127741
       -3.311733    0.216140    9.753161


  Final cell parameters and derivatives :

--------------------------------------------------------------------------------
       a            9.121868 Angstrom     dE/de1(xx)     0.008096 eV/strain
       b            7.731537 Angstrom     dE/de2(yy)     0.006163 eV/strain
       c           10.302351 Angstrom     dE/de3(zz)     0.009159 eV/strain
       alpha       87.650856 Degrees      dE/de4(yz)    -0.000777 eV/strain
       beta       108.777655 Degrees      dE/de5(xz)    -0.000369 eV/strain
       gamma       91.568746 Degrees      dE/de6(xy)    -0.000856 eV/strain
--------------------------------------------------------------------------------

  Primitive cell volume =           687.256340 Angs**3

  Density of cell =      2.172572 g/cm**3

  Non-primitive cell volume =           687.256340 Angs**3


  Final internal derivatives :

--------------------------------------------------------------------------------
   No.  Atomic          a             b             c           Radius
        Label          (eV)          (eV)          (eV)        (eV/Angs)
--------------------------------------------------------------------------------
      1 Ge    c       0.000000      0.000000      0.000000      0.000000
      2 Ge    c      -0.001129      0.000659     -0.003241      0.000000
      3 Ge    c       0.001138      0.001475     -0.000741      0.000000
      4 Ge    c       0.000885     -0.001340      0.001252      0.000000
      5 Si    c      -0.003163      0.006875      0.002199      0.000000
      6 Si    c       0.000253     -0.001278     -0.000451      0.000000
      7 Si    c      -0.000345      0.000291      0.000567      0.000000
      8 Si    c      -0.002243     -0.000244      0.003722      0.000000
      9 Si    c       0.000761      0.000137     -0.000498      0.000000
     10 Si    c       0.000565     -0.000761     -0.001109      0.000000
     11 Si    c       0.000684     -0.000574     -0.000700      0.000000
     12 Si    c       0.000144     -0.001203      0.001971      0.000000
     13 O3    c      -0.002003     -0.003186     -0.001583      0.000000
     14 O3    c       0.007571     -0.006376     -0.004834      0.000000
     15 O2    c       0.000160      0.000915     -0.001411      0.000000
     16 O3    c       0.000263      0.000334     -0.000677      0.000000
     17 O3    c      -0.001010      0.003186      0.000721      0.000000
     18 O2    c       0.000153     -0.003451     -0.000961      0.000000
     19 O1    c       0.005879     -0.000589     -0.004544      0.000000
     20 O2    c      -0.001398     -0.001357      0.002875      0.000000
     21 O3    c      -0.002330      0.000512      0.000883      0.000000
     22 O2    c      -0.000692     -0.000013     -0.000106      0.000000
     23 O3    c       0.001233      0.001565      0.001113      0.000000
     24 O2    c      -0.001956     -0.002233      0.007437      0.000000
     25 O2    c      -0.001035     -0.002605     -0.000338      0.000000
     26 O2    c      -0.000559      0.000597     -0.000018      0.000000
     27 O3    c      -0.000137     -0.002438     -0.001496      0.000000
     28 O3    c       0.000334      0.002326      0.000520      0.000000
     29 O3    c       0.002946      0.002572     -0.002525      0.000000
     30 O3    c       0.001319     -0.000693     -0.001887      0.000000
     31 O2    c      -0.002093     -0.001410      0.000434      0.000000
     32 O1    c      -0.001502      0.000730      0.001618      0.000000
     33 O3    c      -0.001281     -0.000132     -0.000235      0.000000
     34 O2    c      -0.001612      0.000113      0.001813      0.000000
     35 O3    c       0.008285      0.000271     -0.005894      0.000000
     36 O2    c       0.000172      0.000083      0.001275      0.000000
     37 O3    s       0.001924     -0.000432      0.000809      0.000000
     38 O3    s       0.001343      0.003130     -0.001751      0.000000
     39 O2    s       0.001315      0.000501     -0.001730      0.000000
     40 O3    s      -0.000257     -0.000562      0.000156      0.000000
     41 O3    s      -0.000047     -0.000569     -0.001519      0.000000
     42 O2    s       0.000372      0.001987      0.000151      0.000000
     43 O1    s      -0.004532     -0.000294     -0.000295      0.000000
     44 O2    s      -0.005942      0.003152      0.003479      0.000000
     45 O3    s      -0.000508     -0.000737      0.001029      0.000000
     46 O2    s      -0.000010      0.000076     -0.000565      0.000000
     47 O3    s      -0.001007     -0.000643     -0.000359      0.000000
     48 O2    s      -0.000074      0.001708      0.003673      0.000000
     49 O2    s      -0.001120     -0.000888      0.001984      0.000000
     50 O2    s       0.000455     -0.000555     -0.000249      0.000000
     51 O3    s       0.000699      0.000948      0.001986      0.000000
     52 O3    s       0.000890     -0.000104     -0.000445      0.000000
     53 O3    s      -0.003536      0.000005      0.002124      0.000000
     54 O3    s       0.001818      0.000731     -0.002365      0.000000
     55 O2    s       0.000450     -0.000399     -0.000451      0.000000
     56 O1    s       0.000008     -0.000547     -0.000511      0.000000
     57 O3    s       0.001791      0.000684      0.000531      0.000000
     58 O2    s       0.000423      0.000475     -0.000478      0.000000
     59 O3    s       0.000776      0.000479      0.000088      0.000000
     60 O2    s      -0.001135     -0.000265      0.002418      0.000000
--------------------------------------------------------------------------------
  Maximum abs         0.008285      0.006875      0.007437      0.000000
--------------------------------------------------------------------------------


  Born effective charge tensors : 

-------------------------------------------------------------------------------
  Atom             x           y             z
-------------------------------------------------------------------------------
    1 Ge    x       3.9147      0.3624      0.2078
            y       0.1463      4.1660      0.3945
            z       0.2789      0.1501      3.5155
-------------------------------------------------------------------------------
    2 Ge    x       4.0373     -0.3289      0.0864
            y      -0.3495      4.1934      0.1875
            z       0.0664     -0.0264      3.3650
-------------------------------------------------------------------------------
    3 Ge    x       4.1704     -0.3544     -0.0198
            y      -0.3887      4.0996      0.2609
            z      -0.1063     -0.0545      3.3310
-------------------------------------------------------------------------------
    4 Ge    x       4.5163     -0.2826     -0.2091
            y       0.0465      3.9670      0.0280
            z      -0.2530      0.0209      3.6708
-------------------------------------------------------------------------------
    5 Si    x       3.1354     -0.3189      0.0128
            y      -0.1844      3.5095     -0.1539
            z       0.0952     -0.0969      3.1825
-------------------------------------------------------------------------------
    6 Si    x       3.4314      0.2489      0.0661
            y       0.1209      3.4948      0.2306
            z       0.2468      0.1849      2.9476
-------------------------------------------------------------------------------
    7 Si    x       3.2519     -0.2928      0.1432
            y      -0.0436      3.8149     -0.1116
            z       0.1970      0.0266      3.1924
-------------------------------------------------------------------------------
    8 Si    x       3.5454      0.4398     -0.1610
            y       0.1634      3.9447     -0.2083
            z      -0.1154      0.0627      3.1380
-------------------------------------------------------------------------------
    9 Si    x       3.3230      0.2581     -0.0068
            y      -0.0484      3.6709     -0.0519
            z      -0.0614      0.0821      2.7667
-------------------------------------------------------------------------------
   10 Si    x       3.7888     -0.3110      0.2122
            y       0.0081      3.5626     -0.0975
            z      -0.3575      0.0050      3.2876
-------------------------------------------------------------------------------
   11 Si    x       3.3642      0.1719     -0.1424
            y       0.1163      3.4649      0.0209
            z       0.4655      0.1197      3.8435
-------------------------------------------------------------------------------
   12 Si    x       3.5608     -0.0285      0.1215
            y      -0.0165      3.3278      0.0460
            z      -0.1589     -0.0023      3.9572
-------------------------------------------------------------------------------
   13 O3    x      -1.3650     -0.1439      0.2205
            y      -0.0734     -1.4743     -0.0946
            z       0.2429     -0.0618     -2.5119
-------------------------------------------------------------------------------
   14 O3    x      -1.4281      0.1479      0.4685
            y       0.1231     -1.4452     -0.0181
            z       0.3932      0.0184     -2.5338
-------------------------------------------------------------------------------
   15 O2    x      -1.2306     -0.1233      0.2209
            y      -0.0688     -1.2708      0.0511
            z       0.2034      0.0451     -2.0715
-------------------------------------------------------------------------------
   16 O3    x      -1.4185      0.1444      0.3137
            y       0.1007     -1.4552      0.0333
            z       0.3239      0.0469     -2.4826
-------------------------------------------------------------------------------
   17 O3    x      -1.3136     -0.0788     -0.1027
            y      -0.0223     -3.1787     -0.1206
            z      -0.1301     -0.1229     -1.2074
-------------------------------------------------------------------------------
   18 O2    x      -1.1551      0.0207     -0.0610
            y       0.0513     -2.5415     -0.0296
            z      -0.0991     -0.0222     -1.1113
-------------------------------------------------------------------------------
   19 O1    x      -3.0459     -0.0908     -0.4287
            y      -0.0508     -1.4456     -0.1225
            z      -0.4688     -0.0743     -1.4561
-------------------------------------------------------------------------------
   20 O2    x      -2.2915     -0.0964     -0.3423
            y      -0.0781     -1.2618      0.0295
            z      -0.3282     -0.0036     -1.1678
-------------------------------------------------------------------------------
   21 O3    x      -2.9010     -0.0452     -0.3233
            y      -0.0192     -1.3477     -0.0936
            z      -0.3334     -0.0545     -1.3335
-------------------------------------------------------------------------------
   22 O2    x      -2.3092     -0.0552     -0.3440
            y      -0.0253     -1.2307      0.0382
            z      -0.3629     -0.0114     -1.2103
-------------------------------------------------------------------------------
   23 O3    x      -1.7472     -0.8231     -0.3629
            y      -0.8171     -2.4551     -0.5778
            z      -0.4786     -0.5765     -1.7467
-------------------------------------------------------------------------------
   24 O2    x      -1.3938      0.5771     -0.3699
            y       0.5172     -2.0443      0.5585
            z      -0.3439      0.5800     -1.5752
-------------------------------------------------------------------------------
   25 O2    x      -1.4053     -0.5642     -0.3790
            y      -0.5218     -2.0356     -0.5986
            z      -0.3622     -0.6071     -1.5988
-------------------------------------------------------------------------------
   26 O2    x      -1.5431      0.6084     -0.3168
            y       0.5856     -1.8968      0.4614
            z      -0.3995      0.4507     -1.5295
-------------------------------------------------------------------------------
   27 O3    x      -1.4645      0.1592     -0.0163
            y       0.1990     -3.0551     -0.0599
            z       0.0159     -0.0340     -1.1114
-------------------------------------------------------------------------------
   28 O3    x      -1.4682      0.2389      0.0478
            y       0.2683     -3.0659     -0.1075
            z       0.0801     -0.0927     -1.1298
-------------------------------------------------------------------------------
   29 O3    x      -2.3117     -1.0393      0.3304
            y      -0.9941     -2.2487      0.3246
            z       0.2868      0.2544     -1.3201
-------------------------------------------------------------------------------
   30 O3    x      -2.0671      0.9500      0.0895
            y       0.8931     -2.5569     -0.0027
            z       0.2024     -0.0234     -1.2365
-------------------------------------------------------------------------------
   31 O2    x      -1.8870     -0.7319      0.0677
            y      -0.7346     -1.9058      0.0983
            z       0.1442      0.0766     -1.1069
-------------------------------------------------------------------------------
   32 O1    x      -2.4226      1.0788      0.3310
            y       1.0184     -2.5549     -0.2546
            z       0.3264     -0.1809     -1.3517
-------------------------------------------------------------------------------
   33 O3    x      -1.7392      0.0804     -0.6552
            y      -0.0102     -1.2652      0.0681
            z      -0.4112      0.1007     -2.6280
-------------------------------------------------------------------------------
   34 O2    x      -2.1640      0.1181      0.7207
            y       0.0667     -1.1482     -0.0528
            z       0.7047     -0.0830     -1.7361
-------------------------------------------------------------------------------
   35 O3    x      -2.7771      0.1052      0.8573
            y       0.0244     -1.2284     -0.0534
            z       0.8680     -0.0832     -2.0171
-------------------------------------------------------------------------------
   36 O2    x      -1.1905     -0.0008     -0.2767
            y      -0.0024     -1.1037     -0.0219
            z      -0.3711     -0.0131     -3.0238
-------------------------------------------------------------------------------




  Elastic Constant Matrix: (Units=GPa)

-------------------------------------------------------------------------------
  Indices      1         2         3         4         5         6    
-------------------------------------------------------------------------------
       1     48.2311   34.9991   18.1529    4.4536    4.7332  -12.2606
       2     34.9991   85.5405   25.6760    4.9792   12.5437  -13.6215
       3     18.1529   25.6760   38.4942    0.2454   14.1139   -2.4341
       4      4.4536    4.9792    0.2454   13.0547    0.5453    3.7706
       5      4.7332   12.5437   14.1139    0.5453   16.0798    2.0511
       6    -12.2606  -13.6215   -2.4341    3.7706    2.0511   17.5014
-------------------------------------------------------------------------------


  Elastic Compliance Matrix: (Units=1/GPa)

-------------------------------------------------------------------------------
  Indices      1         2         3         4         5         6    
-------------------------------------------------------------------------------
       1    0.037737 -0.007887 -0.012448 -0.016021  0.003761  0.021578
       2   -0.007887  0.020546 -0.005323 -0.008288 -0.010376  0.012727
       3   -0.012448 -0.005323  0.047383  0.007958 -0.033526 -0.004058
       4   -0.016021 -0.008288  0.007958  0.095777  0.005780 -0.037879
       5    0.003761 -0.010376 -0.033526  0.005780  0.101371 -0.023229
       6    0.021578  0.012727 -0.004058 -0.037879 -0.023229  0.092479
-------------------------------------------------------------------------------

  Mechanical properties :

-------------------------------------------------------------------------------
  Convention :                    Reuss         Voigt         Hill
-------------------------------------------------------------------------------
  Bulk  Modulus (GPa)     =      18.39879      36.65797      27.52838
  Shear Modulus (GPa)     =      10.75907      15.55638      13.15772
-------------------------------------------------------------------------------
  Velocity S-wave (km/s)  =       2.22536       2.67588       2.46095
  Velocity P-wave (km/s)  =       3.88222       5.14006       4.55477
-------------------------------------------------------------------------------
  Compressibility (1/GPa) =    0.05435141
-------------------------------------------------------------------------------
  Stress axis :                     x             y             z
-------------------------------------------------------------------------------
  Youngs Moduli (GPa)     =      26.49923      48.67200      21.10455
-------------------------------------------------------------------------------
  Poissons Ratio (x)      =                     0.38386       0.26270
  Poissons Ratio (y)      =       0.20899                     0.11234
  Poissons Ratio (z)      =       0.32985       0.25908
-------------------------------------------------------------------------------


  Piezoelectric Strain Matrix: (Units=C/m**2)

-------------------------------------------------------------------------------
  Indices      1         2         3         4         5         6    
-------------------------------------------------------------------------------
       x     0.67826   0.60231  -1.12036  -0.33248   0.00483  -0.11532
       y     0.27368   0.66791  -0.27820  -0.31262  -0.14184   0.27393
       z     0.06659  -0.17996   0.42485  -0.67419  -1.03921  -0.41399
-------------------------------------------------------------------------------


  Piezoelectric Stress Matrix: (Units=10**-11 C/N)

-------------------------------------------------------------------------------
  Indices      1         2         3         4         5         6    
-------------------------------------------------------------------------------
       x     3.76474   1.42271  -6.70747  -5.22225   3.51087   2.86652
       y     1.89094   2.05942  -1.89885  -5.32730  -1.91225   5.60049
       z    -0.33962   0.46179   5.14146  -5.10903 -11.17509   0.88147
-------------------------------------------------------------------------------


  Static dielectric constant tensor : 

-------------------------------------------------------------------------------
              x         y         z
-------------------------------------------------------------------------------
       x     4.65942  -0.16248   0.06747
       y    -0.16248   4.87488   0.12027
       z     0.06747   0.12027   3.38348
--------------------------------------------------------------------------------

  High frequency dielectric constant tensor : 

-------------------------------------------------------------------------------
              x         y         z
-------------------------------------------------------------------------------
       x     1.62475  -0.00142   0.00884
       y    -0.00142   1.63864   0.00244
       z     0.00884   0.00244   1.58543
-------------------------------------------------------------------------------

  Static refractive indices : 

-------------------------------------------------------------------------------
    1 =    1.83543      2 =    2.14088      3 =    2.22837
-------------------------------------------------------------------------------

  High frequency refractive indices : 

-------------------------------------------------------------------------------
    1 =    1.25833      2 =    1.27538      3 =    1.28017
-------------------------------------------------------------------------------


  Time to end of optimisation =       3.3351 seconds


  Peak dynamic memory used =       2.76 MB 


  Timing analysis for GULP :

--------------------------------------------------------------------------------
  Task / Subroutine                                          Time (Seconds)
--------------------------------------------------------------------------------
  Calculation of reciprocal space energy and derivatives          0.2152
  Calculation of real space energy and derivatives                2.7093
  Calculation of three-body energy and derivatives                0.0802
  Calculation and manipulation of Hessian matrix                  0.5058
  Calculation of matrix inversion                                 0.0032
  Global summation overhead                                       0.0001
--------------------------------------------------------------------------------
  Total CPU time                                                  3.3352
--------------------------------------------------------------------------------


  Dump file written as c00087.vasp.grs
  CIF file written as c00087.vasp.cif


  Job Finished at 22:41.26  6th October    2025                               

