********************************************************************************
*                       GENERAL UTILITY LATTICE PROGRAM                        *
*                                 Julian Gale                                  *
*                       Curtin Institute for Computation                       *
*                    School of Molecular and Life Sciences                     *
*                    Curtin University, Western Australia                      *
********************************************************************************
* Version = 6.1.2 * Last modified =   3rd November 2022                        *
********************************************************************************
*  optimise     - perform optimisation run                                     *
*  conp         - constant pressure calculation                                *
*  property     - calculate properties for final geometry                      *
********************************************************************************

  Job Started  at 22:43.33  6th October    2025                               

  Number of CPUs =     1


  Total number of configurations input =      1

********************************************************************************
*  Input for Configuration =   1 : c00127.vasp                                 *
********************************************************************************

  Formula = Ge4Si8O24                                                   

  Number of irreducible atoms/shells =      60


  Total number atoms/shells =      60

  Dimensionality = 3               :  Bulk   



  Cartesian lattice vectors (Angstroms) :

        9.086940    0.000000    0.000000
        0.000000    7.554810    0.000000
       -3.295144    0.000000    9.944380

  Cell parameters (Angstroms/Degrees):

  a =       9.0869    alpha =  90.0000
  b =       7.5548    beta  = 108.3330
  c =      10.4761    gamma =  90.0000

  Initial cell volume =         682.682735 Angs**3

  Temperature of configuration =   0.00     K 

  Pressure of configuration =         0.000 GPa 

  Fractional coordinates of asymmetric unit :

--------------------------------------------------------------------------------
   No.  Atomic       x           y          z         Charge      Occupancy
        Label      (Frac)      (Frac)     (Frac)        (e)         (Frac)  
--------------------------------------------------------------------------------
      1 Ge    c    0.331050    0.296920    0.607380     4.00000    1.000000    
      2 Ge    c    0.668950 *  0.703080 *  0.392620 *   4.00000    1.000000    
      3 Ge    c    0.879680 *  0.000000 *  0.350160 *   4.00000    1.000000    
      4 Ge    c    0.906930 *  0.000000 *  0.841770 *   4.00000    1.000000    
      5 Si    c    0.313820 *  0.296860 *  0.309830 *   4.00000    1.000000    
      6 Si    c    0.686180 *  0.296860 *  0.690170 *   4.00000    1.000000    
      7 Si    c    0.686180 *  0.703140 *  0.690170 *   4.00000    1.000000    
      8 Si    c    0.313820 *  0.703140 *  0.309830 *   4.00000    1.000000    
      9 Si    c    0.668950 *  0.296920 *  0.392620 *   4.00000    1.000000    
     10 Si    c    0.331050 *  0.703080 *  0.607380 *   4.00000    1.000000    
     11 Si    c    0.120320 *  0.000000 *  0.649840 *   4.00000    1.000000    
     12 Si    c    0.093070 *  0.000000 *  0.158230 *   4.00000    1.000000    
     13 O3    c    0.268740 *  0.279030 *  0.446100 *   1.33043    1.000000    
     14 O2    c    0.731260 *  0.279030 *  0.553900 *   0.87073    1.000000    
     15 O3    c    0.731260 *  0.720970 *  0.553900 *   1.33043    1.000000    
     16 O2    c    0.268740 *  0.720970 *  0.446100 *   0.87073    1.000000    
     17 O2    c    0.295480 *  0.500000 *  0.260860 *   0.87073    1.000000    
     18 O2    c    0.704520 *  0.500000 *  0.739140 *   0.87073    1.000000    
     19 O2    c    0.490600 *  0.234690 *  0.337530 *   0.87073    1.000000    
     20 O3    c    0.509400 *  0.234690 *  0.662470 *   1.33043    1.000000    
     21 O2    c    0.509400 *  0.765310 *  0.662470 *   0.87073    1.000000    
     22 O3    c    0.490600 *  0.765310 *  0.337530 *   1.33043    1.000000    
     23 O2    c    0.200440 *  0.174000 *  0.194980 *   0.87073    1.000000    
     24 O3    c    0.799560 *  0.174000 *  0.805020 *   1.33043    1.000000    
     25 O3    c    0.799560 *  0.826000 *  0.805020 *   1.33043    1.000000    
     26 O2    c    0.200440 *  0.826000 *  0.194980 *   0.87073    1.000000    
     27 O3    c    0.317860 *  0.500000 *  0.649090 *   1.33043    1.000000    
     28 O3    c    0.682140 *  0.500000 *  0.350910 *   1.33043    1.000000    
     29 O3    c    0.227920 *  0.173870 *  0.671620 *   1.33043    1.000000    
     30 O3    c    0.772080 *  0.173870 *  0.328380 *   1.33043    1.000000    
     31 O1    c    0.772080 *  0.826130 *  0.328380 *   1.73396    1.000000    
     32 O2    c    0.227920 *  0.826130 *  0.671620 *   0.87073    1.000000    
     33 O3    c    0.000000 *  0.000000 *  0.500000 *   1.33043    1.000000    
     34 O3    c    0.971960 *  0.000000 *  0.241930 *   1.33043    1.000000    
     35 O3    c    0.028040 *  0.000000 *  0.758070 *   1.33043    1.000000    
     36 O3    c    0.000000 *  0.000000 *  0.000000 *   1.33043    1.000000    
     37 O3    s    0.268740 *  0.279030 *  0.446100 *  -3.33043    1.000000    
     38 O2    s    0.731260 *  0.279030 *  0.553900 *  -2.87073    1.000000    
     39 O3    s    0.731260 *  0.720970 *  0.553900 *  -3.33043    1.000000    
     40 O2    s    0.268740 *  0.720970 *  0.446100 *  -2.87073    1.000000    
     41 O2    s    0.295480 *  0.500000 *  0.260860 *  -2.87073    1.000000    
     42 O2    s    0.704520 *  0.500000 *  0.739140 *  -2.87073    1.000000    
     43 O2    s    0.490600 *  0.234690 *  0.337530 *  -2.87073    1.000000    
     44 O3    s    0.509400 *  0.234690 *  0.662470 *  -3.33043    1.000000    
     45 O2    s    0.509400 *  0.765310 *  0.662470 *  -2.87073    1.000000    
     46 O3    s    0.490600 *  0.765310 *  0.337530 *  -3.33043    1.000000    
     47 O2    s    0.200440 *  0.174000 *  0.194980 *  -2.87073    1.000000    
     48 O3    s    0.799560 *  0.174000 *  0.805020 *  -3.33043    1.000000    
     49 O3    s    0.799560 *  0.826000 *  0.805020 *  -3.33043    1.000000    
     50 O2    s    0.200440 *  0.826000 *  0.194980 *  -2.87073    1.000000    
     51 O3    s    0.317860 *  0.500000 *  0.649090 *  -3.33043    1.000000    
     52 O3    s    0.682140 *  0.500000 *  0.350910 *  -3.33043    1.000000    
     53 O3    s    0.227920 *  0.173870 *  0.671620 *  -3.33043    1.000000    
     54 O3    s    0.772080 *  0.173870 *  0.328380 *  -3.33043    1.000000    
     55 O1    s    0.772080 *  0.826130 *  0.328380 *  -3.73396    1.000000    
     56 O2    s    0.227920 *  0.826130 *  0.671620 *  -2.87073    1.000000    
     57 O3    s    0.000000 *  0.000000 *  0.500000 *  -3.33043    1.000000    
     58 O3    s    0.971960 *  0.000000 *  0.241930 *  -3.33043    1.000000    
     59 O3    s    0.028040 *  0.000000 *  0.758070 *  -3.33043    1.000000    
     60 O3    s    0.000000 *  0.000000 *  0.000000 *  -3.33043    1.000000    
--------------------------------------------------------------------------------



********************************************************************************
*  General input information                                                   *
********************************************************************************

  Species output for all configurations : 

--------------------------------------------------------------------------------
  Species    Type    Atomic    Atomic    Charge       Radii (Angs)     Library
                     Number     Mass       (e)     Cova   Ionic  VDW   Symbol
--------------------------------------------------------------------------------
    Ge       Core       32      72.61   4.000000   1.170  0.000  1.750 Ge       
    Si       Core       14      28.09   4.000000   1.200  0.000  2.100 Si       
    O1       Core        8      16.00   1.733957   0.730  0.000  1.360 O1       
    O2       Core        8      16.00   0.870733   0.730  0.000  1.360 O2       
    O3       Core        8      16.00   1.330431   0.730  0.000  1.360 O3       
    O1       Shell       8       0.00  -3.733957   0.730  0.000  0.000 O1       
    O2       Shell       8       0.00  -2.870733   0.730  0.000  0.000 O2       
    O3       Shell       8       0.00  -3.330431   0.730  0.000  0.000 O3       
--------------------------------------------------------------------------------


  Lattice summation method               =    Ewald          (3-D)
                                         =    Parry          (2-D)
                                         =    Saunders et al (1-D)
  Accuracy factor for lattice sums       =   12.000


  Analytic derivatives to be used

  Time limit = Infinity

  Maximum range for interatomic potentials =    100000.000000 Angstroms

  General interatomic potentials :

--------------------------------------------------------------------------------
Atom  Types   Potential      Parameter       Value         Units   Cutoffs(Ang)
  1     2                                                            Min /  Max 
--------------------------------------------------------------------------------
Si   c O1   s Buckingham    Buckingham A     1315.2478    eV        0.000 16.000
                            Buckingham rho  0.31775900    Ang       
                            Buckingham C     10.141118    eV*Ang^6  
--------------------------------------------------------------------------------
Si   c O2   s Buckingham    Buckingham A     1315.2478    eV        0.000 16.000
                            Buckingham rho  0.31775900    Ang       
                            Buckingham C     10.141118    eV*Ang^6  
--------------------------------------------------------------------------------
Si   c O3   s Buckingham    Buckingham A     1315.2478    eV        0.000 16.000
                            Buckingham rho  0.31775900    Ang       
                            Buckingham C     10.141118    eV*Ang^6  
--------------------------------------------------------------------------------
Ge   c O1   s Buckingham    Buckingham A     1497.3996    eV        0.000 16.000
                            Buckingham rho  0.32564600    Ang       
                            Buckingham C     16.808599    eV*Ang^6  
--------------------------------------------------------------------------------
Ge   c O2   s Buckingham    Buckingham A     1497.3996    eV        0.000 16.000
                            Buckingham rho  0.32564600    Ang       
                            Buckingham C     16.808599    eV*Ang^6  
--------------------------------------------------------------------------------
Ge   c O3   s Buckingham    Buckingham A     1497.3996    eV        0.000 16.000
                            Buckingham rho  0.32564600    Ang       
                            Buckingham C     16.808599    eV*Ang^6  
--------------------------------------------------------------------------------
O1   s O1   s Buckingham    Buckingham A     22764.000    eV        0.000 16.000
                            Buckingham rho  0.14900000    Ang       
                            Buckingham C     10.937044    eV*Ang^6  
--------------------------------------------------------------------------------
O1   s O2   s Buckingham    Buckingham A     22764.000    eV        0.000 16.000
                            Buckingham rho  0.14900000    Ang       
                            Buckingham C     10.937044    eV*Ang^6  
--------------------------------------------------------------------------------
O1   s O3   s Buckingham    Buckingham A     22764.000    eV        0.000 16.000
                            Buckingham rho  0.14900000    Ang       
                            Buckingham C     10.937044    eV*Ang^6  
--------------------------------------------------------------------------------
O2   s O2   s Buckingham    Buckingham A     22764.000    eV        0.000 16.000
                            Buckingham rho  0.14900000    Ang       
                            Buckingham C     10.937044    eV*Ang^6  
--------------------------------------------------------------------------------
O2   s O3   s Buckingham    Buckingham A     22764.000    eV        0.000 16.000
                            Buckingham rho  0.14900000    Ang       
                            Buckingham C     10.937044    eV*Ang^6  
--------------------------------------------------------------------------------
O3   s O3   s Buckingham    Buckingham A     22764.000    eV        0.000 16.000
                            Buckingham rho  0.14900000    Ang       
                            Buckingham C     10.937044    eV*Ang^6  
--------------------------------------------------------------------------------
O1   c O1   s Spring (c-s)  Spring k 2       180.31577    eV*Ang^-2 0.000  0.800
                            Spring k 4       0.0000000    eV*Ang^-4 
--------------------------------------------------------------------------------
O2   c O2   s Spring (c-s)  Spring k 2       75.969800    eV*Ang^-2 0.000  0.800
                            Spring k 4       0.0000000    eV*Ang^-4 
--------------------------------------------------------------------------------
O3   c O3   s Spring (c-s)  Spring k 2       128.14270    eV*Ang^-2 0.000  0.800
                            Spring k 4       0.0000000    eV*Ang^-4 
--------------------------------------------------------------------------------

  General Three-body potentials :

--------------------------------------------------------------------------------
  Atoms       Potential      Parameter       Value         Units   Cutoffs(Ang)
  1 / 2 / 3                                                          Min /  Max 
--------------------------------------------------------------------------------
Si    core    Harmonic      Three-body cnst  1.2614000    eV*rad^-2 0.000  1.900
O1    shel                  Three-body angl  109.47000    degrees   0.000  1.900
O1    shel                  Three-body k4    0.0000000    eV*rad^-4 0.000  3.500
                            Three-body k3    0.0000000    eV*rad^-3 
--------------------------------------------------------------------------------
Si    core    Harmonic      Three-body cnst  1.2614000    eV*rad^-2 0.000  1.900
O1    shel                  Three-body angl  109.47000    degrees   0.000  1.900
õ(1   shel                  Three-body k4    0.0000000    eV*rad^-4 0.000  3.500
                            Three-body k3    0.0000000    eV*rad^-3 
--------------------------------------------------------------------------------
Si    core    Harmonic      Three-body cnst  1.2614000    eV*rad^-2 0.000  1.900
õ(1   shel                  Three-body angl  109.47000    degrees   0.000  1.900
õ(1   shel                  Three-body k4    0.0000000    eV*rad^-4 0.000  3.500
                            Three-body k3    0.0000000    eV*rad^-3 
--------------------------------------------------------------------------------
Si    core    Harmonic      Three-body cnst  1.2614000    eV*rad^-2 0.000  1.900
O1    shel                  Three-body angl  109.47000    degrees   0.000  1.900
O2    shel                  Three-body k4    0.0000000    eV*rad^-4 0.000  3.500
                            Three-body k3    0.0000000    eV*rad^-3 
--------------------------------------------------------------------------------
Si    core    Harmonic      Three-body cnst  1.2614000    eV*rad^-2 0.000  1.900
O1    shel                  Three-body angl  109.47000    degrees   0.000  1.900
õ(2   shel                  Three-body k4    0.0000000    eV*rad^-4 0.000  3.500
                            Three-body k3    0.0000000    eV*rad^-3 
--------------------------------------------------------------------------------
Si    core    Harmonic      Three-body cnst  1.2614000    eV*rad^-2 0.000  1.900
O2    shel                  Three-body angl  109.47000    degrees   0.000  1.900
õ(1   shel                  Three-body k4    0.0000000    eV*rad^-4 0.000  3.500
                            Three-body k3    0.0000000    eV*rad^-3 
--------------------------------------------------------------------------------
Si    core    Harmonic      Three-body cnst  1.2614000    eV*rad^-2 0.000  1.900
õ(1   shel                  Three-body angl  109.47000    degrees   0.000  1.900
õ(2   shel                  Three-body k4    0.0000000    eV*rad^-4 0.000  3.500
                            Three-body k3    0.0000000    eV*rad^-3 
--------------------------------------------------------------------------------
Si    core    Harmonic      Three-body cnst  1.2614000    eV*rad^-2 0.000  1.900
O2    shel                  Three-body angl  109.47000    degrees   0.000  1.900
O2    shel                  Three-body k4    0.0000000    eV*rad^-4 0.000  3.500
                            Three-body k3    0.0000000    eV*rad^-3 
--------------------------------------------------------------------------------
Si    core    Harmonic      Three-body cnst  1.2614000    eV*rad^-2 0.000  1.900
O2    shel                  Three-body angl  109.47000    degrees   0.000  1.900
õ(2   shel                  Three-body k4    0.0000000    eV*rad^-4 0.000  3.500
                            Three-body k3    0.0000000    eV*rad^-3 
--------------------------------------------------------------------------------
Si    core    Harmonic      Three-body cnst  1.2614000    eV*rad^-2 0.000  1.900
õ(2   shel                  Three-body angl  109.47000    degrees   0.000  1.900
õ(2   shel                  Three-body k4    0.0000000    eV*rad^-4 0.000  3.500
                            Three-body k3    0.0000000    eV*rad^-3 
--------------------------------------------------------------------------------

********************************************************************************
*  Output for configuration   1 : c00127.vasp                                  *
********************************************************************************


  Components of energy : 

--------------------------------------------------------------------------------
  Interatomic potentials     =         400.32034397 eV    
  Three-body potentials      =           0.00000534 eV    
  Monopole - monopole (real) =       -1236.99964305 eV    
  Monopole - monopole (recip)=        -659.26603192 eV    
  Monopole - monopole (total)=       -1896.26567496 eV    
--------------------------------------------------------------------------------
  Total lattice energy       =       -1495.94532565 eV    
--------------------------------------------------------------------------------
  Total lattice energy       =         -144335.8563 kJ/(mole unit cells)
--------------------------------------------------------------------------------


  Number of variables =      183

  Maximum number of calculations  =          1000
  Maximum Hessian update interval =            10
  Maximum step size               =   0.100000000
  Maximum parameter tolerance     =   0.000010000
  Maximum function  tolerance     =   0.000010000
  Maximum gradient  tolerance     =   0.001000000
  Maximum gradient  component     =   0.010000000

  Symmetry not applied to optimisation

  Cell parameters to be optimised using strains

  Newton-Raphson optimiser to be used

  BFGS hessian update to be used

  Lower half triangular hessian to be used

  Minimiser to switch to RFO
  When gradient norm is less than     0.050000

  Dumpfile to be written after every cycle

  Start of bulk optimisation :

  Cycle:      0 Energy:     -1495.945326  Gnorm:      5.596394  CPU:    0.030
  ** Hessian calculated **
  Cycle:      1 Energy:     -1512.071966  Gnorm:      1.451206  CPU:    0.066
  ** Hessian calculated **
  Cycle:      2 Energy:     -1514.563748  Gnorm:      0.940436  CPU:    0.130
  ** Hessian calculated **
  Cycle:      3 Energy:     -1515.234310  Gnorm:      0.534967  CPU:    0.188
  Cycle:      4 Energy:     -1515.562157  Gnorm:      0.350814  CPU:    0.224
  Cycle:      5 Energy:     -1515.874660  Gnorm:      0.274670  CPU:    0.267
  Cycle:      6 Energy:     -1516.155959  Gnorm:      0.229472  CPU:    0.309
  Cycle:      7 Energy:     -1516.291674  Gnorm:      0.162482  CPU:    0.345
  Cycle:      8 Energy:     -1516.365318  Gnorm:      0.126120  CPU:    0.381
  Cycle:      9 Energy:     -1516.406689  Gnorm:      0.096845  CPU:    0.416
  Cycle:     10 Energy:     -1516.431700  Gnorm:      0.080492  CPU:    0.452
  Cycle:     11 Energy:     -1516.450416  Gnorm:      0.073715  CPU:    0.487
  Cycle:     12 Energy:     -1516.472142  Gnorm:      0.077909  CPU:    0.530
  ** Hessian calculated **
  Cycle:     13 Energy:     -1516.497382  Gnorm:      0.075736  CPU:    0.595
  Cycle:     14 Energy:     -1516.538545  Gnorm:      0.071949  CPU:    0.644
  Cycle:     15 Energy:     -1516.588169  Gnorm:      0.066929  CPU:    0.686
  Cycle:     16 Energy:     -1516.663472  Gnorm:      0.058144  CPU:    0.735
  Cycle:     17 Energy:     -1516.739642  Gnorm:      0.047336  CPU:    0.777
  ** Hessian has wrong structure
  ** Imaginary eigenvectors =   2
  Cycle:     18 Energy:     -1516.764793  Gnorm:      0.086082  CPU:    0.867
  ** Hessian has wrong structure
  ** Imaginary eigenvectors =   2
  ** Hessian has wrong structure
  ** Imaginary eigenvectors =   2
  Cycle:     19 Energy:     -1516.798127  Gnorm:      0.091452  CPU:    1.006
  ** Hessian has wrong structure
  ** Imaginary eigenvectors =   1
  ** Hessian has required structure
  Cycle:     20 Energy:     -1516.925952  Gnorm:      0.065552  CPU:    1.117
  ** Hessian has required structure
  Cycle:     21 Energy:     -1516.985059  Gnorm:      0.034366  CPU:    1.160
  ** Hessian has required structure
  Cycle:     22 Energy:     -1517.016623  Gnorm:      0.047725  CPU:    1.202
  ** Hessian has required structure
  Cycle:     23 Energy:     -1517.034744  Gnorm:      0.029132  CPU:    1.251
  ** Hessian has required structure
  Cycle:     24 Energy:     -1517.045370  Gnorm:      0.031024  CPU:    1.300
  ** Hessian has required structure
  Cycle:     25 Energy:     -1517.057058  Gnorm:      0.020141  CPU:    1.341
  ** Hessian has required structure
  Cycle:     26 Energy:     -1517.063816  Gnorm:      0.023119  CPU:    1.383
  ** Hessian has required structure
  Cycle:     27 Energy:     -1517.067974  Gnorm:      0.024843  CPU:    1.425
  ** Hessian has required structure
  Cycle:     28 Energy:     -1517.072470  Gnorm:      0.019801  CPU:    1.467
  ** Hessian has required structure
  Cycle:     29 Energy:     -1517.075380  Gnorm:      0.014102  CPU:    1.509
  ** Hessian has required structure
  Cycle:     30 Energy:     -1517.081647  Gnorm:      0.009357  CPU:    1.580
  ** Hessian has required structure
  Cycle:     31 Energy:     -1517.084523  Gnorm:      0.009532  CPU:    1.629
  ** Hessian has required structure
  Cycle:     32 Energy:     -1517.085758  Gnorm:      0.005904  CPU:    1.678
  ** Hessian has required structure
  Cycle:     33 Energy:     -1517.086383  Gnorm:      0.008179  CPU:    1.727
  ** Hessian has required structure
  Cycle:     34 Energy:     -1517.087075  Gnorm:      0.005668  CPU:    1.776
  ** Hessian has required structure
  Cycle:     35 Energy:     -1517.087491  Gnorm:      0.004403  CPU:    1.825
  ** Hessian has required structure
  Cycle:     36 Energy:     -1517.087862  Gnorm:      0.004482  CPU:    1.874
  ** Hessian has required structure
  Cycle:     37 Energy:     -1517.088123  Gnorm:      0.001874  CPU:    1.923
  ** Hessian has required structure
  Cycle:     38 Energy:     -1517.088231  Gnorm:      0.002116  CPU:    1.966
  ** Hessian has required structure
  Cycle:     39 Energy:     -1517.088330  Gnorm:      0.001375  CPU:    2.010
  ** Hessian has required structure
  Cycle:     40 Energy:     -1517.088388  Gnorm:      0.000852  CPU:    2.087
  ** Hessian has required structure
  Cycle:     41 Energy:     -1517.088413  Gnorm:      0.000610  CPU:    2.142
  ** Hessian has required structure
  Cycle:     42 Energy:     -1517.088425  Gnorm:      0.000376  CPU:    2.197
  ** Hessian has required structure
  Cycle:     43 Energy:     -1517.088427  Gnorm:      0.000328  CPU:    2.237
  ** Hessian has required structure
  Cycle:     44 Energy:     -1517.088427  Gnorm:      0.000326  CPU:    2.285
  ** Hessian has required structure
  Cycle:     45 Energy:     -1517.088427  Gnorm:      0.000324  CPU:    2.332
  ** Hessian has required structure
  Cycle:     46 Energy:     -1517.088427  Gnorm:      0.000324  CPU:    2.379
  ** Hessian has required structure
  Cycle:     47 Energy:     -1517.088427  Gnorm:      0.000324  CPU:    2.419
  ** Hessian has required structure
  Cycle:     48 Energy:     -1517.085742  Gnorm:      0.028193  CPU:    2.511
  ** Hessian has required structure
  Cycle:     49 Energy:     -1517.087754  Gnorm:      0.014087  CPU:    2.590
  ** Hessian has required structure
  Cycle:     50 Energy:     -1517.088258  Gnorm:      0.007037  CPU:    2.645
  ** Hessian has required structure
  Cycle:     51 Energy:     -1517.088386  Gnorm:      0.003515  CPU:    2.701
  ** Hessian has required structure
  Cycle:     52 Energy:     -1517.088419  Gnorm:      0.001752  CPU:    2.756
  ** Hessian has required structure
  Cycle:     53 Energy:     -1517.088428  Gnorm:      0.000694  CPU:    2.818
  ** Hessian has required structure
  Cycle:     54 Energy:     -1517.088429  Gnorm:      0.000482  CPU:    2.858
  ** Hessian has required structure
  Cycle:     55 Energy:     -1517.088430  Gnorm:      0.000403  CPU:    2.897
  ** Hessian has required structure
  Cycle:     56 Energy:     -1517.088430  Gnorm:      0.000328  CPU:    2.937
  ** Hessian has required structure
  Cycle:     57 Energy:     -1517.088430  Gnorm:      0.000261  CPU:    2.976
  ** Hessian has required structure
  Cycle:     58 Energy:     -1517.088430  Gnorm:      0.000203  CPU:    3.016
  ** Hessian has required structure


  **** Optimisation achieved ****


  Final energy =   -1517.08843013 eV      
  Final Gnorm  =       0.00014221

  Components of energy : 

--------------------------------------------------------------------------------
  Interatomic potentials     =         405.63833573 eV    
  Three-body potentials      =           0.05865067 eV    
  Monopole - monopole (real) =        -837.49278775 eV    
  Monopole - monopole (recip)=       -1085.29262878 eV    
  Monopole - monopole (total)=       -1922.78541652 eV    
--------------------------------------------------------------------------------
  Total lattice energy       =       -1517.08843013 eV    
--------------------------------------------------------------------------------
  Total lattice energy       =         -146375.8427 kJ/(mole unit cells)
--------------------------------------------------------------------------------

  Final fractional coordinates of atoms :

--------------------------------------------------------------------------------
   No.  Atomic        x           y          z          Radius
        Label       (Frac)      (Frac)     (Frac)       (Angs) 
--------------------------------------------------------------------------------
     1  Ge    c     0.331050    0.296920    0.607380    0.000000
     2  Ge    c     0.686447    0.661591    0.372177    0.000000
     3  Ge    c     0.879814    0.968195    0.304535    0.000000
     4  Ge    c     0.938266    0.944349    0.818675    0.000000
     5  Si    c     0.295824    0.301378    0.283853    0.000000
     6  Si    c     0.695969    0.248297    0.681040    0.000000
     7  Si    c     0.717148    0.655839    0.692110    0.000000
     8  Si    c     0.334781    0.683623    0.291940    0.000000
     9  Si    c     0.658077    0.251886    0.368407    0.000000
    10  Si    c     0.372555    0.684606    0.614641    0.000000
    11  Si    c     0.131566    0.992397    0.608598    0.000000
    12  Si    c     0.104582    0.995134    0.136623    0.000000
    13  O3    c     0.266649    0.270884    0.428706    0.000000
    14  O2    c     0.707428    0.187450    0.531486    0.000000
    15  O3    c     0.723626    0.724565    0.543065    0.000000
    16  O2    c     0.379263    0.650141    0.459056    0.000000
    17  O2    c     0.259264    0.502891    0.225780    0.000000
    18  O2    c     0.746152    0.447542    0.704220    0.000000
    19  O2    c     0.473657    0.255850    0.302173    0.000000
    20  O3    c     0.523272    0.233126    0.681812    0.000000
    21  O2    c     0.550310    0.706022    0.708997    0.000000
    22  O3    c     0.495921    0.715442    0.269533    0.000000
    23  O2    c     0.184953    0.179667    0.169744    0.000000
    24  O3    c     0.813489    0.124743    0.798003    0.000000
    25  O3    c     0.841705    0.753877    0.811628    0.000000
    26  O2    c     0.212658    0.842851    0.237756    0.000000
    27  O3    c     0.306718    0.509089    0.655314    0.000000
    28  O3    c     0.721508    0.441062    0.360818    0.000000
    29  O3    c     0.211706    0.170833    0.665837    0.000000
    30  O3    c     0.726143    0.114577    0.286433    0.000000
    31  O1    c     0.812352    0.765038    0.309180    0.000000
    32  O2    c     0.273902    0.852998    0.627040    0.000000
    33  O3    c     0.035454    0.013297    0.446406    0.000000
    34  O3    c     0.940938    0.995864    0.161113    0.000000
    35  O3    c     0.024881    0.928862    0.692512    0.000000
    36  O3    c     0.081407    0.954183    0.977524    0.000000
    37  O3    s     0.274878    0.276120    0.428330    0.000000
    38  O2    s     0.701487    0.199801    0.530263    0.000000
    39  O3    s     0.720113    0.713289    0.543695    0.000000
    40  O2    s     0.374383    0.656544    0.457894    0.000000
    41  O2    s     0.270472    0.500989    0.238159    0.000000
    42  O2    s     0.737702    0.448931    0.700455    0.000000
    43  O2    s     0.474509    0.260475    0.307473    0.000000
    44  O3    s     0.524972    0.239849    0.675691    0.000000
    45  O2    s     0.548392    0.698665    0.697421    0.000000
    46  O3    s     0.494178    0.708311    0.279388    0.000000
    47  O2    s     0.188451    0.173243    0.178686    0.000000
    48  O3    s     0.811420    0.122965    0.787605    0.000000
    49  O3    s     0.836699    0.758956    0.800023    0.000000
    50  O2    s     0.215337    0.840629    0.233410    0.000000
    51  O3    s     0.314963    0.509671    0.647656    0.000000
    52  O3    s     0.712333    0.440011    0.362498    0.000000
    53  O3    s     0.213453    0.163763    0.655751    0.000000
    54  O3    s     0.731374    0.117211    0.296514    0.000000
    55  O1    s     0.807832    0.772818    0.313718    0.000000
    56  O2    s     0.270610    0.847633    0.623595    0.000000
    57  O3    s     0.032112    0.007347    0.451029    0.000000
    58  O3    s     0.952088    0.993596    0.169854    0.000000
    59  O3    s     0.029036    0.937074    0.694203    0.000000
    60  O3    s     0.071871    0.957508    0.980557    0.000000
--------------------------------------------------------------------------------

  Final Cartesian lattice vectors (Angstroms) :

        9.177513    0.182144    0.007499
        0.149370    7.679247    0.107349
       -3.319025    0.064455    9.563501


  Final cell parameters and derivatives :

--------------------------------------------------------------------------------
       a            9.179323 Angstrom     dE/de1(xx)     0.001210 eV/strain
       b            7.681449 Angstrom     dE/de2(yy)    -0.001605 eV/strain
       c           10.123272 Angstrom     dE/de3(zz)     0.008477 eV/strain
       alpha       89.244127 Degrees      dE/de4(yz)     0.001016 eV/strain
       beta       109.080610 Degrees      dE/de5(xz)    -0.005315 eV/strain
       gamma       87.748251 Degrees      dE/de6(xy)     0.001839 eV/strain
--------------------------------------------------------------------------------

  Primitive cell volume =           673.803616 Angs**3

  Density of cell =      2.215948 g/cm**3

  Non-primitive cell volume =           673.803616 Angs**3


  Final internal derivatives :

--------------------------------------------------------------------------------
   No.  Atomic          a             b             c           Radius
        Label          (eV)          (eV)          (eV)        (eV/Angs)
--------------------------------------------------------------------------------
      1 Ge    c       0.000000      0.000000      0.000000      0.000000
      2 Ge    c      -0.002489     -0.001786     -0.002949      0.000000
      3 Ge    c      -0.003473      0.000099      0.004830      0.000000
      4 Ge    c      -0.004812      0.001089      0.003594      0.000000
      5 Si    c       0.002755      0.001421     -0.004860      0.000000
      6 Si    c      -0.000259     -0.000294      0.005046      0.000000
      7 Si    c      -0.001426     -0.001325      0.003735      0.000000
      8 Si    c      -0.000738      0.001085     -0.003354      0.000000
      9 Si    c      -0.001521      0.001448     -0.001913      0.000000
     10 Si    c      -0.000249      0.000838      0.003894      0.000000
     11 Si    c       0.004605      0.000148     -0.002953      0.000000
     12 Si    c       0.002940     -0.000455      0.002892      0.000000
     13 O3    c      -0.003266     -0.001324      0.003156      0.000000
     14 O2    c       0.001318     -0.001571     -0.002087      0.000000
     15 O3    c       0.001144      0.002584     -0.000279      0.000000
     16 O2    c       0.001308     -0.001054     -0.001641      0.000000
     17 O2    c      -0.000087     -0.001077      0.000747      0.000000
     18 O2    c      -0.000231      0.000660     -0.000151      0.000000
     19 O2    c       0.000670      0.000056      0.000571      0.000000
     20 O3    c      -0.002831      0.000474     -0.000778      0.000000
     21 O2    c      -0.001621     -0.000116     -0.000779      0.000000
     22 O3    c       0.003778     -0.000184      0.000885      0.000000
     23 O2    c      -0.000419     -0.000399     -0.000054      0.000000
     24 O3    c       0.000287     -0.000015     -0.002797      0.000000
     25 O3    c       0.000574      0.000194     -0.000581      0.000000
     26 O2    c       0.000789     -0.000284     -0.000789      0.000000
     27 O3    c      -0.000074     -0.000322     -0.000690      0.000000
     28 O3    c      -0.000249      0.000625      0.000572      0.000000
     29 O3    c      -0.001736     -0.001244      0.000580      0.000000
     30 O3    c       0.003351     -0.002917     -0.002630      0.000000
     31 O1    c       0.003384      0.001937     -0.001991      0.000000
     32 O2    c      -0.000710      0.000305     -0.000148      0.000000
     33 O3    c      -0.001051     -0.000014     -0.002597      0.000000
     34 O3    c       0.002060      0.000700     -0.005421      0.000000
     35 O3    c      -0.000413     -0.001829     -0.002324      0.000000
     36 O3    c       0.000925     -0.001143     -0.006616      0.000000
     37 O3    s       0.001550      0.000671     -0.001290      0.000000
     38 O2    s      -0.000399      0.000485      0.000278      0.000000
     39 O3    s      -0.000371     -0.001393     -0.000083      0.000000
     40 O2    s      -0.000761      0.000843      0.000778      0.000000
     41 O2    s       0.000483      0.000106     -0.001389      0.000000
     42 O2    s       0.000001      0.000041      0.000402      0.000000
     43 O2    s       0.000025      0.000330     -0.000691      0.000000
     44 O3    s       0.000812     -0.000050      0.001526      0.000000
     45 O2    s       0.000096     -0.000039      0.001790      0.000000
     46 O3    s      -0.001090      0.000103     -0.002343      0.000000
     47 O2    s       0.000518      0.000034     -0.000650      0.000000
     48 O3    s      -0.000611      0.000142      0.002879      0.000000
     49 O3    s      -0.001020     -0.000135      0.001840      0.000000
     50 O2    s      -0.000737      0.000091      0.000812      0.000000
     51 O3    s      -0.000385     -0.000032      0.002324      0.000000
     52 O3    s      -0.000196     -0.000140     -0.000844      0.000000
     53 O3    s       0.000683      0.000713      0.001396      0.000000
     54 O3    s      -0.001378      0.001298      0.000320      0.000000
     55 O1    s      -0.002008     -0.001097      0.000158      0.000000
     56 O2    s       0.000529     -0.000049      0.000533      0.000000
     57 O3    s       0.001201      0.000123      0.000057      0.000000
     58 O3    s      -0.001231     -0.000635      0.002908      0.000000
     59 O3    s      -0.000238      0.000768      0.001858      0.000000
     60 O3    s       0.000001      0.000740      0.002772      0.000000
--------------------------------------------------------------------------------
  Maximum abs         0.004812      0.002917      0.006616      0.000000
--------------------------------------------------------------------------------


  Born effective charge tensors : 

-------------------------------------------------------------------------------
  Atom             x           y             z
-------------------------------------------------------------------------------
    1 Ge    x       3.9554      0.3105      0.0159
            y       0.4407      4.1762      0.0188
            z       0.1074     -0.0048      3.3009
-------------------------------------------------------------------------------
    2 Ge    x       4.1750      0.3266     -0.0194
            y       0.4663      4.1140     -0.1500
            z      -0.1139      0.0532      3.3278
-------------------------------------------------------------------------------
    3 Ge    x       4.5885      0.3491     -0.2634
            y      -0.1025      3.9624     -0.0350
            z      -0.2789      0.0509      3.5769
-------------------------------------------------------------------------------
    4 Ge    x       3.9702      0.0265     -0.2065
            y       0.0146      3.9084      0.0247
            z       0.5815      0.1546      4.5603
-------------------------------------------------------------------------------
    5 Si    x       3.1828      0.2391      0.0451
            y       0.2899      3.5019      0.1654
            z       0.0348      0.1722      3.1536
-------------------------------------------------------------------------------
    6 Si    x       3.5939     -0.3227      0.3392
            y      -0.2215      3.6144     -0.4212
            z       0.3602     -0.2642      3.1450
-------------------------------------------------------------------------------
    7 Si    x       3.3207      0.3434      0.2461
            y       0.3511      3.5771      0.4216
            z       0.3163      0.1533      3.3759
-------------------------------------------------------------------------------
    8 Si    x       3.3934     -0.1515      0.0248
            y      -0.1346      3.4748     -0.0309
            z       0.3186     -0.3214      2.8092
-------------------------------------------------------------------------------
    9 Si    x       3.4944     -0.3965     -0.2129
            y      -0.1615      3.9025      0.3415
            z      -0.0430      0.0865      2.8745
-------------------------------------------------------------------------------
   10 Si    x       3.2565     -0.2289      0.0579
            y       0.0174      3.6538     -0.0929
            z      -0.1163      0.0853      2.7082
-------------------------------------------------------------------------------
   11 Si    x       4.1538      0.4494      0.0962
            y       0.0246      3.5845      0.1024
            z      -0.4120     -0.2147      3.3933
-------------------------------------------------------------------------------
   12 Si    x       3.5680      0.1108      0.2397
            y      -0.0002      3.3494     -0.1028
            z      -0.3203      0.3088      4.3074
-------------------------------------------------------------------------------
   13 O3    x      -1.4675     -0.1549      0.4312
            y      -0.1710     -1.4030      0.0095
            z       0.3569      0.0014     -2.4982
-------------------------------------------------------------------------------
   14 O2    x      -1.2648      0.1474      0.1661
            y       0.1115     -1.3402      0.0080
            z       0.1499      0.0147     -1.9686
-------------------------------------------------------------------------------
   15 O3    x      -1.4323     -0.1681      0.3318
            y      -0.1701     -1.4911      0.0560
            z       0.3183      0.0338     -2.4435
-------------------------------------------------------------------------------
   16 O2    x      -1.2407      0.1091      0.1829
            y       0.0764     -1.3087     -0.0212
            z       0.1507     -0.0030     -2.0269
-------------------------------------------------------------------------------
   17 O2    x      -1.1273     -0.0565     -0.0816
            y      -0.1259     -2.4385     -0.0734
            z      -0.1193     -0.0334     -1.1926
-------------------------------------------------------------------------------
   18 O2    x      -1.1600     -0.0271     -0.0782
            y      -0.0538     -2.5134     -0.0868
            z      -0.0982     -0.0451     -1.1157
-------------------------------------------------------------------------------
   19 O2    x      -2.3047      0.1411     -0.3686
            y       0.1001     -1.2636     -0.0307
            z      -0.3549     -0.0058     -1.1588
-------------------------------------------------------------------------------
   20 O3    x      -2.9430      0.0906     -0.3332
            y       0.0149     -1.3931      0.0780
            z      -0.3805      0.0774     -1.2607
-------------------------------------------------------------------------------
   21 O2    x      -2.1770      0.1188     -0.2958
            y       0.0689     -1.2426     -0.0592
            z      -0.3164     -0.0475     -1.2384
-------------------------------------------------------------------------------
   22 O3    x      -2.8098     -0.0257     -0.2808
            y      -0.0412     -1.3688      0.0892
            z      -0.2741      0.1086     -1.3313
-------------------------------------------------------------------------------
   23 O2    x      -1.3850     -0.5413     -0.3514
            y      -0.5116     -2.0622     -0.4741
            z      -0.3120     -0.5651     -1.5412
-------------------------------------------------------------------------------
   24 O3    x      -1.7590      0.7808     -0.4775
            y       0.7908     -2.2987      0.6896
            z      -0.5887      0.6936     -1.8878
-------------------------------------------------------------------------------
   25 O3    x      -1.8098     -0.8096     -0.4954
            y      -0.7951     -2.2834     -0.6353
            z      -0.6068     -0.6443     -1.8621
-------------------------------------------------------------------------------
   26 O2    x      -1.4571      0.5641     -0.3392
            y       0.5555     -2.0395      0.5100
            z      -0.3256      0.5331     -1.4779
-------------------------------------------------------------------------------
   27 O3    x      -1.4549     -0.2328      0.1019
            y      -0.3256     -2.9431      0.0074
            z       0.1443      0.0345     -1.2037
-------------------------------------------------------------------------------
   28 O3    x      -1.4424     -0.1971      0.0247
            y      -0.2532     -3.0859     -0.0418
            z       0.0362     -0.0075     -1.1230
-------------------------------------------------------------------------------
   29 O3    x      -2.0728     -0.9196      0.0228
            y      -0.8620     -2.5135     -0.1387
            z       0.1176     -0.0460     -1.2776
-------------------------------------------------------------------------------
   30 O3    x      -2.3273      0.9972      0.3984
            y       0.9943     -2.2107     -0.3928
            z       0.3172     -0.3072     -1.3692
-------------------------------------------------------------------------------
   31 O1    x      -2.4372     -1.0604      0.3479
            y      -1.0161     -2.5920      0.2868
            z       0.3340      0.1901     -1.3267
-------------------------------------------------------------------------------
   32 O2    x      -1.9067      0.7355     -0.0214
            y       0.7551     -1.9573      0.0050
            z       0.0951     -0.0335     -1.0417
-------------------------------------------------------------------------------
   33 O3    x      -1.8125     -0.1015     -0.6826
            y       0.0188     -1.2683     -0.0253
            z      -0.4463     -0.0356     -2.5118
-------------------------------------------------------------------------------
   34 O3    x      -2.8012     -0.1377      0.6702
            y       0.0016     -1.2317      0.0784
            z       0.7319      0.0469     -1.9367
-------------------------------------------------------------------------------
   35 O3    x      -2.7074     -0.2790      1.0274
            y      -0.1568     -1.3036      0.1054
            z       0.9394      0.1667     -2.0054
-------------------------------------------------------------------------------
   36 O3    x      -1.3524     -0.0291     -0.2622
            y       0.0104     -1.2664     -0.1857
            z      -0.3031     -0.3865     -3.7332
-------------------------------------------------------------------------------




  Elastic Constant Matrix: (Units=GPa)

-------------------------------------------------------------------------------
  Indices      1         2         3         4         5         6    
-------------------------------------------------------------------------------
       1     44.7673   27.5615    8.3891    1.0952    2.9397   16.1918
       2     27.5615   66.1775   12.2606    7.2719    3.3297   23.6905
       3      8.3891   12.2606   25.9744    5.8432    9.3879    5.8263
       4      1.0952    7.2719    5.8432    9.8629    5.1628    4.8571
       5      2.9397    3.3297    9.3879    5.1628    7.4903    5.5356
       6     16.1918   23.6905    5.8263    4.8571    5.5356   24.2513
-------------------------------------------------------------------------------


  Elastic Compliance Matrix: (Units=1/GPa)

-------------------------------------------------------------------------------
  Indices      1         2         3         4         5         6    
-------------------------------------------------------------------------------
       1    0.034427 -0.009166 -0.006760  0.014191  0.000632 -0.015394
       2   -0.009166  0.032400 -0.018631 -0.024239  0.049591 -0.027520
       3   -0.006760 -0.018631  0.086208  0.017638 -0.130085  0.028163
       4    0.014191 -0.024239  0.017638  0.180401 -0.146647  0.007309
       5    0.000632  0.049591 -0.130085 -0.146647  0.441045 -0.088916
       6   -0.015394 -0.027520  0.028163  0.007309 -0.088916  0.090463
-------------------------------------------------------------------------------

  Mechanical properties :

-------------------------------------------------------------------------------
  Convention :                    Reuss         Voigt         Hill
-------------------------------------------------------------------------------
  Bulk  Modulus (GPa)     =      11.91597      25.92685      18.92141
  Shear Modulus (GPa)     =       5.19733      14.23475       9.71604
-------------------------------------------------------------------------------
  Velocity S-wave (km/s)  =       1.53148       2.53452       2.09394
  Velocity P-wave (km/s)  =       2.91626       4.50168       3.79274
-------------------------------------------------------------------------------
  Compressibility (1/GPa) =    0.08392096
-------------------------------------------------------------------------------
  Stress axis :                     x             y             z
-------------------------------------------------------------------------------
  Youngs Moduli (GPa)     =      29.04705      30.86397      11.59980
-------------------------------------------------------------------------------
  Poissons Ratio (x)      =                     0.28290       0.07842
  Poissons Ratio (y)      =       0.26624                     0.21612
  Poissons Ratio (z)      =       0.19636       0.57503
-------------------------------------------------------------------------------


  Piezoelectric Strain Matrix: (Units=C/m**2)

-------------------------------------------------------------------------------
  Indices      1         2         3         4         5         6    
-------------------------------------------------------------------------------
       x     0.17461   0.06056   0.59658  -0.08054   0.22346   0.12242
       y     0.66538   0.47048  -0.01790   0.21409   0.09802  -0.53539
       z     0.18515   0.44978  -0.47485  -0.51711   1.72693  -0.43482
-------------------------------------------------------------------------------


  Piezoelectric Stress Matrix: (Units=10**-11 C/N)

-------------------------------------------------------------------------------
  Indices      1         2         3         4         5         6    
-------------------------------------------------------------------------------
       x    -0.14633  -0.10881   2.20795  -3.48731   2.49914   0.30634
       y     3.00572   2.38840  -3.88600   1.80565   8.55216  -7.92784
       z     0.59074  13.18646 -29.65809 -36.63645  96.03401 -22.52682
-------------------------------------------------------------------------------


  Static dielectric constant tensor : 

-------------------------------------------------------------------------------
              x         y         z
-------------------------------------------------------------------------------
       x     4.63567   0.37068   0.02213
       y     0.37068   4.81759  -0.02089
       z     0.02213  -0.02089   3.88608
--------------------------------------------------------------------------------

  High frequency dielectric constant tensor : 

-------------------------------------------------------------------------------
              x         y         z
-------------------------------------------------------------------------------
       x     1.63805   0.00389   0.01051
       y     0.00389   1.65021   0.00402
       z     0.01051   0.00402   1.58945
-------------------------------------------------------------------------------

  Static refractive indices : 

-------------------------------------------------------------------------------
    1 =    1.97081      2 =    2.08493      3 =    2.26016
-------------------------------------------------------------------------------

  High frequency refractive indices : 

-------------------------------------------------------------------------------
    1 =    1.25981      2 =    1.28001      3 =    1.28536
-------------------------------------------------------------------------------


  Time to end of optimisation =       3.1313 seconds


  Peak dynamic memory used =       2.76 MB 


  Timing analysis for GULP :

--------------------------------------------------------------------------------
  Task / Subroutine                                          Time (Seconds)
--------------------------------------------------------------------------------
  Calculation of reciprocal space energy and derivatives          0.2013
  Calculation of real space energy and derivatives                2.5251
  Calculation of three-body energy and derivatives                0.0653
  Calculation and manipulation of Hessian matrix                  0.4558
  Calculation of matrix inversion                                 0.0029
  Global summation overhead                                       0.0001
--------------------------------------------------------------------------------
  Total CPU time                                                  3.1313
--------------------------------------------------------------------------------


  Dump file written as c00127.vasp.grs
  CIF file written as c00127.vasp.cif


  Job Finished at 22:43.37  6th October    2025                               

