********************************************************************************
*                       GENERAL UTILITY LATTICE PROGRAM                        *
*                                 Julian Gale                                  *
*                       Curtin Institute for Computation                       *
*                    School of Molecular and Life Sciences                     *
*                    Curtin University, Western Australia                      *
********************************************************************************
* Version = 6.1.2 * Last modified =   3rd November 2022                        *
********************************************************************************
*  optimise     - perform optimisation run                                     *
*  conp         - constant pressure calculation                                *
*  property     - calculate properties for final geometry                      *
********************************************************************************

  Job Started  at 22:43.44  6th October    2025                               

  Number of CPUs =     1


  Total number of configurations input =      1

********************************************************************************
*  Input for Configuration =   1 : c00130.vasp                                 *
********************************************************************************

  Formula = Ge4Si8O24                                                   

  Number of irreducible atoms/shells =      60


  Total number atoms/shells =      60

  Dimensionality = 3               :  Bulk   



  Cartesian lattice vectors (Angstroms) :

        9.086940    0.000000    0.000000
        0.000000    7.554810    0.000000
       -3.295144    0.000000    9.944380

  Cell parameters (Angstroms/Degrees):

  a =       9.0869    alpha =  90.0000
  b =       7.5548    beta  = 108.3330
  c =      10.4761    gamma =  90.0000

  Initial cell volume =         682.682735 Angs**3

  Temperature of configuration =   0.00     K 

  Pressure of configuration =         0.000 GPa 

  Fractional coordinates of asymmetric unit :

--------------------------------------------------------------------------------
   No.  Atomic       x           y          z         Charge      Occupancy
        Label      (Frac)      (Frac)     (Frac)        (e)         (Frac)  
--------------------------------------------------------------------------------
      1 Ge    c    0.331050    0.296920    0.607380     4.00000    1.000000    
      2 Ge    c    0.331050 *  0.703080 *  0.607380 *   4.00000    1.000000    
      3 Ge    c    0.879680 *  0.000000 *  0.350160 *   4.00000    1.000000    
      4 Ge    c    0.093070 *  0.000000 *  0.158230 *   4.00000    1.000000    
      5 Si    c    0.313820 *  0.296860 *  0.309830 *   4.00000    1.000000    
      6 Si    c    0.686180 *  0.296860 *  0.690170 *   4.00000    1.000000    
      7 Si    c    0.686180 *  0.703140 *  0.690170 *   4.00000    1.000000    
      8 Si    c    0.313820 *  0.703140 *  0.309830 *   4.00000    1.000000    
      9 Si    c    0.668950 *  0.296920 *  0.392620 *   4.00000    1.000000    
     10 Si    c    0.668950 *  0.703080 *  0.392620 *   4.00000    1.000000    
     11 Si    c    0.120320 *  0.000000 *  0.649840 *   4.00000    1.000000    
     12 Si    c    0.906930 *  0.000000 *  0.841770 *   4.00000    1.000000    
     13 O3    c    0.268740 *  0.279030 *  0.446100 *   1.33043    1.000000    
     14 O2    c    0.731260 *  0.279030 *  0.553900 *   0.87073    1.000000    
     15 O2    c    0.731260 *  0.720970 *  0.553900 *   0.87073    1.000000    
     16 O3    c    0.268740 *  0.720970 *  0.446100 *   1.33043    1.000000    
     17 O2    c    0.295480 *  0.500000 *  0.260860 *   0.87073    1.000000    
     18 O2    c    0.704520 *  0.500000 *  0.739140 *   0.87073    1.000000    
     19 O2    c    0.490600 *  0.234690 *  0.337530 *   0.87073    1.000000    
     20 O3    c    0.509400 *  0.234690 *  0.662470 *   1.33043    1.000000    
     21 O3    c    0.509400 *  0.765310 *  0.662470 *   1.33043    1.000000    
     22 O2    c    0.490600 *  0.765310 *  0.337530 *   0.87073    1.000000    
     23 O3    c    0.200440 *  0.174000 *  0.194980 *   1.33043    1.000000    
     24 O2    c    0.799560 *  0.174000 *  0.805020 *   0.87073    1.000000    
     25 O2    c    0.799560 *  0.826000 *  0.805020 *   0.87073    1.000000    
     26 O3    c    0.200440 *  0.826000 *  0.194980 *   1.33043    1.000000    
     27 O1    c    0.317860 *  0.500000 *  0.649090 *   1.73396    1.000000    
     28 O2    c    0.682140 *  0.500000 *  0.350910 *   0.87073    1.000000    
     29 O3    c    0.227920 *  0.173870 *  0.671620 *   1.33043    1.000000    
     30 O3    c    0.772080 *  0.173870 *  0.328380 *   1.33043    1.000000    
     31 O3    c    0.772080 *  0.826130 *  0.328380 *   1.33043    1.000000    
     32 O3    c    0.227920 *  0.826130 *  0.671620 *   1.33043    1.000000    
     33 O3    c    0.000000 *  0.000000 *  0.500000 *   1.33043    1.000000    
     34 O1    c    0.971960 *  0.000000 *  0.241930 *   1.73396    1.000000    
     35 O2    c    0.028040 *  0.000000 *  0.758070 *   0.87073    1.000000    
     36 O3    c    0.000000 *  0.000000 *  0.000000 *   1.33043    1.000000    
     37 O3    s    0.268740 *  0.279030 *  0.446100 *  -3.33043    1.000000    
     38 O2    s    0.731260 *  0.279030 *  0.553900 *  -2.87073    1.000000    
     39 O2    s    0.731260 *  0.720970 *  0.553900 *  -2.87073    1.000000    
     40 O3    s    0.268740 *  0.720970 *  0.446100 *  -3.33043    1.000000    
     41 O2    s    0.295480 *  0.500000 *  0.260860 *  -2.87073    1.000000    
     42 O2    s    0.704520 *  0.500000 *  0.739140 *  -2.87073    1.000000    
     43 O2    s    0.490600 *  0.234690 *  0.337530 *  -2.87073    1.000000    
     44 O3    s    0.509400 *  0.234690 *  0.662470 *  -3.33043    1.000000    
     45 O3    s    0.509400 *  0.765310 *  0.662470 *  -3.33043    1.000000    
     46 O2    s    0.490600 *  0.765310 *  0.337530 *  -2.87073    1.000000    
     47 O3    s    0.200440 *  0.174000 *  0.194980 *  -3.33043    1.000000    
     48 O2    s    0.799560 *  0.174000 *  0.805020 *  -2.87073    1.000000    
     49 O2    s    0.799560 *  0.826000 *  0.805020 *  -2.87073    1.000000    
     50 O3    s    0.200440 *  0.826000 *  0.194980 *  -3.33043    1.000000    
     51 O1    s    0.317860 *  0.500000 *  0.649090 *  -3.73396    1.000000    
     52 O2    s    0.682140 *  0.500000 *  0.350910 *  -2.87073    1.000000    
     53 O3    s    0.227920 *  0.173870 *  0.671620 *  -3.33043    1.000000    
     54 O3    s    0.772080 *  0.173870 *  0.328380 *  -3.33043    1.000000    
     55 O3    s    0.772080 *  0.826130 *  0.328380 *  -3.33043    1.000000    
     56 O3    s    0.227920 *  0.826130 *  0.671620 *  -3.33043    1.000000    
     57 O3    s    0.000000 *  0.000000 *  0.500000 *  -3.33043    1.000000    
     58 O1    s    0.971960 *  0.000000 *  0.241930 *  -3.73396    1.000000    
     59 O2    s    0.028040 *  0.000000 *  0.758070 *  -2.87073    1.000000    
     60 O3    s    0.000000 *  0.000000 *  0.000000 *  -3.33043    1.000000    
--------------------------------------------------------------------------------



********************************************************************************
*  General input information                                                   *
********************************************************************************

  Species output for all configurations : 

--------------------------------------------------------------------------------
  Species    Type    Atomic    Atomic    Charge       Radii (Angs)     Library
                     Number     Mass       (e)     Cova   Ionic  VDW   Symbol
--------------------------------------------------------------------------------
    Ge       Core       32      72.61   4.000000   1.170  0.000  1.750 Ge       
    Si       Core       14      28.09   4.000000   1.200  0.000  2.100 Si       
    O1       Core        8      16.00   1.733957   0.730  0.000  1.360 O1       
    O2       Core        8      16.00   0.870733   0.730  0.000  1.360 O2       
    O3       Core        8      16.00   1.330431   0.730  0.000  1.360 O3       
    O1       Shell       8       0.00  -3.733957   0.730  0.000  0.000 O1       
    O2       Shell       8       0.00  -2.870733   0.730  0.000  0.000 O2       
    O3       Shell       8       0.00  -3.330431   0.730  0.000  0.000 O3       
--------------------------------------------------------------------------------


  Lattice summation method               =    Ewald          (3-D)
                                         =    Parry          (2-D)
                                         =    Saunders et al (1-D)
  Accuracy factor for lattice sums       =   12.000


  Analytic derivatives to be used

  Time limit = Infinity

  Maximum range for interatomic potentials =    100000.000000 Angstroms

  General interatomic potentials :

--------------------------------------------------------------------------------
Atom  Types   Potential      Parameter       Value         Units   Cutoffs(Ang)
  1     2                                                            Min /  Max 
--------------------------------------------------------------------------------
Si   c O1   s Buckingham    Buckingham A     1315.2478    eV        0.000 16.000
                            Buckingham rho  0.31775900    Ang       
                            Buckingham C     10.141118    eV*Ang^6  
--------------------------------------------------------------------------------
Si   c O2   s Buckingham    Buckingham A     1315.2478    eV        0.000 16.000
                            Buckingham rho  0.31775900    Ang       
                            Buckingham C     10.141118    eV*Ang^6  
--------------------------------------------------------------------------------
Si   c O3   s Buckingham    Buckingham A     1315.2478    eV        0.000 16.000
                            Buckingham rho  0.31775900    Ang       
                            Buckingham C     10.141118    eV*Ang^6  
--------------------------------------------------------------------------------
Ge   c O1   s Buckingham    Buckingham A     1497.3996    eV        0.000 16.000
                            Buckingham rho  0.32564600    Ang       
                            Buckingham C     16.808599    eV*Ang^6  
--------------------------------------------------------------------------------
Ge   c O2   s Buckingham    Buckingham A     1497.3996    eV        0.000 16.000
                            Buckingham rho  0.32564600    Ang       
                            Buckingham C     16.808599    eV*Ang^6  
--------------------------------------------------------------------------------
Ge   c O3   s Buckingham    Buckingham A     1497.3996    eV        0.000 16.000
                            Buckingham rho  0.32564600    Ang       
                            Buckingham C     16.808599    eV*Ang^6  
--------------------------------------------------------------------------------
O1   s O1   s Buckingham    Buckingham A     22764.000    eV        0.000 16.000
                            Buckingham rho  0.14900000    Ang       
                            Buckingham C     10.937044    eV*Ang^6  
--------------------------------------------------------------------------------
O1   s O2   s Buckingham    Buckingham A     22764.000    eV        0.000 16.000
                            Buckingham rho  0.14900000    Ang       
                            Buckingham C     10.937044    eV*Ang^6  
--------------------------------------------------------------------------------
O1   s O3   s Buckingham    Buckingham A     22764.000    eV        0.000 16.000
                            Buckingham rho  0.14900000    Ang       
                            Buckingham C     10.937044    eV*Ang^6  
--------------------------------------------------------------------------------
O2   s O2   s Buckingham    Buckingham A     22764.000    eV        0.000 16.000
                            Buckingham rho  0.14900000    Ang       
                            Buckingham C     10.937044    eV*Ang^6  
--------------------------------------------------------------------------------
O2   s O3   s Buckingham    Buckingham A     22764.000    eV        0.000 16.000
                            Buckingham rho  0.14900000    Ang       
                            Buckingham C     10.937044    eV*Ang^6  
--------------------------------------------------------------------------------
O3   s O3   s Buckingham    Buckingham A     22764.000    eV        0.000 16.000
                            Buckingham rho  0.14900000    Ang       
                            Buckingham C     10.937044    eV*Ang^6  
--------------------------------------------------------------------------------
O1   c O1   s Spring (c-s)  Spring k 2       180.31577    eV*Ang^-2 0.000  0.800
                            Spring k 4       0.0000000    eV*Ang^-4 
--------------------------------------------------------------------------------
O2   c O2   s Spring (c-s)  Spring k 2       75.969800    eV*Ang^-2 0.000  0.800
                            Spring k 4       0.0000000    eV*Ang^-4 
--------------------------------------------------------------------------------
O3   c O3   s Spring (c-s)  Spring k 2       128.14270    eV*Ang^-2 0.000  0.800
                            Spring k 4       0.0000000    eV*Ang^-4 
--------------------------------------------------------------------------------

  General Three-body potentials :

--------------------------------------------------------------------------------
  Atoms       Potential      Parameter       Value         Units   Cutoffs(Ang)
  1 / 2 / 3                                                          Min /  Max 
--------------------------------------------------------------------------------
Si    core    Harmonic      Three-body cnst  1.2614000    eV*rad^-2 0.000  1.900
O1    shel                  Three-body angl  109.47000    degrees   0.000  1.900
O1    shel                  Three-body k4    0.0000000    eV*rad^-4 0.000  3.500
                            Three-body k3    0.0000000    eV*rad^-3 
--------------------------------------------------------------------------------
Si    core    Harmonic      Three-body cnst  1.2614000    eV*rad^-2 0.000  1.900
O1    shel                  Three-body angl  109.47000    degrees   0.000  1.900
õ(1   shel                  Three-body k4    0.0000000    eV*rad^-4 0.000  3.500
                            Three-body k3    0.0000000    eV*rad^-3 
--------------------------------------------------------------------------------
Si    core    Harmonic      Three-body cnst  1.2614000    eV*rad^-2 0.000  1.900
õ(1   shel                  Three-body angl  109.47000    degrees   0.000  1.900
õ(1   shel                  Three-body k4    0.0000000    eV*rad^-4 0.000  3.500
                            Three-body k3    0.0000000    eV*rad^-3 
--------------------------------------------------------------------------------
Si    core    Harmonic      Three-body cnst  1.2614000    eV*rad^-2 0.000  1.900
O1    shel                  Three-body angl  109.47000    degrees   0.000  1.900
O2    shel                  Three-body k4    0.0000000    eV*rad^-4 0.000  3.500
                            Three-body k3    0.0000000    eV*rad^-3 
--------------------------------------------------------------------------------
Si    core    Harmonic      Three-body cnst  1.2614000    eV*rad^-2 0.000  1.900
O1    shel                  Three-body angl  109.47000    degrees   0.000  1.900
õ(2   shel                  Three-body k4    0.0000000    eV*rad^-4 0.000  3.500
                            Three-body k3    0.0000000    eV*rad^-3 
--------------------------------------------------------------------------------
Si    core    Harmonic      Three-body cnst  1.2614000    eV*rad^-2 0.000  1.900
O2    shel                  Three-body angl  109.47000    degrees   0.000  1.900
õ(1   shel                  Three-body k4    0.0000000    eV*rad^-4 0.000  3.500
                            Three-body k3    0.0000000    eV*rad^-3 
--------------------------------------------------------------------------------
Si    core    Harmonic      Three-body cnst  1.2614000    eV*rad^-2 0.000  1.900
õ(1   shel                  Three-body angl  109.47000    degrees   0.000  1.900
õ(2   shel                  Three-body k4    0.0000000    eV*rad^-4 0.000  3.500
                            Three-body k3    0.0000000    eV*rad^-3 
--------------------------------------------------------------------------------
Si    core    Harmonic      Three-body cnst  1.2614000    eV*rad^-2 0.000  1.900
O2    shel                  Three-body angl  109.47000    degrees   0.000  1.900
O2    shel                  Three-body k4    0.0000000    eV*rad^-4 0.000  3.500
                            Three-body k3    0.0000000    eV*rad^-3 
--------------------------------------------------------------------------------
Si    core    Harmonic      Three-body cnst  1.2614000    eV*rad^-2 0.000  1.900
O2    shel                  Three-body angl  109.47000    degrees   0.000  1.900
õ(2   shel                  Three-body k4    0.0000000    eV*rad^-4 0.000  3.500
                            Three-body k3    0.0000000    eV*rad^-3 
--------------------------------------------------------------------------------
Si    core    Harmonic      Three-body cnst  1.2614000    eV*rad^-2 0.000  1.900
õ(2   shel                  Three-body angl  109.47000    degrees   0.000  1.900
õ(2   shel                  Three-body k4    0.0000000    eV*rad^-4 0.000  3.500
                            Three-body k3    0.0000000    eV*rad^-3 
--------------------------------------------------------------------------------

********************************************************************************
*  Output for configuration   1 : c00130.vasp                                  *
********************************************************************************


  Components of energy : 

--------------------------------------------------------------------------------
  Interatomic potentials     =         400.32034397 eV    
  Three-body potentials      =           0.00001837 eV    
  Monopole - monopole (real) =       -1236.99964305 eV    
  Monopole - monopole (recip)=        -659.26603192 eV    
  Monopole - monopole (total)=       -1896.26567496 eV    
--------------------------------------------------------------------------------
  Total lattice energy       =       -1495.94531262 eV    
--------------------------------------------------------------------------------
  Total lattice energy       =         -144335.8550 kJ/(mole unit cells)
--------------------------------------------------------------------------------


  Number of variables =      183

  Maximum number of calculations  =          1000
  Maximum Hessian update interval =            10
  Maximum step size               =   0.100000000
  Maximum parameter tolerance     =   0.000010000
  Maximum function  tolerance     =   0.000010000
  Maximum gradient  tolerance     =   0.001000000
  Maximum gradient  component     =   0.010000000

  Symmetry not applied to optimisation

  Cell parameters to be optimised using strains

  Newton-Raphson optimiser to be used

  BFGS hessian update to be used

  Lower half triangular hessian to be used

  Minimiser to switch to RFO
  When gradient norm is less than     0.050000

  Dumpfile to be written after every cycle

  Start of bulk optimisation :

  Cycle:      0 Energy:     -1495.945313  Gnorm:      5.584189  CPU:    0.038
  ** Hessian calculated **
  Cycle:      1 Energy:     -1511.977125  Gnorm:      1.413136  CPU:    0.088
  ** Hessian calculated **
  Cycle:      2 Energy:     -1515.389578  Gnorm:      0.677669  CPU:    0.175
  ** Hessian calculated **
  Cycle:      3 Energy:     -1515.760876  Gnorm:      0.385750  CPU:    0.250
  Cycle:      4 Energy:     -1515.945898  Gnorm:      0.263847  CPU:    0.300
  Cycle:      5 Energy:     -1516.137306  Gnorm:      0.211759  CPU:    0.363
  Cycle:      6 Energy:     -1516.318169  Gnorm:      0.188096  CPU:    0.426
  Cycle:      7 Energy:     -1516.418877  Gnorm:      0.141081  CPU:    0.480
  Cycle:      8 Energy:     -1516.476573  Gnorm:      0.115585  CPU:    0.533
  Cycle:      9 Energy:     -1516.506697  Gnorm:      0.084803  CPU:    0.587
  Cycle:     10 Energy:     -1516.521782  Gnorm:      0.063816  CPU:    0.641
  Cycle:     11 Energy:     -1516.531299  Gnorm:      0.053164  CPU:    0.695
  Cycle:     12 Energy:     -1516.541141  Gnorm:      0.053242  CPU:    0.759
  ** Hessian calculated **
  Cycle:     13 Energy:     -1516.550603  Gnorm:      0.051914  CPU:    0.853
  Cycle:     14 Energy:     -1516.566092  Gnorm:      0.049662  CPU:    0.926
  ** Hessian has wrong structure
  ** Imaginary eigenvectors =   3
  ** Hessian has wrong structure
  ** Imaginary eigenvectors =   3
  Cycle:     15 Energy:     -1516.570631  Gnorm:      0.059858  CPU:    1.086
  ** Hessian has wrong structure
  ** Imaginary eigenvectors =   3
  ** Hessian has wrong structure
  ** Imaginary eigenvectors =   3
  Cycle:     16 Energy:     -1516.580037  Gnorm:      0.059894  CPU:    1.288
  ** Hessian has wrong structure
  ** Imaginary eigenvectors =   3
  ** Hessian has wrong structure
  ** Imaginary eigenvectors =   3
  Cycle:     17 Energy:     -1516.596764  Gnorm:      0.060118  CPU:    1.489
  ** Hessian has wrong structure
  ** Imaginary eigenvectors =   3
  ** Hessian has wrong structure
  ** Imaginary eigenvectors =   3
  Cycle:     18 Energy:     -1516.621678  Gnorm:      0.061671  CPU:    1.691
  ** Hessian has wrong structure
  ** Imaginary eigenvectors =   3
  ** Hessian has wrong structure
  ** Imaginary eigenvectors =   2
  Cycle:     19 Energy:     -1516.633493  Gnorm:      0.063046  CPU:    1.860
  ** Hessian has wrong structure
  ** Imaginary eigenvectors =   2
  ** Hessian has wrong structure
  ** Imaginary eigenvectors =   1
  Cycle:     20 Energy:     -1516.648821  Gnorm:      0.070903  CPU:    2.032
  ** Hessian has wrong structure
  ** Imaginary eigenvectors =   1
  Cycle:     21 Energy:     -1516.734096  Gnorm:      0.064534  CPU:    2.205
  ** Hessian has required structure
  Cycle:     22 Energy:     -1516.788652  Gnorm:      0.034991  CPU:    2.308
  ** Hessian has required structure
  Cycle:     23 Energy:     -1516.807633  Gnorm:      0.022151  CPU:    2.380
  ** Hessian has required structure
  Cycle:     24 Energy:     -1516.816937  Gnorm:      0.014953  CPU:    2.453
  ** Hessian has required structure
  Cycle:     25 Energy:     -1516.822033  Gnorm:      0.010115  CPU:    2.526
  ** Hessian has required structure
  Cycle:     26 Energy:     -1516.825433  Gnorm:      0.007787  CPU:    2.599
  ** Hessian has required structure
  Cycle:     27 Energy:     -1516.828844  Gnorm:      0.008797  CPU:    2.674
  ** Hessian has required structure
  Cycle:     28 Energy:     -1516.833244  Gnorm:      0.013026  CPU:    2.747
  ** Hessian has required structure
  Cycle:     29 Energy:     -1516.838565  Gnorm:      0.025257  CPU:    2.810
  ** Hessian has required structure
  Cycle:     30 Energy:     -1516.844032  Gnorm:      0.035699  CPU:    2.873
  ** Hessian has required structure
  Cycle:     31 Energy:     -1516.852417  Gnorm:      0.031365  CPU:    2.946
  ** Hessian has required structure
  Cycle:     32 Energy:     -1516.867407  Gnorm:      0.028037  CPU:    3.050
  ** Hessian has required structure
  Cycle:     33 Energy:     -1516.884507  Gnorm:      0.025456  CPU:    3.123
  ** Hessian has required structure
  Cycle:     34 Energy:     -1516.896949  Gnorm:      0.015138  CPU:    3.186
  ** Hessian has required structure
  Cycle:     35 Energy:     -1516.901418  Gnorm:      0.013107  CPU:    3.250
  ** Hessian has required structure
  Cycle:     36 Energy:     -1516.903877  Gnorm:      0.004010  CPU:    3.313
  ** Hessian has required structure
  Cycle:     37 Energy:     -1516.904629  Gnorm:      0.003999  CPU:    3.376
  ** Hessian has required structure
  Cycle:     38 Energy:     -1516.904871  Gnorm:      0.002080  CPU:    3.449
  ** Hessian has required structure
  Cycle:     39 Energy:     -1516.904946  Gnorm:      0.001925  CPU:    3.512
  ** Hessian has required structure
  Cycle:     40 Energy:     -1516.904991  Gnorm:      0.001169  CPU:    3.575
  ** Hessian has required structure
  Cycle:     41 Energy:     -1516.905013  Gnorm:      0.000660  CPU:    3.647
  ** Hessian has required structure
  Cycle:     42 Energy:     -1516.905023  Gnorm:      0.000401  CPU:    3.738
  ** Hessian has required structure
  Cycle:     43 Energy:     -1516.905025  Gnorm:      0.000323  CPU:    3.798
  ** Hessian has required structure
  Cycle:     44 Energy:     -1516.905025  Gnorm:      0.000319  CPU:    3.868
  ** Hessian has required structure
  Cycle:     45 Energy:     -1516.905025  Gnorm:      0.000317  CPU:    3.917
  ** Hessian has required structure
  Cycle:     46 Energy:     -1516.905025  Gnorm:      0.000316  CPU:    3.967
  ** Hessian has required structure
  Cycle:     47 Energy:     -1516.904970  Gnorm:      0.003623  CPU:    4.076
  ** Hessian has required structure
  Cycle:     48 Energy:     -1516.905012  Gnorm:      0.001813  CPU:    4.175
  ** Hessian has required structure
  Cycle:     49 Energy:     -1516.905022  Gnorm:      0.000908  CPU:    4.248
  ** Hessian has required structure
  Cycle:     50 Energy:     -1516.905025  Gnorm:      0.000636  CPU:    4.299
  ** Hessian has required structure
  Cycle:     51 Energy:     -1516.905026  Gnorm:      0.000445  CPU:    4.349
  ** Hessian has required structure
  Cycle:     52 Energy:     -1516.905027  Gnorm:      0.000311  CPU:    4.396
  ** Hessian has required structure
  Cycle:     53 Energy:     -1516.905027  Gnorm:      0.000218  CPU:    4.446
  ** Hessian has required structure


  **** Optimisation achieved ****


  Final energy =   -1516.90502710 eV      
  Final Gnorm  =       0.00015261

  Components of energy : 

--------------------------------------------------------------------------------
  Interatomic potentials     =         404.05855702 eV    
  Three-body potentials      =           0.04508312 eV    
  Monopole - monopole (real) =        -843.45891193 eV    
  Monopole - monopole (recip)=       -1077.54975531 eV    
  Monopole - monopole (total)=       -1921.00866725 eV    
--------------------------------------------------------------------------------
  Total lattice energy       =       -1516.90502710 eV    
--------------------------------------------------------------------------------
  Total lattice energy       =         -146358.1471 kJ/(mole unit cells)
--------------------------------------------------------------------------------

  Final fractional coordinates of atoms :

--------------------------------------------------------------------------------
   No.  Atomic        x           y          z          Radius
        Label       (Frac)      (Frac)     (Frac)       (Angs) 
--------------------------------------------------------------------------------
     1  Ge    c     0.331050    0.296920    0.607380    0.000000
     2  Ge    c     0.299629    0.708943    0.607671    0.000000
     3  Ge    c     0.866410    0.068763    0.333457    0.000000
     4  Ge    c     0.079342    0.033925    0.138094    0.000000
     5  Si    c     0.316767    0.322540    0.299844    0.000000
     6  Si    c     0.691384    0.355045    0.693908    0.000000
     7  Si    c     0.661246    0.751394    0.693374    0.000000
     8  Si    c     0.286445    0.729299    0.300602    0.000000
     9  Si    c     0.669102    0.370950    0.385018    0.000000
    10  Si    c     0.637559    0.768875    0.383464    0.000000
    11  Si    c     0.102577    0.009605    0.633001    0.000000
    12  Si    c     0.894090    0.046294    0.818651    0.000000
    13  O3    c     0.308359    0.239981    0.441275    0.000000
    14  O2    c     0.694575    0.314971    0.542172    0.000000
    15  O2    c     0.656070    0.809111    0.540580    0.000000
    16  O3    c     0.274530    0.787383    0.444295    0.000000
    17  O2    c     0.257226    0.520540    0.289226    0.000000
    18  O2    c     0.732828    0.558626    0.729277    0.000000
    19  O2    c     0.492273    0.324588    0.297890    0.000000
    20  O3    c     0.523498    0.311904    0.701178    0.000000
    21  O3    c     0.491056    0.747246    0.702866    0.000000
    22  O2    c     0.457717    0.776065    0.294968    0.000000
    23  O3    c     0.210912    0.206371    0.179751    0.000000
    24  O2    c     0.813172    0.233783    0.802503    0.000000
    25  O2    c     0.766448    0.890157    0.799335    0.000000
    26  O3    c     0.162705    0.832836    0.183755    0.000000
    27  O1    c     0.252056    0.494633    0.611807    0.000000
    28  O2    c     0.701867    0.577314    0.374453    0.000000
    29  O3    c     0.245780    0.144453    0.685115    0.000000
    30  O3    c     0.784246    0.269787    0.329896    0.000000
    31  O3    c     0.730215    0.906216    0.323002    0.000000
    32  O3    c     0.171678    0.818915    0.664980    0.000000
    33  O3    c     0.028794    0.047649    0.471350    0.000000
    34  O1    c     0.925154    0.060803    0.192479    0.000000
    35  O2    c     0.970818    0.032498    0.699983    0.000000
    36  O3    c     0.021005    0.031549    0.962127    0.000000
    37  O3    s     0.310936    0.252434    0.440807    0.000000
    38  O2    s     0.691582    0.324967    0.541636    0.000000
    39  O2    s     0.654687    0.798892    0.539950    0.000000
    40  O3    s     0.277681    0.775482    0.443143    0.000000
    41  O2    s     0.266449    0.521821    0.291500    0.000000
    42  O2    s     0.721223    0.557232    0.721903    0.000000
    43  O2    s     0.492413    0.329238    0.307153    0.000000
    44  O3    s     0.524860    0.315074    0.692745    0.000000
    45  O3    s     0.493087    0.744685    0.694479    0.000000
    46  O2    s     0.459140    0.770469    0.304888    0.000000
    47  O3    s     0.211493    0.204744    0.189109    0.000000
    48  O2    s     0.808407    0.227435    0.792475    0.000000
    49  O2    s     0.768201    0.891279    0.789834    0.000000
    50  O3    s     0.168976    0.838074    0.192380    0.000000
    51  O1    s     0.262025    0.496654    0.611135    0.000000
    52  O2    s     0.691688    0.575444    0.376540    0.000000
    53  O3    s     0.239019    0.144072    0.673632    0.000000
    54  O3    s     0.778660    0.264405    0.336017    0.000000
    55  O3    s     0.731605    0.904968    0.330466    0.000000
    56  O3    s     0.175188    0.828913    0.657247    0.000000
    57  O3    s     0.022136    0.045913    0.475099    0.000000
    58  O1    s     0.932881    0.059272    0.199075    0.000000
    59  O2    s     0.977502    0.031342    0.705210    0.000000
    60  O3    s     0.011740    0.033397    0.960804    0.000000
--------------------------------------------------------------------------------

  Final Cartesian lattice vectors (Angstroms) :

        9.175304   -0.136098    0.004706
       -0.111220    7.676451    0.050178
       -3.322584    0.117972    9.787902


  Final cell parameters and derivatives :

--------------------------------------------------------------------------------
       a            9.176315 Angstrom     dE/de1(xx)     0.009151 eV/strain
       b            7.677421 Angstrom     dE/de2(yy)     0.009197 eV/strain
       c           10.337142 Angstrom     dE/de3(zz)    -0.000172 eV/strain
       alpha       88.724727 Degrees      dE/de4(yz)    -0.000703 eV/strain
       beta       108.727656 Degrees      dE/de5(xz)     0.001752 eV/strain
       gamma       91.679654 Degrees      dE/de6(xy)     0.005001 eV/strain
--------------------------------------------------------------------------------

  Primitive cell volume =           689.339135 Angs**3

  Density of cell =      2.166008 g/cm**3

  Non-primitive cell volume =           689.339135 Angs**3


  Final internal derivatives :

--------------------------------------------------------------------------------
   No.  Atomic          a             b             c           Radius
        Label          (eV)          (eV)          (eV)        (eV/Angs)
--------------------------------------------------------------------------------
      1 Ge    c       0.000000      0.000000      0.000000      0.000000
      2 Ge    c      -0.001959      0.003204     -0.000620      0.000000
      3 Ge    c       0.003612      0.003388     -0.002207      0.000000
      4 Ge    c      -0.001943     -0.001916     -0.003125      0.000000
      5 Si    c      -0.001627      0.000414      0.001397      0.000000
      6 Si    c       0.004066     -0.001402     -0.003346      0.000000
      7 Si    c       0.001455     -0.000437     -0.001735      0.000000
      8 Si    c      -0.003575      0.001430      0.003404      0.000000
      9 Si    c       0.002741     -0.002813      0.000632      0.000000
     10 Si    c      -0.002372     -0.002154      0.004977      0.000000
     11 Si    c      -0.003772     -0.002834     -0.000164      0.000000
     12 Si    c       0.003334      0.002093      0.000855      0.000000
     13 O3    c      -0.000576      0.000425      0.004622      0.000000
     14 O2    c      -0.000649      0.000508      0.001839      0.000000
     15 O2    c       0.000398     -0.000336     -0.002238      0.000000
     16 O3    c       0.001485     -0.000976     -0.004068      0.000000
     17 O2    c      -0.000137     -0.002092     -0.000257      0.000000
     18 O2    c       0.000393      0.001608      0.000842      0.000000
     19 O2    c       0.000381     -0.000384     -0.001681      0.000000
     20 O3    c      -0.004030     -0.000625      0.003601      0.000000
     21 O3    c      -0.001075      0.000393      0.002652      0.000000
     22 O2    c       0.002271      0.000550     -0.002097      0.000000
     23 O3    c       0.003708      0.003530     -0.000576      0.000000
     24 O2    c      -0.000175      0.000096      0.000685      0.000000
     25 O2    c      -0.002989     -0.002390      0.001349      0.000000
     26 O3    c       0.000515     -0.000877     -0.000638      0.000000
     27 O1    c      -0.001400     -0.005790      0.000947      0.000000
     28 O2    c       0.000599      0.002818     -0.000651      0.000000
     29 O3    c       0.001393     -0.000173      0.005710      0.000000
     30 O3    c      -0.001904      0.000896      0.001186      0.000000
     31 O3    c       0.000051     -0.000007     -0.004175      0.000000
     32 O3    c       0.001982     -0.001981     -0.000485      0.000000
     33 O3    c       0.000505     -0.000494      0.001188      0.000000
     34 O1    c      -0.003107      0.000429      0.002996      0.000000
     35 O2    c      -0.001218      0.000129      0.001297      0.000000
     36 O3    c      -0.000333     -0.000067      0.002202      0.000000
     37 O3    s       0.000096     -0.000353     -0.002094      0.000000
     38 O2    s       0.000098     -0.000633     -0.000587      0.000000
     39 O2    s      -0.000051      0.000119      0.000412      0.000000
     40 O3    s      -0.000826      0.000764      0.001814      0.000000
     41 O2    s      -0.000780      0.000428      0.000493      0.000000
     42 O2    s       0.000840      0.000003     -0.000773      0.000000
     43 O2    s      -0.000402     -0.000077      0.000607      0.000000
     44 O3    s       0.001323     -0.000188     -0.002307      0.000000
     45 O3    s       0.000570     -0.000022     -0.001334      0.000000
     46 O2    s      -0.000535      0.000243      0.001259      0.000000
     47 O3    s      -0.001741     -0.001545      0.000432      0.000000
     48 O2    s       0.000842      0.000229     -0.000943      0.000000
     49 O2    s       0.000592      0.000548     -0.000569      0.000000
     50 O3    s      -0.000915      0.000219      0.000855      0.000000
     51 O1    s       0.000125      0.002645     -0.000922      0.000000
     52 O2    s       0.000442     -0.000339      0.000526      0.000000
     53 O3    s      -0.000267      0.000629     -0.002961      0.000000
     54 O3    s       0.001725      0.000140     -0.000637      0.000000
     55 O3    s       0.000044      0.000109      0.002035      0.000000
     56 O3    s      -0.001730     -0.000307      0.000364      0.000000
     57 O3    s       0.000080      0.000872     -0.000973      0.000000
     58 O1    s       0.001534     -0.000231     -0.001533      0.000000
     59 O2    s       0.000152      0.000192     -0.000507      0.000000
     60 O3    s       0.000738      0.000220     -0.001417      0.000000
--------------------------------------------------------------------------------
  Maximum abs         0.004066      0.005790      0.005710      0.000000
--------------------------------------------------------------------------------


  Born effective charge tensors : 

-------------------------------------------------------------------------------
  Atom             x           y             z
-------------------------------------------------------------------------------
    1 Ge    x       4.0466      0.3799     -0.0073
            y       0.1330      4.1575     -0.1944
            z      -0.0272      0.1133      3.2594
-------------------------------------------------------------------------------
    2 Ge    x       4.1068     -0.2126      0.0371
            y      -0.3218      4.1874      0.1759
            z      -0.0516     -0.1018      3.2295
-------------------------------------------------------------------------------
    3 Ge    x       4.5544     -0.1883     -0.3049
            y       0.0777      3.9697      0.0517
            z      -0.3231      0.0215      3.7416
-------------------------------------------------------------------------------
    4 Ge    x       4.0995     -0.1713      0.1829
            y       0.0741      3.9385      0.0055
            z      -0.0141      0.0395      4.7524
-------------------------------------------------------------------------------
    5 Si    x       3.2477      0.4011      0.2133
            y       0.2032      3.6461      0.3717
            z       0.2730      0.2005      3.4057
-------------------------------------------------------------------------------
    6 Si    x       3.4252     -0.1628      0.1240
            y      -0.1196      3.5017     -0.2734
            z       0.1995     -0.1218      2.8796
-------------------------------------------------------------------------------
    7 Si    x       3.4635      0.3057      0.1380
            y       0.0584      3.4749      0.2273
            z       0.1885      0.1485      2.8846
-------------------------------------------------------------------------------
    8 Si    x       3.3026     -0.3437      0.1871
            y      -0.3474      3.5973     -0.3782
            z       0.3258     -0.1637      3.4054
-------------------------------------------------------------------------------
    9 Si    x       3.5322     -0.3722     -0.0868
            y      -0.4947      3.5216      0.2033
            z      -0.1172      0.0416      2.7789
-------------------------------------------------------------------------------
   10 Si    x       3.4171      0.4802     -0.0808
            y       0.3576      3.6177     -0.2280
            z      -0.0981     -0.0556      2.7995
-------------------------------------------------------------------------------
   11 Si    x       3.9985     -0.2182      0.3501
            y       0.1362      3.6746     -0.0302
            z      -0.3440     -0.0458      3.1669
-------------------------------------------------------------------------------
   12 Si    x       3.3082     -0.1218      0.0226
            y       0.0687      3.2857      0.0288
            z       0.7109     -0.0974      4.1762
-------------------------------------------------------------------------------
   13 O3    x      -1.4558     -0.1961      0.3995
            y      -0.1530     -1.5072      0.1853
            z       0.3663      0.1187     -2.3904
-------------------------------------------------------------------------------
   14 O2    x      -1.2218      0.0959      0.2062
            y       0.0863     -1.3005      0.0745
            z       0.1973      0.0688     -2.0066
-------------------------------------------------------------------------------
   15 O2    x      -1.2157     -0.1106      0.1879
            y      -0.0585     -1.3014     -0.0201
            z       0.1929     -0.0210     -2.0178
-------------------------------------------------------------------------------
   16 O3    x      -1.4799      0.1562      0.4447
            y       0.1640     -1.4644     -0.0961
            z       0.3926     -0.0171     -2.4089
-------------------------------------------------------------------------------
   17 O2    x      -1.1952      0.0818     -0.0586
            y       0.1400     -2.5105     -0.0121
            z      -0.0930     -0.0193     -1.1030
-------------------------------------------------------------------------------
   18 O2    x      -1.1366      0.0773     -0.0695
            y       0.1439     -2.5272     -0.0054
            z      -0.0839     -0.0140     -1.1075
-------------------------------------------------------------------------------
   19 O2    x      -2.2112     -0.1049     -0.3353
            y      -0.0594     -1.2574     -0.1045
            z      -0.3607     -0.0769     -1.2100
-------------------------------------------------------------------------------
   20 O3    x      -2.9017     -0.2551     -0.3882
            y      -0.2181     -1.3831      0.0369
            z      -0.3678     -0.0228     -1.3042
-------------------------------------------------------------------------------
   21 O3    x      -2.9515     -0.1240     -0.3651
            y      -0.0155     -1.3399     -0.0894
            z      -0.3471     -0.0582     -1.3130
-------------------------------------------------------------------------------
   22 O2    x      -2.1972     -0.1078     -0.3418
            y      -0.0662     -1.2615      0.0589
            z      -0.3586      0.0116     -1.2112
-------------------------------------------------------------------------------
   23 O3    x      -1.7113     -0.7313     -0.5683
            y      -0.7317     -2.2604     -0.7845
            z      -0.6096     -0.8148     -2.0108
-------------------------------------------------------------------------------
   24 O2    x      -1.4346      0.6135     -0.2744
            y       0.5276     -2.0534      0.4343
            z      -0.3471      0.4518     -1.4842
-------------------------------------------------------------------------------
   25 O2    x      -1.5221     -0.6002     -0.2691
            y      -0.5831     -1.9565     -0.4545
            z      -0.3598     -0.4587     -1.4909
-------------------------------------------------------------------------------
   26 O3    x      -1.6738      0.7483     -0.5848
            y       0.6794     -2.3351      0.7687
            z      -0.6092      0.8032     -1.9774
-------------------------------------------------------------------------------
   27 O1    x      -1.5657      0.1067      0.0137
            y       0.1785     -3.2774     -0.0218
            z       0.0523     -0.0192     -1.1591
-------------------------------------------------------------------------------
   28 O2    x      -1.2556      0.0733      0.0137
            y       0.1313     -2.4550     -0.0048
            z       0.0415     -0.0074     -1.0120
-------------------------------------------------------------------------------
   29 O3    x      -2.3205     -0.9475      0.0142
            y      -0.9612     -2.1737      0.0679
            z       0.1007      0.0225     -1.2837
-------------------------------------------------------------------------------
   30 O3    x      -2.3315      1.0387      0.3323
            y       1.0089     -2.3732     -0.2751
            z       0.3245     -0.2201     -1.2426
-------------------------------------------------------------------------------
   31 O3    x      -2.3318     -1.0744      0.2882
            y      -1.1064     -2.3859      0.2883
            z       0.2840      0.2422     -1.2542
-------------------------------------------------------------------------------
   32 O3    x      -2.1431      0.9320      0.1056
            y       0.8844     -2.4469     -0.0520
            z       0.2310     -0.0423     -1.2029
-------------------------------------------------------------------------------
   33 O3    x      -1.8019      0.1148     -0.6170
            y       0.0143     -1.3090      0.1766
            z      -0.3283      0.2087     -2.4683
-------------------------------------------------------------------------------
   34 O1    x      -2.8669      0.2166      1.0090
            y       0.1035     -1.3177     -0.0834
            z       1.0127     -0.1200     -2.3055
-------------------------------------------------------------------------------
   35 O2    x      -2.1776      0.1579      0.6120
            y       0.0720     -1.1537     -0.0777
            z       0.6174     -0.0808     -1.6260
-------------------------------------------------------------------------------
   36 O3    x      -1.3994      0.0632     -0.5303
            y      -0.0063     -1.2218      0.0299
            z      -0.6701      0.0865     -3.8896
-------------------------------------------------------------------------------




  Elastic Constant Matrix: (Units=GPa)

-------------------------------------------------------------------------------
  Indices      1         2         3         4         5         6    
-------------------------------------------------------------------------------
       1     41.1204   19.0690    9.3377    0.2743    0.7689  -16.1004
       2     19.0690   61.6737   15.1781    0.1004    5.8668  -20.6920
       3      9.3377   15.1781   30.0268   -0.2041   11.8840   -2.9177
       4      0.2743    0.1004   -0.2041   12.3153    0.0061    4.9336
       5      0.7689    5.8668   11.8840    0.0061   13.6365   -0.7707
       6    -16.1004  -20.6920   -2.9177    4.9336   -0.7707   23.6892
-------------------------------------------------------------------------------


  Elastic Compliance Matrix: (Units=1/GPa)

-------------------------------------------------------------------------------
  Indices      1         2         3         4         5         6    
-------------------------------------------------------------------------------
       1    0.037825 -0.000621 -0.013471 -0.011599  0.011365  0.026291
       2   -0.000621  0.027312 -0.011052 -0.010064 -0.000715  0.024146
       3   -0.013471 -0.011052  0.060864  0.007184 -0.048344 -0.014382
       4   -0.011599 -0.010064  0.007184  0.096043 -0.003349 -0.035901
       5    0.011365 -0.000715 -0.048344 -0.003349  0.115448  0.005599
       6    0.026291  0.024146 -0.014382 -0.035901  0.005599  0.087061
-------------------------------------------------------------------------------

  Mechanical properties :

-------------------------------------------------------------------------------
  Convention :                    Reuss         Voigt         Hill
-------------------------------------------------------------------------------
  Bulk  Modulus (GPa)     =      13.20781      24.44338      18.82560
  Shear Modulus (GPa)     =       9.99845      15.87728      12.93786
-------------------------------------------------------------------------------
  Velocity S-wave (km/s)  =       2.14850       2.70744       2.44400
  Velocity P-wave (km/s)  =       3.50036       4.58896       4.08112
-------------------------------------------------------------------------------
  Compressibility (1/GPa) =    0.07571278
-------------------------------------------------------------------------------
  Stress axis :                     x             y             z
-------------------------------------------------------------------------------
  Youngs Moduli (GPa)     =      26.43759      36.61439      16.43004
-------------------------------------------------------------------------------
  Poissons Ratio (x)      =                     0.02274       0.22133
  Poissons Ratio (y)      =       0.01642                     0.18158
  Poissons Ratio (z)      =       0.35614       0.40466
-------------------------------------------------------------------------------


  Piezoelectric Strain Matrix: (Units=C/m**2)

-------------------------------------------------------------------------------
  Indices      1         2         3         4         5         6    
-------------------------------------------------------------------------------
       x    -0.46440  -0.45787   0.24821   0.04220   0.36338   0.11275
       y     1.87330   1.82115   0.36054   0.26344   0.28197  -0.13959
       z     0.13160   0.15602  -0.99303  -0.09538   0.49601  -0.38611
-------------------------------------------------------------------------------


  Piezoelectric Stress Matrix: (Units=10**-11 C/N)

-------------------------------------------------------------------------------
  Indices      1         2         3         4         5         6    
-------------------------------------------------------------------------------
       x    -1.40204  -1.29217   0.75380   1.05658   2.54906  -1.64990
       y     6.13486   3.83671  -3.31498  -0.80985   3.34487   6.80079
       z     1.48502   0.64368  -8.30483  -0.71901  10.48121  -0.59052
-------------------------------------------------------------------------------


  Static dielectric constant tensor : 

-------------------------------------------------------------------------------
              x         y         z
-------------------------------------------------------------------------------
       x     4.49200  -0.13656   0.12366
       y    -0.13656   4.73561   0.04415
       z     0.12366   0.04415   3.72313
--------------------------------------------------------------------------------

  High frequency dielectric constant tensor : 

-------------------------------------------------------------------------------
              x         y         z
-------------------------------------------------------------------------------
       x     1.62467  -0.00292   0.01196
       y    -0.00292   1.63589   0.00043
       z     0.01196   0.00043   1.57643
-------------------------------------------------------------------------------

  Static refractive indices : 

-------------------------------------------------------------------------------
    1 =    1.92343      2 =    2.11051      3 =    2.19018
-------------------------------------------------------------------------------

  High frequency refractive indices : 

-------------------------------------------------------------------------------
    1 =    1.25443      2 =    1.27540      3 =    1.27934
-------------------------------------------------------------------------------


  Time to end of optimisation =       4.5558 seconds


  Peak dynamic memory used =       2.76 MB 


  Timing analysis for GULP :

--------------------------------------------------------------------------------
  Task / Subroutine                                          Time (Seconds)
--------------------------------------------------------------------------------
  Calculation of reciprocal space energy and derivatives          0.2608
  Calculation of real space energy and derivatives                3.7797
  Calculation of three-body energy and derivatives                0.0938
  Calculation and manipulation of Hessian matrix                  0.8459
  Calculation of matrix inversion                                 0.0036
  Global summation overhead                                       0.0001
--------------------------------------------------------------------------------
  Total CPU time                                                  4.5558
--------------------------------------------------------------------------------


  Dump file written as c00130.vasp.grs
  CIF file written as c00130.vasp.cif


  Job Finished at 22:43.49  6th October    2025                               

