********************************************************************************
*                       GENERAL UTILITY LATTICE PROGRAM                        *
*                                 Julian Gale                                  *
*                       Curtin Institute for Computation                       *
*                    School of Molecular and Life Sciences                     *
*                    Curtin University, Western Australia                      *
********************************************************************************
* Version = 6.1.2 * Last modified =   3rd November 2022                        *
********************************************************************************
*  optimise     - perform optimisation run                                     *
*  conp         - constant pressure calculation                                *
*  property     - calculate properties for final geometry                      *
********************************************************************************

  Job Started  at 22:42.07  6th October    2025                               

  Number of CPUs =     1


  Total number of configurations input =      1

********************************************************************************
*  Input for Configuration =   1 : c00100.vasp                                 *
********************************************************************************

  Formula = Ge4Si8O24                                                   

  Number of irreducible atoms/shells =      60


  Total number atoms/shells =      60

  Dimensionality = 3               :  Bulk   



  Cartesian lattice vectors (Angstroms) :

        9.086940    0.000000    0.000000
        0.000000    7.554810    0.000000
       -3.295144    0.000000    9.944380

  Cell parameters (Angstroms/Degrees):

  a =       9.0869    alpha =  90.0000
  b =       7.5548    beta  = 108.3330
  c =      10.4761    gamma =  90.0000

  Initial cell volume =         682.682735 Angs**3

  Temperature of configuration =   0.00     K 

  Pressure of configuration =         0.000 GPa 

  Fractional coordinates of asymmetric unit :

--------------------------------------------------------------------------------
   No.  Atomic       x           y          z         Charge      Occupancy
        Label      (Frac)      (Frac)     (Frac)        (e)         (Frac)  
--------------------------------------------------------------------------------
      1 Ge    c    0.313820    0.296860    0.309830     4.00000    1.000000    
      2 Ge    c    0.668950 *  0.703080 *  0.392620 *   4.00000    1.000000    
      3 Ge    c    0.879680 *  0.000000 *  0.350160 *   4.00000    1.000000    
      4 Ge    c    0.120320 *  0.000000 *  0.649840 *   4.00000    1.000000    
      5 Si    c    0.686180 *  0.296860 *  0.690170 *   4.00000    1.000000    
      6 Si    c    0.686180 *  0.703140 *  0.690170 *   4.00000    1.000000    
      7 Si    c    0.313820 *  0.703140 *  0.309830 *   4.00000    1.000000    
      8 Si    c    0.331050 *  0.296920 *  0.607380 *   4.00000    1.000000    
      9 Si    c    0.668950 *  0.296920 *  0.392620 *   4.00000    1.000000    
     10 Si    c    0.331050 *  0.703080 *  0.607380 *   4.00000    1.000000    
     11 Si    c    0.093070 *  0.000000 *  0.158230 *   4.00000    1.000000    
     12 Si    c    0.906930 *  0.000000 *  0.841770 *   4.00000    1.000000    
     13 O3    c    0.268740 *  0.279030 *  0.446100 *   1.33043    1.000000    
     14 O2    c    0.731260 *  0.279030 *  0.553900 *   0.87073    1.000000    
     15 O3    c    0.731260 *  0.720970 *  0.553900 *   1.33043    1.000000    
     16 O2    c    0.268740 *  0.720970 *  0.446100 *   0.87073    1.000000    
     17 O3    c    0.295480 *  0.500000 *  0.260860 *   1.33043    1.000000    
     18 O2    c    0.704520 *  0.500000 *  0.739140 *   0.87073    1.000000    
     19 O3    c    0.490600 *  0.234690 *  0.337530 *   1.33043    1.000000    
     20 O2    c    0.509400 *  0.234690 *  0.662470 *   0.87073    1.000000    
     21 O2    c    0.509400 *  0.765310 *  0.662470 *   0.87073    1.000000    
     22 O3    c    0.490600 *  0.765310 *  0.337530 *   1.33043    1.000000    
     23 O3    c    0.200440 *  0.174000 *  0.194980 *   1.33043    1.000000    
     24 O2    c    0.799560 *  0.174000 *  0.805020 *   0.87073    1.000000    
     25 O2    c    0.799560 *  0.826000 *  0.805020 *   0.87073    1.000000    
     26 O2    c    0.200440 *  0.826000 *  0.194980 *   0.87073    1.000000    
     27 O2    c    0.317860 *  0.500000 *  0.649090 *   0.87073    1.000000    
     28 O3    c    0.682140 *  0.500000 *  0.350910 *   1.33043    1.000000    
     29 O3    c    0.227920 *  0.173870 *  0.671620 *   1.33043    1.000000    
     30 O3    c    0.772080 *  0.173870 *  0.328380 *   1.33043    1.000000    
     31 O1    c    0.772080 *  0.826130 *  0.328380 *   1.73396    1.000000    
     32 O3    c    0.227920 *  0.826130 *  0.671620 *   1.33043    1.000000    
     33 O1    c    0.000000 *  0.000000 *  0.500000 *   1.73396    1.000000    
     34 O3    c    0.971960 *  0.000000 *  0.241930 *   1.33043    1.000000    
     35 O3    c    0.028040 *  0.000000 *  0.758070 *   1.33043    1.000000    
     36 O2    c    0.000000 *  0.000000 *  0.000000 *   0.87073    1.000000    
     37 O3    s    0.268740 *  0.279030 *  0.446100 *  -3.33043    1.000000    
     38 O2    s    0.731260 *  0.279030 *  0.553900 *  -2.87073    1.000000    
     39 O3    s    0.731260 *  0.720970 *  0.553900 *  -3.33043    1.000000    
     40 O2    s    0.268740 *  0.720970 *  0.446100 *  -2.87073    1.000000    
     41 O3    s    0.295480 *  0.500000 *  0.260860 *  -3.33043    1.000000    
     42 O2    s    0.704520 *  0.500000 *  0.739140 *  -2.87073    1.000000    
     43 O3    s    0.490600 *  0.234690 *  0.337530 *  -3.33043    1.000000    
     44 O2    s    0.509400 *  0.234690 *  0.662470 *  -2.87073    1.000000    
     45 O2    s    0.509400 *  0.765310 *  0.662470 *  -2.87073    1.000000    
     46 O3    s    0.490600 *  0.765310 *  0.337530 *  -3.33043    1.000000    
     47 O3    s    0.200440 *  0.174000 *  0.194980 *  -3.33043    1.000000    
     48 O2    s    0.799560 *  0.174000 *  0.805020 *  -2.87073    1.000000    
     49 O2    s    0.799560 *  0.826000 *  0.805020 *  -2.87073    1.000000    
     50 O2    s    0.200440 *  0.826000 *  0.194980 *  -2.87073    1.000000    
     51 O2    s    0.317860 *  0.500000 *  0.649090 *  -2.87073    1.000000    
     52 O3    s    0.682140 *  0.500000 *  0.350910 *  -3.33043    1.000000    
     53 O3    s    0.227920 *  0.173870 *  0.671620 *  -3.33043    1.000000    
     54 O3    s    0.772080 *  0.173870 *  0.328380 *  -3.33043    1.000000    
     55 O1    s    0.772080 *  0.826130 *  0.328380 *  -3.73396    1.000000    
     56 O3    s    0.227920 *  0.826130 *  0.671620 *  -3.33043    1.000000    
     57 O1    s    0.000000 *  0.000000 *  0.500000 *  -3.73396    1.000000    
     58 O3    s    0.971960 *  0.000000 *  0.241930 *  -3.33043    1.000000    
     59 O3    s    0.028040 *  0.000000 *  0.758070 *  -3.33043    1.000000    
     60 O2    s    0.000000 *  0.000000 *  0.000000 *  -2.87073    1.000000    
--------------------------------------------------------------------------------



********************************************************************************
*  General input information                                                   *
********************************************************************************

  Species output for all configurations : 

--------------------------------------------------------------------------------
  Species    Type    Atomic    Atomic    Charge       Radii (Angs)     Library
                     Number     Mass       (e)     Cova   Ionic  VDW   Symbol
--------------------------------------------------------------------------------
    Ge       Core       32      72.61   4.000000   1.170  0.000  1.750 Ge       
    Si       Core       14      28.09   4.000000   1.200  0.000  2.100 Si       
    O1       Core        8      16.00   1.733957   0.730  0.000  1.360 O1       
    O2       Core        8      16.00   0.870733   0.730  0.000  1.360 O2       
    O3       Core        8      16.00   1.330431   0.730  0.000  1.360 O3       
    O1       Shell       8       0.00  -3.733957   0.730  0.000  0.000 O1       
    O2       Shell       8       0.00  -2.870733   0.730  0.000  0.000 O2       
    O3       Shell       8       0.00  -3.330431   0.730  0.000  0.000 O3       
--------------------------------------------------------------------------------


  Lattice summation method               =    Ewald          (3-D)
                                         =    Parry          (2-D)
                                         =    Saunders et al (1-D)
  Accuracy factor for lattice sums       =   12.000


  Analytic derivatives to be used

  Time limit = Infinity

  Maximum range for interatomic potentials =    100000.000000 Angstroms

  General interatomic potentials :

--------------------------------------------------------------------------------
Atom  Types   Potential      Parameter       Value         Units   Cutoffs(Ang)
  1     2                                                            Min /  Max 
--------------------------------------------------------------------------------
Si   c O1   s Buckingham    Buckingham A     1315.2478    eV        0.000 16.000
                            Buckingham rho  0.31775900    Ang       
                            Buckingham C     10.141118    eV*Ang^6  
--------------------------------------------------------------------------------
Si   c O2   s Buckingham    Buckingham A     1315.2478    eV        0.000 16.000
                            Buckingham rho  0.31775900    Ang       
                            Buckingham C     10.141118    eV*Ang^6  
--------------------------------------------------------------------------------
Si   c O3   s Buckingham    Buckingham A     1315.2478    eV        0.000 16.000
                            Buckingham rho  0.31775900    Ang       
                            Buckingham C     10.141118    eV*Ang^6  
--------------------------------------------------------------------------------
Ge   c O1   s Buckingham    Buckingham A     1497.3996    eV        0.000 16.000
                            Buckingham rho  0.32564600    Ang       
                            Buckingham C     16.808599    eV*Ang^6  
--------------------------------------------------------------------------------
Ge   c O2   s Buckingham    Buckingham A     1497.3996    eV        0.000 16.000
                            Buckingham rho  0.32564600    Ang       
                            Buckingham C     16.808599    eV*Ang^6  
--------------------------------------------------------------------------------
Ge   c O3   s Buckingham    Buckingham A     1497.3996    eV        0.000 16.000
                            Buckingham rho  0.32564600    Ang       
                            Buckingham C     16.808599    eV*Ang^6  
--------------------------------------------------------------------------------
O1   s O1   s Buckingham    Buckingham A     22764.000    eV        0.000 16.000
                            Buckingham rho  0.14900000    Ang       
                            Buckingham C     10.937044    eV*Ang^6  
--------------------------------------------------------------------------------
O1   s O2   s Buckingham    Buckingham A     22764.000    eV        0.000 16.000
                            Buckingham rho  0.14900000    Ang       
                            Buckingham C     10.937044    eV*Ang^6  
--------------------------------------------------------------------------------
O1   s O3   s Buckingham    Buckingham A     22764.000    eV        0.000 16.000
                            Buckingham rho  0.14900000    Ang       
                            Buckingham C     10.937044    eV*Ang^6  
--------------------------------------------------------------------------------
O2   s O2   s Buckingham    Buckingham A     22764.000    eV        0.000 16.000
                            Buckingham rho  0.14900000    Ang       
                            Buckingham C     10.937044    eV*Ang^6  
--------------------------------------------------------------------------------
O2   s O3   s Buckingham    Buckingham A     22764.000    eV        0.000 16.000
                            Buckingham rho  0.14900000    Ang       
                            Buckingham C     10.937044    eV*Ang^6  
--------------------------------------------------------------------------------
O3   s O3   s Buckingham    Buckingham A     22764.000    eV        0.000 16.000
                            Buckingham rho  0.14900000    Ang       
                            Buckingham C     10.937044    eV*Ang^6  
--------------------------------------------------------------------------------
O1   c O1   s Spring (c-s)  Spring k 2       180.31577    eV*Ang^-2 0.000  0.800
                            Spring k 4       0.0000000    eV*Ang^-4 
--------------------------------------------------------------------------------
O2   c O2   s Spring (c-s)  Spring k 2       75.969800    eV*Ang^-2 0.000  0.800
                            Spring k 4       0.0000000    eV*Ang^-4 
--------------------------------------------------------------------------------
O3   c O3   s Spring (c-s)  Spring k 2       128.14270    eV*Ang^-2 0.000  0.800
                            Spring k 4       0.0000000    eV*Ang^-4 
--------------------------------------------------------------------------------

  General Three-body potentials :

--------------------------------------------------------------------------------
  Atoms       Potential      Parameter       Value         Units   Cutoffs(Ang)
  1 / 2 / 3                                                          Min /  Max 
--------------------------------------------------------------------------------
Si    core    Harmonic      Three-body cnst  1.2614000    eV*rad^-2 0.000  1.900
O1    shel                  Three-body angl  109.47000    degrees   0.000  1.900
O1    shel                  Three-body k4    0.0000000    eV*rad^-4 0.000  3.500
                            Three-body k3    0.0000000    eV*rad^-3 
--------------------------------------------------------------------------------
Si    core    Harmonic      Three-body cnst  1.2614000    eV*rad^-2 0.000  1.900
O1    shel                  Three-body angl  109.47000    degrees   0.000  1.900
õ(1   shel                  Three-body k4    0.0000000    eV*rad^-4 0.000  3.500
                            Three-body k3    0.0000000    eV*rad^-3 
--------------------------------------------------------------------------------
Si    core    Harmonic      Three-body cnst  1.2614000    eV*rad^-2 0.000  1.900
õ(1   shel                  Three-body angl  109.47000    degrees   0.000  1.900
õ(1   shel                  Three-body k4    0.0000000    eV*rad^-4 0.000  3.500
                            Three-body k3    0.0000000    eV*rad^-3 
--------------------------------------------------------------------------------
Si    core    Harmonic      Three-body cnst  1.2614000    eV*rad^-2 0.000  1.900
O1    shel                  Three-body angl  109.47000    degrees   0.000  1.900
O2    shel                  Three-body k4    0.0000000    eV*rad^-4 0.000  3.500
                            Three-body k3    0.0000000    eV*rad^-3 
--------------------------------------------------------------------------------
Si    core    Harmonic      Three-body cnst  1.2614000    eV*rad^-2 0.000  1.900
O1    shel                  Three-body angl  109.47000    degrees   0.000  1.900
õ(2   shel                  Three-body k4    0.0000000    eV*rad^-4 0.000  3.500
                            Three-body k3    0.0000000    eV*rad^-3 
--------------------------------------------------------------------------------
Si    core    Harmonic      Three-body cnst  1.2614000    eV*rad^-2 0.000  1.900
O2    shel                  Three-body angl  109.47000    degrees   0.000  1.900
õ(1   shel                  Three-body k4    0.0000000    eV*rad^-4 0.000  3.500
                            Three-body k3    0.0000000    eV*rad^-3 
--------------------------------------------------------------------------------
Si    core    Harmonic      Three-body cnst  1.2614000    eV*rad^-2 0.000  1.900
õ(1   shel                  Three-body angl  109.47000    degrees   0.000  1.900
õ(2   shel                  Three-body k4    0.0000000    eV*rad^-4 0.000  3.500
                            Three-body k3    0.0000000    eV*rad^-3 
--------------------------------------------------------------------------------
Si    core    Harmonic      Three-body cnst  1.2614000    eV*rad^-2 0.000  1.900
O2    shel                  Three-body angl  109.47000    degrees   0.000  1.900
O2    shel                  Three-body k4    0.0000000    eV*rad^-4 0.000  3.500
                            Three-body k3    0.0000000    eV*rad^-3 
--------------------------------------------------------------------------------
Si    core    Harmonic      Three-body cnst  1.2614000    eV*rad^-2 0.000  1.900
O2    shel                  Three-body angl  109.47000    degrees   0.000  1.900
õ(2   shel                  Three-body k4    0.0000000    eV*rad^-4 0.000  3.500
                            Three-body k3    0.0000000    eV*rad^-3 
--------------------------------------------------------------------------------
Si    core    Harmonic      Three-body cnst  1.2614000    eV*rad^-2 0.000  1.900
õ(2   shel                  Three-body angl  109.47000    degrees   0.000  1.900
õ(2   shel                  Three-body k4    0.0000000    eV*rad^-4 0.000  3.500
                            Three-body k3    0.0000000    eV*rad^-3 
--------------------------------------------------------------------------------

********************************************************************************
*  Output for configuration   1 : c00100.vasp                                  *
********************************************************************************


  Components of energy : 

--------------------------------------------------------------------------------
  Interatomic potentials     =         400.32338886 eV    
  Three-body potentials      =           0.00003359 eV    
  Monopole - monopole (real) =       -1236.99964305 eV    
  Monopole - monopole (recip)=        -659.26603192 eV    
  Monopole - monopole (total)=       -1896.26567496 eV    
--------------------------------------------------------------------------------
  Total lattice energy       =       -1495.94225251 eV    
--------------------------------------------------------------------------------
  Total lattice energy       =         -144335.5598 kJ/(mole unit cells)
--------------------------------------------------------------------------------


  Number of variables =      183

  Maximum number of calculations  =          1000
  Maximum Hessian update interval =            10
  Maximum step size               =   0.100000000
  Maximum parameter tolerance     =   0.000010000
  Maximum function  tolerance     =   0.000010000
  Maximum gradient  tolerance     =   0.001000000
  Maximum gradient  component     =   0.010000000

  Symmetry not applied to optimisation

  Cell parameters to be optimised using strains

  Newton-Raphson optimiser to be used

  BFGS hessian update to be used

  Lower half triangular hessian to be used

  Minimiser to switch to RFO
  When gradient norm is less than     0.050000

  Dumpfile to be written after every cycle

  Start of bulk optimisation :

  Cycle:      0 Energy:     -1495.942253  Gnorm:      5.576467  CPU:    0.030
  ** Hessian calculated **
  Cycle:      1 Energy:     -1512.053852  Gnorm:      1.402808  CPU:    0.068
  ** Hessian calculated **
  Cycle:      2 Energy:     -1513.461960  Gnorm:      1.128630  CPU:    0.139
  ** Hessian calculated **
  Cycle:      3 Energy:     -1514.504093  Gnorm:      0.642301  CPU:    0.204
  Cycle:      4 Energy:     -1514.990835  Gnorm:      0.418479  CPU:    0.243
  Cycle:      5 Energy:     -1515.443516  Gnorm:      0.330942  CPU:    0.288
  Cycle:      6 Energy:     -1515.845319  Gnorm:      0.275267  CPU:    0.334
  Cycle:      7 Energy:     -1516.050771  Gnorm:      0.209987  CPU:    0.373
  Cycle:      8 Energy:     -1516.168222  Gnorm:      0.168888  CPU:    0.411
  Cycle:      9 Energy:     -1516.225672  Gnorm:      0.115250  CPU:    0.450
  Cycle:     10 Energy:     -1516.253921  Gnorm:      0.086001  CPU:    0.489
  Cycle:     11 Energy:     -1516.278385  Gnorm:      0.077576  CPU:    0.534
  Cycle:     12 Energy:     -1516.301661  Gnorm:      0.082204  CPU:    0.580
  ** Hessian calculated **
  Cycle:     13 Energy:     -1516.318794  Gnorm:      0.080841  CPU:    0.650
  Cycle:     14 Energy:     -1516.349446  Gnorm:      0.078191  CPU:    0.703
  Cycle:     15 Energy:     -1516.395151  Gnorm:      0.073560  CPU:    0.748
  Cycle:     16 Energy:     -1516.467956  Gnorm:      0.065343  CPU:    0.800
  Cycle:     17 Energy:     -1516.547647  Gnorm:      0.054285  CPU:    0.846
  Cycle:     18 Energy:     -1516.614727  Gnorm:      0.052104  CPU:    0.891
  Cycle:     19 Energy:     -1516.696815  Gnorm:      0.031342  CPU:    0.938
  ** Hessian has wrong structure
  ** Imaginary eigenvectors =   3
  Cycle:     20 Energy:     -1516.697931  Gnorm:      0.035242  CPU:    1.014
  ** Hessian has wrong structure
  ** Imaginary eigenvectors =   2
  ** Hessian has wrong structure
  ** Imaginary eigenvectors =   2
  Cycle:     21 Energy:     -1516.712019  Gnorm:      0.060570  CPU:    1.152
  ** Hessian has wrong structure
  ** Imaginary eigenvectors =   1
  ** Hessian has required structure
  Cycle:     22 Energy:     -1516.774729  Gnorm:      0.071380  CPU:    1.296
  ** Hessian has required structure
  Cycle:     23 Energy:     -1516.797779  Gnorm:      0.023549  CPU:    1.342
  ** Hessian has required structure
  Cycle:     24 Energy:     -1516.806733  Gnorm:      0.025054  CPU:    1.402
  ** Hessian has required structure
  Cycle:     25 Energy:     -1516.816700  Gnorm:      0.026884  CPU:    1.455
  ** Hessian has required structure
  Cycle:     26 Energy:     -1516.823679  Gnorm:      0.019312  CPU:    1.509
  ** Hessian has required structure
  Cycle:     27 Energy:     -1516.827311  Gnorm:      0.021495  CPU:    1.555
  ** Hessian has required structure
  Cycle:     28 Energy:     -1516.830034  Gnorm:      0.013162  CPU:    1.602
  ** Hessian has required structure
  Cycle:     29 Energy:     -1516.831833  Gnorm:      0.012382  CPU:    1.662
  ** Hessian has required structure
  Cycle:     30 Energy:     -1516.833243  Gnorm:      0.009067  CPU:    1.713
  ** Hessian has required structure
  Cycle:     31 Energy:     -1516.834457  Gnorm:      0.010131  CPU:    1.760
  ** Hessian has required structure
  Cycle:     32 Energy:     -1516.837117  Gnorm:      0.009044  CPU:    1.837
  ** Hessian has required structure
  Cycle:     33 Energy:     -1516.838415  Gnorm:      0.008449  CPU:    1.884
  ** Hessian has required structure
  Cycle:     34 Energy:     -1516.839406  Gnorm:      0.004866  CPU:    1.936
  ** Hessian has required structure
  Cycle:     35 Energy:     -1516.839909  Gnorm:      0.005195  CPU:    1.981
  ** Hessian has required structure
  Cycle:     36 Energy:     -1516.840415  Gnorm:      0.002191  CPU:    2.033
  ** Hessian has required structure
  Cycle:     37 Energy:     -1516.840590  Gnorm:      0.002042  CPU:    2.085
  ** Hessian has required structure
  Cycle:     38 Energy:     -1516.840666  Gnorm:      0.000964  CPU:    2.137
  ** Hessian has required structure
  Cycle:     39 Energy:     -1516.840685  Gnorm:      0.000675  CPU:    2.181
  ** Hessian has required structure
  Cycle:     40 Energy:     -1516.840694  Gnorm:      0.000496  CPU:    2.219
  ** Hessian has required structure
  Cycle:     41 Energy:     -1516.840698  Gnorm:      0.000323  CPU:    2.264
  ** Hessian has required structure
  Cycle:     42 Energy:     -1516.840699  Gnorm:      0.000291  CPU:    2.324
  ** Hessian has required structure
  Cycle:     43 Energy:     -1516.840699  Gnorm:      0.000290  CPU:    2.376
  ** Hessian has required structure
  Cycle:     44 Energy:     -1516.840699  Gnorm:      0.000290  CPU:    2.414
  ** Hessian has required structure
  Cycle:     45 Energy:     -1516.840699  Gnorm:      0.000289  CPU:    2.451
  ** Hessian has required structure
  Cycle:     46 Energy:     -1516.840699  Gnorm:      0.000289  CPU:    2.489
  ** Hessian has required structure
  Cycle:     47 Energy:     -1516.840699  Gnorm:      0.000288  CPU:    2.526
  ** Hessian has required structure
  Cycle:     48 Energy:     -1516.840699  Gnorm:      0.000288  CPU:    2.564
  ** Hessian has required structure
  Cycle:     49 Energy:     -1516.840699  Gnorm:      0.000288  CPU:    2.601
  ** Hessian has required structure
  Cycle:     50 Energy:     -1516.840699  Gnorm:      0.000287  CPU:    2.639
  ** Hessian has required structure
  Cycle:     51 Energy:     -1516.840699  Gnorm:      0.000287  CPU:    2.676
  ** Hessian has required structure
  Cycle:     52 Energy:     -1516.840699  Gnorm:      0.000287  CPU:    2.758
  ** Hessian calculated **


  **** Optimisation achieved ****


  Final energy =   -1516.84069872 eV      
  Final Gnorm  =       0.00028733

  Components of energy : 

--------------------------------------------------------------------------------
  Interatomic potentials     =         403.45919369 eV    
  Three-body potentials      =           0.04592849 eV    
  Monopole - monopole (real) =        -840.71095067 eV    
  Monopole - monopole (recip)=       -1079.63487023 eV    
  Monopole - monopole (total)=       -1920.34582090 eV    
--------------------------------------------------------------------------------
  Total lattice energy       =       -1516.84069872 eV    
--------------------------------------------------------------------------------
  Total lattice energy       =         -146351.9404 kJ/(mole unit cells)
--------------------------------------------------------------------------------

  Final fractional coordinates of atoms :

--------------------------------------------------------------------------------
   No.  Atomic        x           y          z          Radius
        Label       (Frac)      (Frac)     (Frac)       (Angs) 
--------------------------------------------------------------------------------
     1  Ge    c     0.313820    0.296860    0.309830    0.000000
     2  Ge    c     0.631083    0.775149    0.379085    0.000000
     3  Ge    c     0.877843    0.069513    0.359539    0.000000
     4  Ge    c     0.122081    0.987748    0.672753    0.000000
     5  Si    c     0.705596    0.342911    0.690393    0.000000
     6  Si    c     0.671462    0.739000    0.691185    0.000000
     7  Si    c     0.271166    0.712606    0.308590    0.000000
     8  Si    c     0.346989    0.281055    0.618882    0.000000
     9  Si    c     0.672470    0.368598    0.384035    0.000000
    10  Si    c     0.310679    0.685057    0.614109    0.000000
    11  Si    c     0.074454    0.022890    0.159444    0.000000
    12  Si    c     0.903395    0.025223    0.847930    0.000000
    13  O3    c     0.277006    0.245649    0.459448    0.000000
    14  O2    c     0.734390    0.358733    0.548266    0.000000
    15  O3    c     0.706003    0.785807    0.553864    0.000000
    16  O2    c     0.240132    0.718200    0.451648    0.000000
    17  O3    c     0.270249    0.515990    0.264463    0.000000
    18  O2    c     0.721874    0.539168    0.746573    0.000000
    19  O3    c     0.507775    0.264793    0.335188    0.000000
    20  O2    c     0.533882    0.261723    0.669745    0.000000
    21  O2    c     0.488340    0.759450    0.666362    0.000000
    22  O3    c     0.433803    0.812698    0.325278    0.000000
    23  O3    c     0.214691    0.163631    0.180070    0.000000
    24  O2    c     0.834537    0.216966    0.791033    0.000000
    25  O2    c     0.771052    0.873830    0.801247    0.000000
    26  O2    c     0.135301    0.823916    0.198505    0.000000
    27  O2    c     0.306488    0.477220    0.646990    0.000000
    28  O3    c     0.652702    0.567362    0.329775    0.000000
    29  O3    c     0.269242    0.145226    0.697040    0.000000
    30  O3    c     0.797675    0.276475    0.337149    0.000000
    31  O1    c     0.728541    0.917392    0.306475    0.000000
    32  O3    c     0.206804    0.784366    0.680582    0.000000
    33  O1    c     0.971392    0.018805    0.527115    0.000000
    34  O3    c     0.995328    0.084958    0.264043    0.000000
    35  O3    c     0.052289    0.988416    0.806599    0.000000
    36  O2    c     0.953618    0.027354    0.009315    0.000000
    37  O3    s     0.286288    0.252769    0.462899    0.000000
    38  O2    s     0.724880    0.358029    0.547252    0.000000
    39  O3    s     0.696774    0.780400    0.553845    0.000000
    40  O2    s     0.250487    0.714301    0.453799    0.000000
    41  O3    s     0.273789    0.518874    0.272610    0.000000
    42  O2    s     0.715010    0.538999    0.735107    0.000000
    43  O3    s     0.507848    0.277291    0.337852    0.000000
    44  O2    s     0.532340    0.272454    0.666553    0.000000
    45  O2    s     0.489317    0.749427    0.663527    0.000000
    46  O3    s     0.433995    0.799989    0.328023    0.000000
    47  O3    s     0.209108    0.160897    0.188618    0.000000
    48  O2    s     0.827413    0.210637    0.785775    0.000000
    49  O2    s     0.774283    0.875258    0.794056    0.000000
    50  O2    s     0.143365    0.832851    0.206131    0.000000
    51  O2    s     0.311238    0.479188    0.640487    0.000000
    52  O3    s     0.652988    0.563439    0.339351    0.000000
    53  O3    s     0.265618    0.146881    0.686877    0.000000
    54  O3    s     0.790920    0.269754    0.343858    0.000000
    55  O1    s     0.731833    0.917199    0.316384    0.000000
    56  O3    s     0.211139    0.789749    0.672981    0.000000
    57  O1    s     0.976575    0.020230    0.525987    0.000000
    58  O3    s     0.992846    0.077328    0.262142    0.000000
    59  O3    s     0.042856    0.992090    0.799952    0.000000
    60  O2    s     0.961933    0.026625    0.008665    0.000000
--------------------------------------------------------------------------------

  Final Cartesian lattice vectors (Angstroms) :

        9.104605   -0.149901   -0.101602
       -0.121401    7.615000    0.156462
       -3.411249    0.264476    9.929394


  Final cell parameters and derivatives :

--------------------------------------------------------------------------------
       a            9.106405 Angstrom     dE/de1(xx)     0.010313 eV/strain
       b            7.617575 Angstrom     dE/de2(yy)     0.008454 eV/strain
       c           10.502354 Angstrom     dE/de3(zz)     0.008073 eV/strain
       alpha       87.147231 Degrees      dE/de4(yz)    -0.000517 eV/strain
       beta       109.615528 Degrees      dE/de5(xz)    -0.001829 eV/strain
       gamma       91.869231 Degrees      dE/de6(xy)    -0.001406 eV/strain
--------------------------------------------------------------------------------

  Primitive cell volume =           685.307018 Angs**3

  Density of cell =      2.178752 g/cm**3

  Non-primitive cell volume =           685.307018 Angs**3


  Final internal derivatives :

--------------------------------------------------------------------------------
   No.  Atomic          a             b             c           Radius
        Label          (eV)          (eV)          (eV)        (eV/Angs)
--------------------------------------------------------------------------------
      1 Ge    c       0.000000      0.000000      0.000000      0.000000
      2 Ge    c       0.000291     -0.000677      0.004162      0.000000
      3 Ge    c      -0.007237     -0.002581      0.014429      0.000000
      4 Ge    c       0.001757     -0.002457      0.000799      0.000000
      5 Si    c       0.001851      0.000005     -0.001543      0.000000
      6 Si    c       0.001763      0.000702     -0.001916      0.000000
      7 Si    c      -0.000170     -0.000157     -0.000028      0.000000
      8 Si    c      -0.001281     -0.000520     -0.001186      0.000000
      9 Si    c      -0.000683      0.000230      0.002353      0.000000
     10 Si    c      -0.001347      0.000491      0.000279      0.000000
     11 Si    c       0.009100     -0.002290     -0.001928      0.000000
     12 Si    c      -0.001017      0.000750      0.004867      0.000000
     13 O3    c      -0.000505      0.001419     -0.001281      0.000000
     14 O2    c      -0.001021      0.000268     -0.000330      0.000000
     15 O3    c       0.000236      0.000287     -0.001330      0.000000
     16 O2    c       0.000568     -0.000695      0.000301      0.000000
     17 O3    c      -0.000594      0.001399     -0.001825      0.000000
     18 O2    c       0.000171     -0.001886      0.000065      0.000000
     19 O3    c       0.001736     -0.000497     -0.000610      0.000000
     20 O2    c       0.001655     -0.000304     -0.000078      0.000000
     21 O2    c      -0.000266      0.000565      0.000385      0.000000
     22 O3    c      -0.001539      0.000665     -0.000469      0.000000
     23 O3    c       0.001459      0.005078      0.002973      0.000000
     24 O2    c      -0.000657     -0.000061     -0.000613      0.000000
     25 O2    c      -0.001269     -0.001829      0.000372      0.000000
     26 O2    c       0.001001     -0.007286      0.000346      0.000000
     27 O2    c      -0.000851      0.001755      0.001295      0.000000
     28 O3    c       0.000435      0.000439     -0.000125      0.000000
     29 O3    c       0.000425      0.001617      0.000579      0.000000
     30 O3    c      -0.002723      0.009427     -0.000073      0.000000
     31 O1    c      -0.003242     -0.003089     -0.003689      0.000000
     32 O3    c      -0.000537      0.000541     -0.000190      0.000000
     33 O1    c      -0.005196      0.000319      0.008687      0.000000
     34 O3    c       0.013022      0.008379     -0.018637      0.000000
     35 O3    c       0.005748     -0.001392     -0.003703      0.000000
     36 O2    c      -0.008666     -0.000832     -0.023092      0.000000
     37 O3    s       0.000729     -0.002749      0.003107      0.000000
     38 O2    s      -0.000347      0.000187      0.000485      0.000000
     39 O3    s      -0.001078     -0.000670      0.002028      0.000000
     40 O2    s      -0.000784      0.002036      0.000037      0.000000
     41 O3    s       0.001045      0.000375      0.001182      0.000000
     42 O2    s       0.000041     -0.000484     -0.000384      0.000000
     43 O3    s       0.000410      0.000495      0.001187      0.000000
     44 O2    s       0.001178     -0.000325     -0.000700      0.000000
     45 O2    s      -0.000802     -0.000154     -0.000353      0.000000
     46 O3    s      -0.001006     -0.000404      0.001478      0.000000
     47 O3    s       0.006699     -0.001209     -0.004921      0.000000
     48 O2    s       0.000198      0.000343     -0.000114      0.000000
     49 O2    s       0.000753      0.000946     -0.000926      0.000000
     50 O2    s       0.003841     -0.002881      0.004614      0.000000
     51 O2    s      -0.000034      0.000206     -0.000001      0.000000
     52 O3    s      -0.001202     -0.001441      0.001235      0.000000
     53 O3    s      -0.000244     -0.001897     -0.001472      0.000000
     54 O3    s      -0.003720     -0.000131      0.002920      0.000000
     55 O1    s      -0.001188     -0.000622      0.000051      0.000000
     56 O3    s       0.001044      0.000064     -0.000350      0.000000
     57 O1    s       0.005287     -0.000838      0.000968      0.000000
     58 O3    s      -0.008006      0.000831      0.012096      0.000000
     59 O3    s      -0.002610      0.001104      0.001393      0.000000
     60 O2    s       0.002169      0.002800     -0.003489      0.000000
--------------------------------------------------------------------------------
  Maximum abs         0.013022      0.009427      0.023092      0.000000
--------------------------------------------------------------------------------


  Born effective charge tensors : 

-------------------------------------------------------------------------------
  Atom             x           y             z
-------------------------------------------------------------------------------
    1 Ge    x       3.7417      0.1894      0.3927
            y       0.1553      4.1710      0.3083
            z       0.1322      0.2330      3.5824
-------------------------------------------------------------------------------
    2 Ge    x       4.0857      0.3225     -0.2153
            y       0.3533      4.1249     -0.0647
            z       0.0578     -0.1026      3.3407
-------------------------------------------------------------------------------
    3 Ge    x       4.5162     -0.1197      0.0948
            y       0.1336      3.9165      0.0585
            z      -0.4483     -0.0794      3.6525
-------------------------------------------------------------------------------
    4 Ge    x       4.6282     -0.2212     -0.1640
            y       0.0475      3.9278      0.0795
            z      -0.2752      0.0141      3.6568
-------------------------------------------------------------------------------
    5 Si    x       3.0763     -0.0873      0.2001
            y      -0.3203      3.4209     -0.1494
            z       0.1848     -0.2135      2.8077
-------------------------------------------------------------------------------
    6 Si    x       3.2047      0.2347      0.1457
            y       0.1967      3.5318      0.1234
            z       0.0097      0.1661      3.1136
-------------------------------------------------------------------------------
    7 Si    x       3.3274      0.0831      0.2506
            y      -0.2332      3.8550     -0.0773
            z       0.2125     -0.0393      3.0397
-------------------------------------------------------------------------------
    8 Si    x       3.5073      0.4140     -0.2338
            y       0.3485      3.6541     -0.1334
            z       0.0008     -0.0536      3.1170
-------------------------------------------------------------------------------
    9 Si    x       3.9017     -0.1184     -0.1302
            y      -0.4317      3.8532     -0.0162
            z      -0.0225      0.1400      2.8952
-------------------------------------------------------------------------------
   10 Si    x       3.5687     -0.3027     -0.2424
            y      -0.5047      3.5061      0.1985
            z      -0.0731      0.1576      2.7984
-------------------------------------------------------------------------------
   11 Si    x       3.5121     -0.1868     -0.1890
            y       0.2282      3.4264      0.1349
            z       0.3341      0.1700      4.1237
-------------------------------------------------------------------------------
   12 Si    x       3.6112     -0.2495      0.1522
            y       0.0636      3.3147      0.0098
            z      -0.1234      0.0738      3.9361
-------------------------------------------------------------------------------
   13 O3    x      -1.4300     -0.1289      0.1787
            y      -0.1341     -1.4266     -0.1157
            z       0.2051     -0.0852     -2.5288
-------------------------------------------------------------------------------
   14 O2    x      -1.2966      0.0382      0.2468
            y       0.1022     -1.2574      0.0340
            z       0.2219      0.0525     -1.9894
-------------------------------------------------------------------------------
   15 O3    x      -1.4840     -0.1580      0.3501
            y      -0.1563     -1.4127      0.0674
            z       0.3236      0.0782     -2.4896
-------------------------------------------------------------------------------
   16 O2    x      -1.2658      0.0553      0.1643
            y       0.1055     -1.2628      0.1088
            z       0.1515      0.0807     -2.0364
-------------------------------------------------------------------------------
   17 O3    x      -1.2311      0.1855     -0.0738
            y       0.2933     -3.2037     -0.1164
            z      -0.0408     -0.1090     -1.2841
-------------------------------------------------------------------------------
   18 O2    x      -1.1262      0.1046     -0.0738
            y       0.1804     -2.5087     -0.0606
            z      -0.0520     -0.0604     -1.1392
-------------------------------------------------------------------------------
   19 O3    x      -2.7803     -0.2925     -0.4119
            y      -0.2327     -1.5225     -0.1321
            z      -0.4323     -0.1605     -1.2752
-------------------------------------------------------------------------------
   20 O2    x      -2.3055     -0.1556     -0.2853
            y      -0.0849     -1.3020      0.0139
            z      -0.3125      0.0148     -1.0895
-------------------------------------------------------------------------------
   21 O2    x      -2.3025     -0.1421     -0.3455
            y      -0.0792     -1.3018     -0.0756
            z      -0.3397     -0.0952     -1.1194
-------------------------------------------------------------------------------
   22 O3    x      -2.7948     -0.2751     -0.3613
            y      -0.1700     -1.5032      0.0203
            z      -0.4184      0.0052     -1.2472
-------------------------------------------------------------------------------
   23 O3    x      -1.8826     -0.7427     -0.4587
            y      -0.7634     -2.1941     -0.6340
            z      -0.4588     -0.6042     -1.8441
-------------------------------------------------------------------------------
   24 O2    x      -1.4096      0.5544     -0.3988
            y       0.4958     -2.0698      0.5662
            z      -0.3544      0.5867     -1.5449
-------------------------------------------------------------------------------
   25 O2    x      -1.4799     -0.5352     -0.4143
            y      -0.5686     -1.9495     -0.5527
            z      -0.3824     -0.5823     -1.5854
-------------------------------------------------------------------------------
   26 O2    x      -1.3940      0.4973     -0.3597
            y       0.4456     -1.9527      0.5112
            z      -0.3798      0.5072     -1.5982
-------------------------------------------------------------------------------
   27 O2    x      -1.2465      0.0823      0.0615
            y       0.1510     -2.4719      0.0146
            z       0.0254      0.0122     -1.0389
-------------------------------------------------------------------------------
   28 O3    x      -1.3283      0.1544      0.0773
            y       0.2237     -3.0270      0.1034
            z       0.0279      0.0819     -1.2396
-------------------------------------------------------------------------------
   29 O3    x      -2.3012     -0.9940      0.3471
            y      -1.0282     -2.2930      0.3040
            z       0.3066      0.2805     -1.3061
-------------------------------------------------------------------------------
   30 O3    x      -2.3609      0.9773      0.2708
            y       0.9175     -2.2287     -0.1611
            z       0.3415     -0.2130     -1.2330
-------------------------------------------------------------------------------
   31 O1    x      -2.4757     -1.0163      0.1363
            y      -1.0753     -2.3532      0.0937
            z       0.1796      0.1207     -1.3879
-------------------------------------------------------------------------------
   32 O3    x      -2.3106      1.0252      0.4498
            y       0.9726     -2.3577     -0.3505
            z       0.3922     -0.3133     -1.3001
-------------------------------------------------------------------------------
   33 O1    x      -1.9065      0.1658     -0.7436
            y       0.0574     -1.3919      0.2359
            z      -0.4391      0.2827     -2.6628
-------------------------------------------------------------------------------
   34 O3    x      -2.5591      0.2953      1.0034
            y       0.1802     -1.3402     -0.2416
            z       0.9067     -0.2356     -2.1124
-------------------------------------------------------------------------------
   35 O3    x      -2.8325      0.2792      0.8700
            y       0.1579     -1.2677     -0.1016
            z       0.8821     -0.1241     -1.9672
-------------------------------------------------------------------------------
   36 O2    x      -1.1769      0.0671     -0.2908
            y      -0.0269     -1.1035     -0.0031
            z      -0.3432      0.0136     -3.0445
-------------------------------------------------------------------------------




  Elastic Constant Matrix: (Units=GPa)

-------------------------------------------------------------------------------
  Indices      1         2         3         4         5         6    
-------------------------------------------------------------------------------
       1     33.9987   14.1515    8.0301    0.0550    0.2620  -12.0934
       2     14.1515   48.4436   14.4815    3.6842    5.8600  -10.7356
       3      8.0301   14.4815   35.2303    2.8302   14.8027   -0.2783
       4      0.0550    3.6842    2.8302   13.7524    1.9606    5.1433
       5      0.2620    5.8600   14.8027    1.9606   12.3233    0.1426
       6    -12.0934  -10.7356   -0.2783    5.1433    0.1426   25.6693
-------------------------------------------------------------------------------


  Elastic Compliance Matrix: (Units=1/GPa)

-------------------------------------------------------------------------------
  Indices      1         2         3         4         5         6    
-------------------------------------------------------------------------------
       1    0.041677 -0.005727 -0.015381 -0.005181  0.020929  0.017995
       2   -0.005727  0.028310 -0.008997 -0.009658 -0.001124  0.010986
       3   -0.015381 -0.008997  0.067580  0.003487 -0.077005 -0.010547
       4   -0.005181 -0.009658  0.003487  0.085192 -0.012768 -0.023441
       5    0.020929 -0.001124 -0.077005 -0.012768  0.175649  0.010138
       6    0.017995  0.010986 -0.010547 -0.023441  0.010138  0.056556
-------------------------------------------------------------------------------

  Mechanical properties :

-------------------------------------------------------------------------------
  Convention :                    Reuss         Voigt         Hill
-------------------------------------------------------------------------------
  Bulk  Modulus (GPa)     =      12.92675      21.22208      17.07442
  Shear Modulus (GPa)     =       9.24284      15.74963      12.49623
-------------------------------------------------------------------------------
  Velocity S-wave (km/s)  =       2.05968       2.68863       2.39489
  Velocity P-wave (km/s)  =       3.40433       4.40214       3.93499
-------------------------------------------------------------------------------
  Compressibility (1/GPa) =    0.07735896
-------------------------------------------------------------------------------
  Stress axis :                     x             y             z
-------------------------------------------------------------------------------
  Youngs Moduli (GPa)     =      23.99381      35.32327      14.79724
-------------------------------------------------------------------------------
  Poissons Ratio (x)      =                     0.20229       0.22760
  Poissons Ratio (y)      =       0.13741                     0.13312
  Poissons Ratio (z)      =       0.36905       0.31779
-------------------------------------------------------------------------------


  Piezoelectric Strain Matrix: (Units=C/m**2)

-------------------------------------------------------------------------------
  Indices      1         2         3         4         5         6    
-------------------------------------------------------------------------------
       x    -0.03319  -0.23486  -0.05588  -0.14335  -0.03990  -0.02731
       y     0.47579   0.51763   1.47008  -0.63391   0.17143  -0.77740
       z     0.78287   0.18780   0.95912   0.33063  -1.17658   0.04726
-------------------------------------------------------------------------------


  Piezoelectric Stress Matrix: (Units=10**-11 C/N)

-------------------------------------------------------------------------------
  Indices      1         2         3         4         5         6    
-------------------------------------------------------------------------------
       x     0.02373  -0.48268   0.17077  -0.88169  -0.15822  -0.11771
       y    -1.28632  -0.39070   8.01613  -4.03081  -7.35028  -2.86257
       z    -0.86871  -0.91467  14.23437   3.95564 -26.80915  -1.09707
-------------------------------------------------------------------------------


  Static dielectric constant tensor : 

-------------------------------------------------------------------------------
              x         y         z
-------------------------------------------------------------------------------
       x     4.73339   0.00348  -0.02676
       y     0.00348   4.83725   0.10027
       z    -0.02676   0.10027   3.45926
--------------------------------------------------------------------------------

  High frequency dielectric constant tensor : 

-------------------------------------------------------------------------------
              x         y         z
-------------------------------------------------------------------------------
       x     1.62795  -0.00535   0.00837
       y    -0.00535   1.64007   0.00325
       z     0.00837   0.00325   1.58328
-------------------------------------------------------------------------------

  Static refractive indices : 

-------------------------------------------------------------------------------
    1 =    1.85780      2 =    2.17576      3 =    2.20103
-------------------------------------------------------------------------------

  High frequency refractive indices : 

-------------------------------------------------------------------------------
    1 =    1.25756      2 =    1.27583      3 =    1.28144
-------------------------------------------------------------------------------


  Time to end of optimisation =       2.8819 seconds


  Peak dynamic memory used =       2.76 MB 


  Timing analysis for GULP :

--------------------------------------------------------------------------------
  Task / Subroutine                                          Time (Seconds)
--------------------------------------------------------------------------------
  Calculation of reciprocal space energy and derivatives          0.1841
  Calculation of real space energy and derivatives                2.3277
  Calculation of three-body energy and derivatives                0.0964
  Calculation and manipulation of Hessian matrix                  0.3602
  Calculation of matrix inversion                                 0.0040
--------------------------------------------------------------------------------
  Total CPU time                                                  2.8820
--------------------------------------------------------------------------------


  Dump file written as c00100.vasp.grs
  CIF file written as c00100.vasp.cif


  Job Finished at 22:42.09  6th October    2025                               

