********************************************************************************
*                       GENERAL UTILITY LATTICE PROGRAM                        *
*                                 Julian Gale                                  *
*                       Curtin Institute for Computation                       *
*                    School of Molecular and Life Sciences                     *
*                    Curtin University, Western Australia                      *
********************************************************************************
* Version = 6.1.2 * Last modified =   3rd November 2022                        *
********************************************************************************
*  optimise     - perform optimisation run                                     *
*  conp         - constant pressure calculation                                *
*  property     - calculate properties for final geometry                      *
********************************************************************************

  Job Started  at 22:43.53  6th October    2025                               

  Number of CPUs =     1


  Total number of configurations input =      1

********************************************************************************
*  Input for Configuration =   1 : c00132.vasp                                 *
********************************************************************************

  Formula = Ge4Si8O24                                                   

  Number of irreducible atoms/shells =      60


  Total number atoms/shells =      60

  Dimensionality = 3               :  Bulk   



  Cartesian lattice vectors (Angstroms) :

        9.086940    0.000000    0.000000
        0.000000    7.554810    0.000000
       -3.295144    0.000000    9.944380

  Cell parameters (Angstroms/Degrees):

  a =       9.0869    alpha =  90.0000
  b =       7.5548    beta  = 108.3330
  c =      10.4761    gamma =  90.0000

  Initial cell volume =         682.682735 Angs**3

  Temperature of configuration =   0.00     K 

  Pressure of configuration =         0.000 GPa 

  Fractional coordinates of asymmetric unit :

--------------------------------------------------------------------------------
   No.  Atomic       x           y          z         Charge      Occupancy
        Label      (Frac)      (Frac)     (Frac)        (e)         (Frac)  
--------------------------------------------------------------------------------
      1 Ge    c    0.331050    0.296920    0.607380     4.00000    1.000000    
      2 Ge    c    0.331050 *  0.703080 *  0.607380 *   4.00000    1.000000    
      3 Ge    c    0.120320 *  0.000000 *  0.649840 *   4.00000    1.000000    
      4 Ge    c    0.093070 *  0.000000 *  0.158230 *   4.00000    1.000000    
      5 Si    c    0.313820 *  0.296860 *  0.309830 *   4.00000    1.000000    
      6 Si    c    0.686180 *  0.296860 *  0.690170 *   4.00000    1.000000    
      7 Si    c    0.686180 *  0.703140 *  0.690170 *   4.00000    1.000000    
      8 Si    c    0.313820 *  0.703140 *  0.309830 *   4.00000    1.000000    
      9 Si    c    0.668950 *  0.296920 *  0.392620 *   4.00000    1.000000    
     10 Si    c    0.668950 *  0.703080 *  0.392620 *   4.00000    1.000000    
     11 Si    c    0.879680 *  0.000000 *  0.350160 *   4.00000    1.000000    
     12 Si    c    0.906930 *  0.000000 *  0.841770 *   4.00000    1.000000    
     13 O3    c    0.268740 *  0.279030 *  0.446100 *   1.33043    1.000000    
     14 O2    c    0.731260 *  0.279030 *  0.553900 *   0.87073    1.000000    
     15 O2    c    0.731260 *  0.720970 *  0.553900 *   0.87073    1.000000    
     16 O3    c    0.268740 *  0.720970 *  0.446100 *   1.33043    1.000000    
     17 O2    c    0.295480 *  0.500000 *  0.260860 *   0.87073    1.000000    
     18 O2    c    0.704520 *  0.500000 *  0.739140 *   0.87073    1.000000    
     19 O2    c    0.490600 *  0.234690 *  0.337530 *   0.87073    1.000000    
     20 O3    c    0.509400 *  0.234690 *  0.662470 *   1.33043    1.000000    
     21 O3    c    0.509400 *  0.765310 *  0.662470 *   1.33043    1.000000    
     22 O2    c    0.490600 *  0.765310 *  0.337530 *   0.87073    1.000000    
     23 O3    c    0.200440 *  0.174000 *  0.194980 *   1.33043    1.000000    
     24 O2    c    0.799560 *  0.174000 *  0.805020 *   0.87073    1.000000    
     25 O2    c    0.799560 *  0.826000 *  0.805020 *   0.87073    1.000000    
     26 O3    c    0.200440 *  0.826000 *  0.194980 *   1.33043    1.000000    
     27 O1    c    0.317860 *  0.500000 *  0.649090 *   1.73396    1.000000    
     28 O2    c    0.682140 *  0.500000 *  0.350910 *   0.87073    1.000000    
     29 O1    c    0.227920 *  0.173870 *  0.671620 *   1.73396    1.000000    
     30 O2    c    0.772080 *  0.173870 *  0.328380 *   0.87073    1.000000    
     31 O2    c    0.772080 *  0.826130 *  0.328380 *   0.87073    1.000000    
     32 O1    c    0.227920 *  0.826130 *  0.671620 *   1.73396    1.000000    
     33 O3    c    0.000000 *  0.000000 *  0.500000 *   1.33043    1.000000    
     34 O3    c    0.971960 *  0.000000 *  0.241930 *   1.33043    1.000000    
     35 O3    c    0.028040 *  0.000000 *  0.758070 *   1.33043    1.000000    
     36 O3    c    0.000000 *  0.000000 *  0.000000 *   1.33043    1.000000    
     37 O3    s    0.268740 *  0.279030 *  0.446100 *  -3.33043    1.000000    
     38 O2    s    0.731260 *  0.279030 *  0.553900 *  -2.87073    1.000000    
     39 O2    s    0.731260 *  0.720970 *  0.553900 *  -2.87073    1.000000    
     40 O3    s    0.268740 *  0.720970 *  0.446100 *  -3.33043    1.000000    
     41 O2    s    0.295480 *  0.500000 *  0.260860 *  -2.87073    1.000000    
     42 O2    s    0.704520 *  0.500000 *  0.739140 *  -2.87073    1.000000    
     43 O2    s    0.490600 *  0.234690 *  0.337530 *  -2.87073    1.000000    
     44 O3    s    0.509400 *  0.234690 *  0.662470 *  -3.33043    1.000000    
     45 O3    s    0.509400 *  0.765310 *  0.662470 *  -3.33043    1.000000    
     46 O2    s    0.490600 *  0.765310 *  0.337530 *  -2.87073    1.000000    
     47 O3    s    0.200440 *  0.174000 *  0.194980 *  -3.33043    1.000000    
     48 O2    s    0.799560 *  0.174000 *  0.805020 *  -2.87073    1.000000    
     49 O2    s    0.799560 *  0.826000 *  0.805020 *  -2.87073    1.000000    
     50 O3    s    0.200440 *  0.826000 *  0.194980 *  -3.33043    1.000000    
     51 O1    s    0.317860 *  0.500000 *  0.649090 *  -3.73396    1.000000    
     52 O2    s    0.682140 *  0.500000 *  0.350910 *  -2.87073    1.000000    
     53 O1    s    0.227920 *  0.173870 *  0.671620 *  -3.73396    1.000000    
     54 O2    s    0.772080 *  0.173870 *  0.328380 *  -2.87073    1.000000    
     55 O2    s    0.772080 *  0.826130 *  0.328380 *  -2.87073    1.000000    
     56 O1    s    0.227920 *  0.826130 *  0.671620 *  -3.73396    1.000000    
     57 O3    s    0.000000 *  0.000000 *  0.500000 *  -3.33043    1.000000    
     58 O3    s    0.971960 *  0.000000 *  0.241930 *  -3.33043    1.000000    
     59 O3    s    0.028040 *  0.000000 *  0.758070 *  -3.33043    1.000000    
     60 O3    s    0.000000 *  0.000000 *  0.000000 *  -3.33043    1.000000    
--------------------------------------------------------------------------------



********************************************************************************
*  General input information                                                   *
********************************************************************************

  Species output for all configurations : 

--------------------------------------------------------------------------------
  Species    Type    Atomic    Atomic    Charge       Radii (Angs)     Library
                     Number     Mass       (e)     Cova   Ionic  VDW   Symbol
--------------------------------------------------------------------------------
    Ge       Core       32      72.61   4.000000   1.170  0.000  1.750 Ge       
    Si       Core       14      28.09   4.000000   1.200  0.000  2.100 Si       
    O1       Core        8      16.00   1.733957   0.730  0.000  1.360 O1       
    O2       Core        8      16.00   0.870733   0.730  0.000  1.360 O2       
    O3       Core        8      16.00   1.330431   0.730  0.000  1.360 O3       
    O1       Shell       8       0.00  -3.733957   0.730  0.000  0.000 O1       
    O2       Shell       8       0.00  -2.870733   0.730  0.000  0.000 O2       
    O3       Shell       8       0.00  -3.330431   0.730  0.000  0.000 O3       
--------------------------------------------------------------------------------


  Lattice summation method               =    Ewald          (3-D)
                                         =    Parry          (2-D)
                                         =    Saunders et al (1-D)
  Accuracy factor for lattice sums       =   12.000


  Analytic derivatives to be used

  Time limit = Infinity

  Maximum range for interatomic potentials =    100000.000000 Angstroms

  General interatomic potentials :

--------------------------------------------------------------------------------
Atom  Types   Potential      Parameter       Value         Units   Cutoffs(Ang)
  1     2                                                            Min /  Max 
--------------------------------------------------------------------------------
Si   c O1   s Buckingham    Buckingham A     1315.2478    eV        0.000 16.000
                            Buckingham rho  0.31775900    Ang       
                            Buckingham C     10.141118    eV*Ang^6  
--------------------------------------------------------------------------------
Si   c O2   s Buckingham    Buckingham A     1315.2478    eV        0.000 16.000
                            Buckingham rho  0.31775900    Ang       
                            Buckingham C     10.141118    eV*Ang^6  
--------------------------------------------------------------------------------
Si   c O3   s Buckingham    Buckingham A     1315.2478    eV        0.000 16.000
                            Buckingham rho  0.31775900    Ang       
                            Buckingham C     10.141118    eV*Ang^6  
--------------------------------------------------------------------------------
Ge   c O1   s Buckingham    Buckingham A     1497.3996    eV        0.000 16.000
                            Buckingham rho  0.32564600    Ang       
                            Buckingham C     16.808599    eV*Ang^6  
--------------------------------------------------------------------------------
Ge   c O2   s Buckingham    Buckingham A     1497.3996    eV        0.000 16.000
                            Buckingham rho  0.32564600    Ang       
                            Buckingham C     16.808599    eV*Ang^6  
--------------------------------------------------------------------------------
Ge   c O3   s Buckingham    Buckingham A     1497.3996    eV        0.000 16.000
                            Buckingham rho  0.32564600    Ang       
                            Buckingham C     16.808599    eV*Ang^6  
--------------------------------------------------------------------------------
O1   s O1   s Buckingham    Buckingham A     22764.000    eV        0.000 16.000
                            Buckingham rho  0.14900000    Ang       
                            Buckingham C     10.937044    eV*Ang^6  
--------------------------------------------------------------------------------
O1   s O2   s Buckingham    Buckingham A     22764.000    eV        0.000 16.000
                            Buckingham rho  0.14900000    Ang       
                            Buckingham C     10.937044    eV*Ang^6  
--------------------------------------------------------------------------------
O1   s O3   s Buckingham    Buckingham A     22764.000    eV        0.000 16.000
                            Buckingham rho  0.14900000    Ang       
                            Buckingham C     10.937044    eV*Ang^6  
--------------------------------------------------------------------------------
O2   s O2   s Buckingham    Buckingham A     22764.000    eV        0.000 16.000
                            Buckingham rho  0.14900000    Ang       
                            Buckingham C     10.937044    eV*Ang^6  
--------------------------------------------------------------------------------
O2   s O3   s Buckingham    Buckingham A     22764.000    eV        0.000 16.000
                            Buckingham rho  0.14900000    Ang       
                            Buckingham C     10.937044    eV*Ang^6  
--------------------------------------------------------------------------------
O3   s O3   s Buckingham    Buckingham A     22764.000    eV        0.000 16.000
                            Buckingham rho  0.14900000    Ang       
                            Buckingham C     10.937044    eV*Ang^6  
--------------------------------------------------------------------------------
O1   c O1   s Spring (c-s)  Spring k 2       180.31577    eV*Ang^-2 0.000  0.800
                            Spring k 4       0.0000000    eV*Ang^-4 
--------------------------------------------------------------------------------
O2   c O2   s Spring (c-s)  Spring k 2       75.969800    eV*Ang^-2 0.000  0.800
                            Spring k 4       0.0000000    eV*Ang^-4 
--------------------------------------------------------------------------------
O3   c O3   s Spring (c-s)  Spring k 2       128.14270    eV*Ang^-2 0.000  0.800
                            Spring k 4       0.0000000    eV*Ang^-4 
--------------------------------------------------------------------------------

  General Three-body potentials :

--------------------------------------------------------------------------------
  Atoms       Potential      Parameter       Value         Units   Cutoffs(Ang)
  1 / 2 / 3                                                          Min /  Max 
--------------------------------------------------------------------------------
Si    core    Harmonic      Three-body cnst  1.2614000    eV*rad^-2 0.000  1.900
O1    shel                  Three-body angl  109.47000    degrees   0.000  1.900
O1    shel                  Three-body k4    0.0000000    eV*rad^-4 0.000  3.500
                            Three-body k3    0.0000000    eV*rad^-3 
--------------------------------------------------------------------------------
Si    core    Harmonic      Three-body cnst  1.2614000    eV*rad^-2 0.000  1.900
O1    shel                  Three-body angl  109.47000    degrees   0.000  1.900
õ(1   shel                  Three-body k4    0.0000000    eV*rad^-4 0.000  3.500
                            Three-body k3    0.0000000    eV*rad^-3 
--------------------------------------------------------------------------------
Si    core    Harmonic      Three-body cnst  1.2614000    eV*rad^-2 0.000  1.900
õ(1   shel                  Three-body angl  109.47000    degrees   0.000  1.900
õ(1   shel                  Three-body k4    0.0000000    eV*rad^-4 0.000  3.500
                            Three-body k3    0.0000000    eV*rad^-3 
--------------------------------------------------------------------------------
Si    core    Harmonic      Three-body cnst  1.2614000    eV*rad^-2 0.000  1.900
O1    shel                  Three-body angl  109.47000    degrees   0.000  1.900
O2    shel                  Three-body k4    0.0000000    eV*rad^-4 0.000  3.500
                            Three-body k3    0.0000000    eV*rad^-3 
--------------------------------------------------------------------------------
Si    core    Harmonic      Three-body cnst  1.2614000    eV*rad^-2 0.000  1.900
O1    shel                  Three-body angl  109.47000    degrees   0.000  1.900
õ(2   shel                  Three-body k4    0.0000000    eV*rad^-4 0.000  3.500
                            Three-body k3    0.0000000    eV*rad^-3 
--------------------------------------------------------------------------------
Si    core    Harmonic      Three-body cnst  1.2614000    eV*rad^-2 0.000  1.900
O2    shel                  Three-body angl  109.47000    degrees   0.000  1.900
õ(1   shel                  Three-body k4    0.0000000    eV*rad^-4 0.000  3.500
                            Three-body k3    0.0000000    eV*rad^-3 
--------------------------------------------------------------------------------
Si    core    Harmonic      Three-body cnst  1.2614000    eV*rad^-2 0.000  1.900
õ(1   shel                  Three-body angl  109.47000    degrees   0.000  1.900
õ(2   shel                  Three-body k4    0.0000000    eV*rad^-4 0.000  3.500
                            Three-body k3    0.0000000    eV*rad^-3 
--------------------------------------------------------------------------------
Si    core    Harmonic      Three-body cnst  1.2614000    eV*rad^-2 0.000  1.900
O2    shel                  Three-body angl  109.47000    degrees   0.000  1.900
O2    shel                  Three-body k4    0.0000000    eV*rad^-4 0.000  3.500
                            Three-body k3    0.0000000    eV*rad^-3 
--------------------------------------------------------------------------------
Si    core    Harmonic      Three-body cnst  1.2614000    eV*rad^-2 0.000  1.900
O2    shel                  Three-body angl  109.47000    degrees   0.000  1.900
õ(2   shel                  Three-body k4    0.0000000    eV*rad^-4 0.000  3.500
                            Three-body k3    0.0000000    eV*rad^-3 
--------------------------------------------------------------------------------
Si    core    Harmonic      Three-body cnst  1.2614000    eV*rad^-2 0.000  1.900
õ(2   shel                  Three-body angl  109.47000    degrees   0.000  1.900
õ(2   shel                  Three-body k4    0.0000000    eV*rad^-4 0.000  3.500
                            Three-body k3    0.0000000    eV*rad^-3 
--------------------------------------------------------------------------------

********************************************************************************
*  Output for configuration   1 : c00132.vasp                                  *
********************************************************************************


  Components of energy : 

--------------------------------------------------------------------------------
  Interatomic potentials     =         400.32034397 eV    
  Three-body potentials      =           0.00001315 eV    
  Monopole - monopole (real) =       -1236.99964305 eV    
  Monopole - monopole (recip)=        -659.26603192 eV    
  Monopole - monopole (total)=       -1896.26567496 eV    
--------------------------------------------------------------------------------
  Total lattice energy       =       -1495.94531784 eV    
--------------------------------------------------------------------------------
  Total lattice energy       =         -144335.8556 kJ/(mole unit cells)
--------------------------------------------------------------------------------


  Number of variables =      183

  Maximum number of calculations  =          1000
  Maximum Hessian update interval =            10
  Maximum step size               =   0.100000000
  Maximum parameter tolerance     =   0.000010000
  Maximum function  tolerance     =   0.000010000
  Maximum gradient  tolerance     =   0.001000000
  Maximum gradient  component     =   0.010000000

  Symmetry not applied to optimisation

  Cell parameters to be optimised using strains

  Newton-Raphson optimiser to be used

  BFGS hessian update to be used

  Lower half triangular hessian to be used

  Minimiser to switch to RFO
  When gradient norm is less than     0.050000

  Dumpfile to be written after every cycle

  Start of bulk optimisation :

  Cycle:      0 Energy:     -1495.945318  Gnorm:      5.591203  CPU:    0.036
  ** Hessian calculated **
  Cycle:      1 Energy:     -1506.004379  Gnorm:      3.907951  CPU:    0.110
  ** Hessian calculated **
  Cycle:      2 Energy:     -1513.721677  Gnorm:      0.974694  CPU:    0.178
  Cycle:      3 Energy:     -1514.476899  Gnorm:      0.480163  CPU:    0.220
  Cycle:      4 Energy:     -1514.816212  Gnorm:      0.363546  CPU:    0.271
  Cycle:      5 Energy:     -1515.179557  Gnorm:      0.302722  CPU:    0.322
  Cycle:      6 Energy:     -1515.517348  Gnorm:      0.272040  CPU:    0.373
  Cycle:      7 Energy:     -1515.692954  Gnorm:      0.208355  CPU:    0.414
  Cycle:      8 Energy:     -1515.805381  Gnorm:      0.168480  CPU:    0.456
  Cycle:      9 Energy:     -1515.875073  Gnorm:      0.128632  CPU:    0.497
  Cycle:     10 Energy:     -1515.917110  Gnorm:      0.101990  CPU:    0.539
  Cycle:     11 Energy:     -1515.948355  Gnorm:      0.095849  CPU:    0.581
  ** Hessian calculated **
  Cycle:     12 Energy:     -1515.987772  Gnorm:      0.091409  CPU:    0.657
  Cycle:     13 Energy:     -1516.049182  Gnorm:      0.083916  CPU:    0.714
  Cycle:     14 Energy:     -1516.115378  Gnorm:      0.074617  CPU:    0.765
  Cycle:     15 Energy:     -1516.181300  Gnorm:      0.063671  CPU:    0.815
  Cycle:     16 Energy:     -1516.219823  Gnorm:      0.064591  CPU:    0.866
  ** Hessian calculated **
  Cycle:     17 Energy:     -1516.323573  Gnorm:      0.048310  CPU:    0.943
  ** Hessian has wrong structure
  ** Imaginary eigenvectors =   2
  Cycle:     18 Energy:     -1516.329233  Gnorm:      0.077598  CPU:    1.017
  ** Hessian has wrong structure
  ** Imaginary eigenvectors =   2
  ** Hessian has wrong structure
  ** Imaginary eigenvectors =   1
  Cycle:     19 Energy:     -1516.351005  Gnorm:      0.089557  CPU:    1.169
  ** Hessian has required structure
  ** Hessian has required structure
  Cycle:     20 Energy:     -1516.420690  Gnorm:      0.070080  CPU:    1.251
  ** Hessian has required structure
  Cycle:     21 Energy:     -1516.466802  Gnorm:      0.037443  CPU:    1.301
  ** Hessian has required structure
  Cycle:     22 Energy:     -1516.490911  Gnorm:      0.050619  CPU:    1.359
  ** Hessian has required structure
  Cycle:     23 Energy:     -1516.502791  Gnorm:      0.054846  CPU:    1.400
  ** Hessian has required structure
  Cycle:     24 Energy:     -1516.516780  Gnorm:      0.052067  CPU:    1.458
  ** Hessian has required structure
  Cycle:     25 Energy:     -1516.535512  Gnorm:      0.033060  CPU:    1.507
  ** Hessian has required structure
  Cycle:     26 Energy:     -1516.545314  Gnorm:      0.045210  CPU:    1.555
  ** Hessian has required structure
  Cycle:     27 Energy:     -1516.558871  Gnorm:      0.031112  CPU:    1.604
  ** Hessian has required structure
  Cycle:     28 Energy:     -1516.567828  Gnorm:      0.028059  CPU:    1.660
  ** Hessian has required structure
  Cycle:     29 Energy:     -1516.574175  Gnorm:      0.026888  CPU:    1.708
  ** Hessian has required structure
  Cycle:     30 Energy:     -1516.583321  Gnorm:      0.014133  CPU:    1.783
  ** Hessian has required structure
  Cycle:     31 Energy:     -1516.586225  Gnorm:      0.006888  CPU:    1.832
  ** Hessian has required structure
  Cycle:     32 Energy:     -1516.587162  Gnorm:      0.003268  CPU:    1.889
  ** Hessian has required structure
  Cycle:     33 Energy:     -1516.587386  Gnorm:      0.001650  CPU:    1.946
  ** Hessian has required structure
  Cycle:     34 Energy:     -1516.587439  Gnorm:      0.001026  CPU:    1.995
  ** Hessian has required structure
  Cycle:     35 Energy:     -1516.587462  Gnorm:      0.000534  CPU:    2.051
  ** Hessian has required structure
  Cycle:     36 Energy:     -1516.587468  Gnorm:      0.000331  CPU:    2.109
  ** Hessian has required structure
  Cycle:     37 Energy:     -1516.587468  Gnorm:      0.000297  CPU:    2.151
  ** Hessian has required structure
  Cycle:     38 Energy:     -1516.587468  Gnorm:      0.000297  CPU:    2.226
  ** Hessian has required structure
  Cycle:     39 Energy:     -1516.587468  Gnorm:      0.000297  CPU:    2.292
  ** Hessian has required structure
  Cycle:     40 Energy:     -1516.587468  Gnorm:      0.000297  CPU:    2.383
  ** Hessian calculated **


  **** Optimisation achieved ****


  Final energy =   -1516.58746821 eV      
  Final Gnorm  =       0.00029698

  Components of energy : 

--------------------------------------------------------------------------------
  Interatomic potentials     =         405.21475105 eV    
  Three-body potentials      =           0.06110041 eV    
  Monopole - monopole (real) =        -836.38263512 eV    
  Monopole - monopole (recip)=       -1085.48068455 eV    
  Monopole - monopole (total)=       -1921.86331967 eV    
--------------------------------------------------------------------------------
  Total lattice energy       =       -1516.58746821 eV    
--------------------------------------------------------------------------------
  Total lattice energy       =         -146327.5075 kJ/(mole unit cells)
--------------------------------------------------------------------------------

  Final fractional coordinates of atoms :

--------------------------------------------------------------------------------
   No.  Atomic        x           y          z          Radius
        Label       (Frac)      (Frac)     (Frac)       (Angs) 
--------------------------------------------------------------------------------
     1  Ge    c     0.331050    0.296920    0.607380    0.000000
     2  Ge    c     0.370143    0.707043    0.605988    0.000000
     3  Ge    c     0.125824    0.992857    0.624618    0.000000
     4  Ge    c     0.116621    0.956386    0.138903    0.000000
     5  Si    c     0.331687    0.256632    0.300712    0.000000
     6  Si    c     0.690868    0.243957    0.697982    0.000000
     7  Si    c     0.727217    0.635287    0.697866    0.000000
     8  Si    c     0.356486    0.667688    0.295018    0.000000
     9  Si    c     0.680872    0.225170    0.382961    0.000000
    10  Si    c     0.707021    0.623716    0.381089    0.000000
    11  Si    c     0.901739    0.922407    0.326037    0.000000
    12  Si    c     0.918933    0.947460    0.821549    0.000000
    13  O3    c     0.317551    0.200892    0.447133    0.000000
    14  O2    c     0.690422    0.193647    0.541864    0.000000
    15  O2    c     0.729626    0.670546    0.541425    0.000000
    16  O3    c     0.352661    0.761115    0.436730    0.000000
    17  O2    c     0.303913    0.467173    0.291059    0.000000
    18  O2    c     0.770005    0.432382    0.737514    0.000000
    19  O2    c     0.503446    0.210170    0.291085    0.000000
    20  O3    c     0.520047    0.256403    0.706851    0.000000
    21  O3    c     0.559059    0.681054    0.704343    0.000000
    22  O2    c     0.532073    0.667391    0.289886    0.000000
    23  O3    c     0.208478    0.152376    0.183885    0.000000
    24  O2    c     0.786832    0.099698    0.805674    0.000000
    25  O2    c     0.846601    0.755199    0.808761    0.000000
    26  O3    c     0.242972    0.777808    0.172704    0.000000
    27  O1    c     0.283733    0.511884    0.604123    0.000000
    28  O2    c     0.743618    0.416785    0.365850    0.000000
    29  O1    c     0.194353    0.198242    0.659685    0.000000
    30  O2    c     0.784655    0.082583    0.333167    0.000000
    31  O2    c     0.821056    0.737087    0.326417    0.000000
    32  O1    c     0.287250    0.860800    0.684046    0.000000
    33  O3    c     0.056978    0.935239    0.450149    0.000000
    34  O3    c     0.954222    0.933501    0.189226    0.000000
    35  O3    c     0.979397    0.965126    0.690344    0.000000
    36  O3    c     0.054211    0.966242    0.960015    0.000000
    37  O3    s     0.319896    0.213554    0.444870    0.000000
    38  O2    s     0.689418    0.202320    0.540990    0.000000
    39  O2    s     0.726945    0.661839    0.540419    0.000000
    40  O3    s     0.354357    0.747859    0.436180    0.000000
    41  O2    s     0.312264    0.466317    0.292479    0.000000
    42  O2    s     0.757500    0.434332    0.729284    0.000000
    43  O2    s     0.504925    0.216426    0.301663    0.000000
    44  O3    s     0.522590    0.258282    0.698229    0.000000
    45  O3    s     0.560929    0.678427    0.695543    0.000000
    46  O2    s     0.532433    0.662766    0.299927    0.000000
    47  O3    s     0.213831    0.147399    0.192418    0.000000
    48  O2    s     0.789972    0.099657    0.795710    0.000000
    49  O2    s     0.841175    0.762099    0.798153    0.000000
    50  O3    s     0.244548    0.780793    0.182639    0.000000
    51  O1    s     0.294303    0.509181    0.604540    0.000000
    52  O2    s     0.733442    0.418568    0.369202    0.000000
    53  O1    s     0.199689    0.189911    0.652935    0.000000
    54  O2    s     0.785339    0.081685    0.338076    0.000000
    55  O2    s     0.816968    0.743931    0.332343    0.000000
    56  O1    s     0.281858    0.858201    0.673245    0.000000
    57  O3    s     0.046684    0.938268    0.450974    0.000000
    58  O3    s     0.962159    0.934267    0.198634    0.000000
    59  O3    s     0.986648    0.965923    0.697670    0.000000
    60  O3    s     0.044529    0.963375    0.959383    0.000000
--------------------------------------------------------------------------------

  Final Cartesian lattice vectors (Angstroms) :

        9.145575    0.158074    0.115319
        0.129880    7.651168   -0.037087
       -3.189990   -0.102726    9.613238


  Final cell parameters and derivatives :

--------------------------------------------------------------------------------
       a            9.147667 Angstrom     dE/de1(xx)     0.018042 eV/strain
       b            7.652360 Angstrom     dE/de2(yy)     0.009942 eV/strain
       c           10.129212 Angstrom     dE/de3(zz)     0.006717 eV/strain
       alpha       91.150850 Degrees      dE/de4(yz)     0.000672 eV/strain
       beta       107.642008 Degrees      dE/de5(xz)     0.002866 eV/strain
       gamma       88.040954 Degrees      dE/de6(xy)     0.000464 eV/strain
--------------------------------------------------------------------------------

  Primitive cell volume =           675.279486 Angs**3

  Density of cell =      2.211105 g/cm**3

  Non-primitive cell volume =           675.279486 Angs**3


  Final internal derivatives :

--------------------------------------------------------------------------------
   No.  Atomic          a             b             c           Radius
        Label          (eV)          (eV)          (eV)        (eV/Angs)
--------------------------------------------------------------------------------
      1 Ge    c       0.000000      0.000000      0.000000      0.000000
      2 Ge    c      -0.004118     -0.004809     -0.012599      0.000000
      3 Ge    c      -0.004206      0.000186     -0.002793      0.000000
      4 Ge    c       0.007254      0.001154      0.000307      0.000000
      5 Si    c      -0.000748      0.000115      0.001947      0.000000
      6 Si    c       0.006386     -0.004788     -0.003190      0.000000
      7 Si    c       0.010965     -0.001236     -0.001820      0.000000
      8 Si    c      -0.000111     -0.001511      0.002239      0.000000
      9 Si    c      -0.000001     -0.000164     -0.001143      0.000000
     10 Si    c      -0.002179      0.001286     -0.000879      0.000000
     11 Si    c      -0.001420     -0.001115      0.001705      0.000000
     12 Si    c      -0.008894     -0.002197     -0.006565      0.000000
     13 O3    c       0.001206      0.001549      0.000406      0.000000
     14 O2    c       0.000232     -0.000780     -0.000726      0.000000
     15 O2    c       0.000039      0.000050     -0.002583      0.000000
     16 O3    c      -0.001079      0.000157      0.000858      0.000000
     17 O2    c       0.001344      0.004146     -0.000752      0.000000
     18 O2    c       0.004065      0.007669      0.004034      0.000000
     19 O2    c       0.001161     -0.000063     -0.000653      0.000000
     20 O3    c      -0.014803     -0.003593      0.004796      0.000000
     21 O3    c       0.001344      0.007141      0.012928      0.000000
     22 O2    c       0.002228     -0.000253      0.001533      0.000000
     23 O3    c      -0.000643      0.000220      0.000251      0.000000
     24 O2    c       0.000042     -0.000146      0.001191      0.000000
     25 O2    c       0.000610     -0.000096      0.000068      0.000000
     26 O3    c       0.001538     -0.001514      0.000966      0.000000
     27 O1    c      -0.003558     -0.001320      0.003581      0.000000
     28 O2    c      -0.000182     -0.000997     -0.000511      0.000000
     29 O1    c      -0.007678      0.004519      0.007712      0.000000
     30 O2    c      -0.001510      0.000966      0.001016      0.000000
     31 O2    c       0.000602      0.000291     -0.000181      0.000000
     32 O1    c       0.002355      0.001924      0.012049      0.000000
     33 O3    c       0.002384     -0.000606     -0.000959      0.000000
     34 O3    c      -0.008676     -0.001507      0.004436      0.000000
     35 O3    c      -0.008892     -0.000854     -0.000948      0.000000
     36 O3    c       0.015548      0.003003      0.003570      0.000000
     37 O3    s      -0.002683     -0.001008      0.001401      0.000000
     38 O2    s       0.004186     -0.000081     -0.005305      0.000000
     39 O2    s       0.005173      0.000349     -0.002708      0.000000
     40 O3    s      -0.001757     -0.001640     -0.004983      0.000000
     41 O2    s      -0.001787     -0.000313      0.001960      0.000000
     42 O2    s       0.002369     -0.002174     -0.001019      0.000000
     43 O2    s       0.000988     -0.001113     -0.001898      0.000000
     44 O3    s       0.000205      0.002411      0.002470      0.000000
     45 O3    s      -0.000402      0.001373     -0.000135      0.000000
     46 O2    s       0.000681      0.000431     -0.001759      0.000000
     47 O3    s       0.001178     -0.000023      0.000747      0.000000
     48 O2    s      -0.001658     -0.002888      0.002091      0.000000
     49 O2    s      -0.000653      0.000190     -0.001929      0.000000
     50 O3    s       0.000131      0.000513      0.000159      0.000000
     51 O1    s       0.000011     -0.003765     -0.001932      0.000000
     52 O2    s       0.000218      0.000439      0.001024      0.000000
     53 O1    s       0.006558     -0.001500     -0.006482      0.000000
     54 O2    s       0.000387     -0.001188      0.000733      0.000000
     55 O2    s      -0.001647      0.001057      0.000960      0.000000
     56 O1    s      -0.002852      0.001688     -0.003707      0.000000
     57 O3    s      -0.003646      0.000586     -0.001818      0.000000
     58 O3    s       0.004295      0.000575     -0.001968      0.000000
     59 O3    s      -0.000195     -0.002060     -0.004338      0.000000
     60 O3    s      -0.006661     -0.000339      0.004771      0.000000
--------------------------------------------------------------------------------
  Maximum abs         0.015548      0.007669      0.012928      0.000000
--------------------------------------------------------------------------------


  Born effective charge tensors : 

-------------------------------------------------------------------------------
  Atom             x           y             z
-------------------------------------------------------------------------------
    1 Ge    x       4.2472      0.2475      0.0464
            y       0.3502      4.1605     -0.1723
            z      -0.0955      0.1168      3.2211
-------------------------------------------------------------------------------
    2 Ge    x       4.0693     -0.4668      0.0145
            y      -0.1884      4.1707      0.2648
            z      -0.0418     -0.0682      3.3158
-------------------------------------------------------------------------------
    3 Ge    x       4.5655      0.3121      0.3474
            y      -0.1148      3.9148      0.0165
            z      -0.4485      0.0589      3.4115
-------------------------------------------------------------------------------
    4 Ge    x       4.0895      0.1303      0.2691
            y      -0.0483      3.9254      0.0138
            z       0.0624     -0.0713      4.6357
-------------------------------------------------------------------------------
    5 Si    x       3.3841      0.3722      0.2114
            y       0.3566      3.6314      0.4160
            z       0.3430      0.1780      3.3643
-------------------------------------------------------------------------------
    6 Si    x       3.4133     -0.3153      0.1000
            y      -0.0536      3.4525     -0.2007
            z       0.1692     -0.1781      2.9339
-------------------------------------------------------------------------------
    7 Si    x       3.3575      0.1401      0.0985
            y       0.1173      3.4634      0.2583
            z       0.2012      0.1374      2.9484
-------------------------------------------------------------------------------
    8 Si    x       3.3173     -0.4224      0.2773
            y      -0.2379      3.6475     -0.3664
            z       0.3485     -0.1463      3.3518
-------------------------------------------------------------------------------
    9 Si    x       3.2259     -0.2915      0.0436
            y      -0.1924      3.4557      0.0688
            z      -0.0472     -0.0104      2.7226
-------------------------------------------------------------------------------
   10 Si    x       3.2087      0.2399      0.0368
            y       0.3247      3.4560     -0.1107
            z      -0.0302     -0.0097      2.7265
-------------------------------------------------------------------------------
   11 Si    x       4.0858      0.1716     -0.3070
            y      -0.0224      3.4104      0.0013
            z      -0.2569     -0.0144      3.4917
-------------------------------------------------------------------------------
   12 Si    x       3.3752      0.1621     -0.1554
            y      -0.0775      3.3194     -0.0683
            z       0.6428      0.0959      4.4113
-------------------------------------------------------------------------------
   13 O3    x      -1.5074     -0.1508      0.4276
            y      -0.1509     -1.4961      0.0421
            z       0.4057     -0.0427     -2.3443
-------------------------------------------------------------------------------
   14 O2    x      -1.2324      0.1062      0.2416
            y       0.0632     -1.2806     -0.0175
            z       0.2535      0.0066     -2.0544
-------------------------------------------------------------------------------
   15 O2    x      -1.2139     -0.0864      0.2514
            y      -0.0805     -1.2785     -0.0554
            z       0.2235     -0.0451     -2.0612
-------------------------------------------------------------------------------
   16 O3    x      -1.4521      0.2109      0.3551
            y       0.1492     -1.5361     -0.1904
            z       0.3115     -0.1512     -2.3408
-------------------------------------------------------------------------------
   17 O2    x      -1.2050     -0.0823     -0.0585
            y      -0.1281     -2.5463      0.0252
            z      -0.0908      0.0374     -1.0972
-------------------------------------------------------------------------------
   18 O2    x      -1.1351     -0.0887     -0.0649
            y      -0.1674     -2.4610      0.0060
            z      -0.0909      0.0070     -1.1294
-------------------------------------------------------------------------------
   19 O2    x      -2.2372      0.0986     -0.3424
            y       0.0637     -1.2600     -0.0606
            z      -0.3782     -0.0148     -1.2109
-------------------------------------------------------------------------------
   20 O3    x      -2.8873      0.1696     -0.3851
            y       0.0772     -1.3432      0.0928
            z      -0.3678      0.0651     -1.3470
-------------------------------------------------------------------------------
   21 O3    x      -2.8073      0.2835     -0.4121
            y       0.2208     -1.3850     -0.0209
            z      -0.3712      0.0351     -1.3352
-------------------------------------------------------------------------------
   22 O2    x      -2.2383      0.0773     -0.3508
            y       0.0339     -1.2474      0.0950
            z      -0.3640      0.0638     -1.2079
-------------------------------------------------------------------------------
   23 O3    x      -1.7592     -0.8015     -0.6094
            y      -0.7401     -2.3319     -0.7656
            z      -0.6320     -0.7806     -1.9419
-------------------------------------------------------------------------------
   24 O2    x      -1.4673      0.5589     -0.2465
            y       0.5334     -1.9487      0.4645
            z      -0.3350      0.4613     -1.5172
-------------------------------------------------------------------------------
   25 O2    x      -1.3672     -0.5646     -0.2621
            y      -0.4625     -2.0477     -0.4475
            z      -0.3330     -0.4537     -1.5165
-------------------------------------------------------------------------------
   26 O3    x      -1.7852      0.7635     -0.5809
            y       0.7643     -2.2307      0.7370
            z      -0.6219      0.7570     -1.9647
-------------------------------------------------------------------------------
   27 O1    x      -1.5831     -0.1384     -0.0206
            y      -0.1950     -3.1657      0.0231
            z       0.0361      0.0359     -1.1682
-------------------------------------------------------------------------------
   28 O2    x      -1.2309     -0.0590      0.0104
            y      -0.1343     -2.5613      0.0199
            z       0.0462      0.0099     -1.0087
-------------------------------------------------------------------------------
   29 O1    x      -2.4029     -0.9817      0.1170
            y      -0.9176     -2.4766      0.0390
            z       0.2780      0.0407     -1.2869
-------------------------------------------------------------------------------
   30 O2    x      -1.9064      0.7939      0.1981
            y       0.8073     -2.0359     -0.1971
            z       0.1973     -0.1646     -1.1079
-------------------------------------------------------------------------------
   31 O2    x      -1.8554     -0.7683      0.2212
            y      -0.7336     -2.0547      0.1912
            z       0.2144      0.1544     -1.1054
-------------------------------------------------------------------------------
   32 O1    x      -2.4787      0.9872      0.0153
            y       1.0040     -2.2707     -0.1266
            z       0.1206     -0.0772     -1.4145
-------------------------------------------------------------------------------
   33 O3    x      -1.9541     -0.1185     -0.7065
            y      -0.0005     -1.3143     -0.1578
            z      -0.4094     -0.2222     -2.3602
-------------------------------------------------------------------------------
   34 O3    x      -2.6337     -0.1869      0.9277
            y      -0.0921     -1.2327      0.0717
            z       0.9759      0.1260     -2.1961
-------------------------------------------------------------------------------
   35 O3    x      -2.5165     -0.2266      0.8672
            y      -0.1228     -1.2770      0.1389
            z       0.8467      0.1367     -2.0525
-------------------------------------------------------------------------------
   36 O3    x      -1.4828     -0.0757     -0.5753
            y      -0.0049     -1.2257     -0.0278
            z      -0.7623     -0.0734     -3.7656
-------------------------------------------------------------------------------




  Elastic Constant Matrix: (Units=GPa)

-------------------------------------------------------------------------------
  Indices      1         2         3         4         5         6    
-------------------------------------------------------------------------------
       1     48.3100   24.4373    9.8947    0.6635    3.3975   13.8654
       2     24.4373   68.9659   16.6198    1.8506    7.6477   19.5289
       3      9.8947   16.6198   30.7081    1.2907   14.8362    2.5097
       4      0.6635    1.8506    1.2907   12.0960    0.4653    5.3254
       5      3.3975    7.6477   14.8362    0.4653   14.0962    1.5607
       6     13.8654   19.5289    2.5097    5.3254    1.5607   25.5090
-------------------------------------------------------------------------------


  Elastic Compliance Matrix: (Units=1/GPa)

-------------------------------------------------------------------------------
  Indices      1         2         3         4         5         6    
-------------------------------------------------------------------------------
       1    0.027993 -0.005428 -0.008236  0.005084  0.005992 -0.011677
       2   -0.005428  0.022679 -0.010003  0.004180  0.000984 -0.014360
       3   -0.008236 -0.010003  0.075186 -0.008026 -0.072658  0.010858
       4    0.005084  0.004180 -0.008026  0.093421  0.004634 -0.024961
       5    0.005992  0.000984 -0.072658  0.004634  0.146031 -0.006763
       6   -0.011677 -0.014360  0.010858 -0.024961 -0.006763  0.061100
-------------------------------------------------------------------------------

  Mechanical properties :

-------------------------------------------------------------------------------
  Convention :                    Reuss         Voigt         Hill
-------------------------------------------------------------------------------
  Bulk  Modulus (GPa)     =      12.73498      27.76528      20.25013
  Shear Modulus (GPa)     =      10.00165      16.80905      13.40535
-------------------------------------------------------------------------------
  Velocity S-wave (km/s)  =       2.12682       2.75719       2.46226
  Velocity P-wave (km/s)  =       3.43376       4.76375       4.15235
-------------------------------------------------------------------------------
  Compressibility (1/GPa) =    0.07852389
-------------------------------------------------------------------------------
  Stress axis :                     x             y             z
-------------------------------------------------------------------------------
  Youngs Moduli (GPa)     =      35.72354      44.09363      13.30039
-------------------------------------------------------------------------------
  Poissons Ratio (x)      =                     0.23936       0.10954
  Poissons Ratio (y)      =       0.19392                     0.13304
  Poissons Ratio (z)      =       0.29422       0.44105
-------------------------------------------------------------------------------


  Piezoelectric Strain Matrix: (Units=C/m**2)

-------------------------------------------------------------------------------
  Indices      1         2         3         4         5         6    
-------------------------------------------------------------------------------
       x    -0.03788   0.53364  -0.38715  -0.03203   0.46561  -0.42622
       y    -2.34514  -1.68364  -0.25440   0.26311  -0.33926  -0.08528
       z     0.16015   0.04679  -0.92757   0.08765   0.39682   0.06047
-------------------------------------------------------------------------------


  Piezoelectric Stress Matrix: (Units=10**-11 C/N)

-------------------------------------------------------------------------------
  Indices      1         2         3         4         5         6    
-------------------------------------------------------------------------------
       x     0.68354   2.26252  -7.23346   1.49484   9.91549  -3.98158
       y    -5.41112  -2.09178   3.86396   0.82173  -4.49690   3.93172
       z     1.39855   0.93582 -10.04062   1.69717  12.63465  -1.37903
-------------------------------------------------------------------------------


  Static dielectric constant tensor : 

-------------------------------------------------------------------------------
              x         y         z
-------------------------------------------------------------------------------
       x     4.42283   0.10504   0.11383
       y     0.10504   4.80910  -0.08110
       z     0.11383  -0.08110   3.88601
--------------------------------------------------------------------------------

  High frequency dielectric constant tensor : 

-------------------------------------------------------------------------------
              x         y         z
-------------------------------------------------------------------------------
       x     1.63863   0.00298   0.01304
       y     0.00298   1.65015   0.00019
       z     0.01304   0.00019   1.59139
-------------------------------------------------------------------------------

  Static refractive indices : 

-------------------------------------------------------------------------------
    1 =    1.96270      2 =    2.10407      3 =    2.19968
-------------------------------------------------------------------------------

  High frequency refractive indices : 

-------------------------------------------------------------------------------
    1 =    1.26017      2 =    1.28103      3 =    1.28495
-------------------------------------------------------------------------------


  Time to end of optimisation =       2.5194 seconds


  Peak dynamic memory used =       2.76 MB 


  Timing analysis for GULP :

--------------------------------------------------------------------------------
  Task / Subroutine                                          Time (Seconds)
--------------------------------------------------------------------------------
  Calculation of reciprocal space energy and derivatives          0.1683
  Calculation of real space energy and derivatives                2.0580
  Calculation of three-body energy and derivatives                0.0718
  Calculation and manipulation of Hessian matrix                  0.2656
  Calculation of matrix inversion                                 0.0042
  Global summation overhead                                       0.0001
--------------------------------------------------------------------------------
  Total CPU time                                                  2.5194
--------------------------------------------------------------------------------


  Dump file written as c00132.vasp.grs
  CIF file written as c00132.vasp.cif


  Job Finished at 22:43.55  6th October    2025                               

