********************************************************************************
*                       GENERAL UTILITY LATTICE PROGRAM                        *
*                                 Julian Gale                                  *
*                       Curtin Institute for Computation                       *
*                    School of Molecular and Life Sciences                     *
*                    Curtin University, Western Australia                      *
********************************************************************************
* Version = 6.1.2 * Last modified =   3rd November 2022                        *
********************************************************************************
*  optimise     - perform optimisation run                                     *
*  conp         - constant pressure calculation                                *
*  property     - calculate properties for final geometry                      *
********************************************************************************

  Job Started  at 22:42.32  6th October    2025                               

  Number of CPUs =     1


  Total number of configurations input =      1

********************************************************************************
*  Input for Configuration =   1 : c00107.vasp                                 *
********************************************************************************

  Formula = Ge4Si8O24                                                   

  Number of irreducible atoms/shells =      60


  Total number atoms/shells =      60

  Dimensionality = 3               :  Bulk   



  Cartesian lattice vectors (Angstroms) :

        9.086940    0.000000    0.000000
        0.000000    7.554810    0.000000
       -3.295144    0.000000    9.944380

  Cell parameters (Angstroms/Degrees):

  a =       9.0869    alpha =  90.0000
  b =       7.5548    beta  = 108.3330
  c =      10.4761    gamma =  90.0000

  Initial cell volume =         682.682735 Angs**3

  Temperature of configuration =   0.00     K 

  Pressure of configuration =         0.000 GPa 

  Fractional coordinates of asymmetric unit :

--------------------------------------------------------------------------------
   No.  Atomic       x           y          z         Charge      Occupancy
        Label      (Frac)      (Frac)     (Frac)        (e)         (Frac)  
--------------------------------------------------------------------------------
      1 Ge    c    0.313820    0.296860    0.309830     4.00000    1.000000    
      2 Ge    c    0.331050 *  0.703080 *  0.607380 *   4.00000    1.000000    
      3 Ge    c    0.879680 *  0.000000 *  0.350160 *   4.00000    1.000000    
      4 Ge    c    0.093070 *  0.000000 *  0.158230 *   4.00000    1.000000    
      5 Si    c    0.686180 *  0.296860 *  0.690170 *   4.00000    1.000000    
      6 Si    c    0.686180 *  0.703140 *  0.690170 *   4.00000    1.000000    
      7 Si    c    0.313820 *  0.703140 *  0.309830 *   4.00000    1.000000    
      8 Si    c    0.331050 *  0.296920 *  0.607380 *   4.00000    1.000000    
      9 Si    c    0.668950 *  0.296920 *  0.392620 *   4.00000    1.000000    
     10 Si    c    0.668950 *  0.703080 *  0.392620 *   4.00000    1.000000    
     11 Si    c    0.120320 *  0.000000 *  0.649840 *   4.00000    1.000000    
     12 Si    c    0.906930 *  0.000000 *  0.841770 *   4.00000    1.000000    
     13 O3    c    0.268740 *  0.279030 *  0.446100 *   1.33043    1.000000    
     14 O2    c    0.731260 *  0.279030 *  0.553900 *   0.87073    1.000000    
     15 O2    c    0.731260 *  0.720970 *  0.553900 *   0.87073    1.000000    
     16 O3    c    0.268740 *  0.720970 *  0.446100 *   1.33043    1.000000    
     17 O3    c    0.295480 *  0.500000 *  0.260860 *   1.33043    1.000000    
     18 O2    c    0.704520 *  0.500000 *  0.739140 *   0.87073    1.000000    
     19 O3    c    0.490600 *  0.234690 *  0.337530 *   1.33043    1.000000    
     20 O2    c    0.509400 *  0.234690 *  0.662470 *   0.87073    1.000000    
     21 O3    c    0.509400 *  0.765310 *  0.662470 *   1.33043    1.000000    
     22 O2    c    0.490600 *  0.765310 *  0.337530 *   0.87073    1.000000    
     23 O1    c    0.200440 *  0.174000 *  0.194980 *   1.73396    1.000000    
     24 O2    c    0.799560 *  0.174000 *  0.805020 *   0.87073    1.000000    
     25 O2    c    0.799560 *  0.826000 *  0.805020 *   0.87073    1.000000    
     26 O3    c    0.200440 *  0.826000 *  0.194980 *   1.33043    1.000000    
     27 O3    c    0.317860 *  0.500000 *  0.649090 *   1.33043    1.000000    
     28 O2    c    0.682140 *  0.500000 *  0.350910 *   0.87073    1.000000    
     29 O2    c    0.227920 *  0.173870 *  0.671620 *   0.87073    1.000000    
     30 O3    c    0.772080 *  0.173870 *  0.328380 *   1.33043    1.000000    
     31 O3    c    0.772080 *  0.826130 *  0.328380 *   1.33043    1.000000    
     32 O3    c    0.227920 *  0.826130 *  0.671620 *   1.33043    1.000000    
     33 O3    c    0.000000 *  0.000000 *  0.500000 *   1.33043    1.000000    
     34 O1    c    0.971960 *  0.000000 *  0.241930 *   1.73396    1.000000    
     35 O2    c    0.028040 *  0.000000 *  0.758070 *   0.87073    1.000000    
     36 O3    c    0.000000 *  0.000000 *  0.000000 *   1.33043    1.000000    
     37 O3    s    0.268740 *  0.279030 *  0.446100 *  -3.33043    1.000000    
     38 O2    s    0.731260 *  0.279030 *  0.553900 *  -2.87073    1.000000    
     39 O2    s    0.731260 *  0.720970 *  0.553900 *  -2.87073    1.000000    
     40 O3    s    0.268740 *  0.720970 *  0.446100 *  -3.33043    1.000000    
     41 O3    s    0.295480 *  0.500000 *  0.260860 *  -3.33043    1.000000    
     42 O2    s    0.704520 *  0.500000 *  0.739140 *  -2.87073    1.000000    
     43 O3    s    0.490600 *  0.234690 *  0.337530 *  -3.33043    1.000000    
     44 O2    s    0.509400 *  0.234690 *  0.662470 *  -2.87073    1.000000    
     45 O3    s    0.509400 *  0.765310 *  0.662470 *  -3.33043    1.000000    
     46 O2    s    0.490600 *  0.765310 *  0.337530 *  -2.87073    1.000000    
     47 O1    s    0.200440 *  0.174000 *  0.194980 *  -3.73396    1.000000    
     48 O2    s    0.799560 *  0.174000 *  0.805020 *  -2.87073    1.000000    
     49 O2    s    0.799560 *  0.826000 *  0.805020 *  -2.87073    1.000000    
     50 O3    s    0.200440 *  0.826000 *  0.194980 *  -3.33043    1.000000    
     51 O3    s    0.317860 *  0.500000 *  0.649090 *  -3.33043    1.000000    
     52 O2    s    0.682140 *  0.500000 *  0.350910 *  -2.87073    1.000000    
     53 O2    s    0.227920 *  0.173870 *  0.671620 *  -2.87073    1.000000    
     54 O3    s    0.772080 *  0.173870 *  0.328380 *  -3.33043    1.000000    
     55 O3    s    0.772080 *  0.826130 *  0.328380 *  -3.33043    1.000000    
     56 O3    s    0.227920 *  0.826130 *  0.671620 *  -3.33043    1.000000    
     57 O3    s    0.000000 *  0.000000 *  0.500000 *  -3.33043    1.000000    
     58 O1    s    0.971960 *  0.000000 *  0.241930 *  -3.73396    1.000000    
     59 O2    s    0.028040 *  0.000000 *  0.758070 *  -2.87073    1.000000    
     60 O3    s    0.000000 *  0.000000 *  0.000000 *  -3.33043    1.000000    
--------------------------------------------------------------------------------



********************************************************************************
*  General input information                                                   *
********************************************************************************

  Species output for all configurations : 

--------------------------------------------------------------------------------
  Species    Type    Atomic    Atomic    Charge       Radii (Angs)     Library
                     Number     Mass       (e)     Cova   Ionic  VDW   Symbol
--------------------------------------------------------------------------------
    Ge       Core       32      72.61   4.000000   1.170  0.000  1.750 Ge       
    Si       Core       14      28.09   4.000000   1.200  0.000  2.100 Si       
    O1       Core        8      16.00   1.733957   0.730  0.000  1.360 O1       
    O2       Core        8      16.00   0.870733   0.730  0.000  1.360 O2       
    O3       Core        8      16.00   1.330431   0.730  0.000  1.360 O3       
    O1       Shell       8       0.00  -3.733957   0.730  0.000  0.000 O1       
    O2       Shell       8       0.00  -2.870733   0.730  0.000  0.000 O2       
    O3       Shell       8       0.00  -3.330431   0.730  0.000  0.000 O3       
--------------------------------------------------------------------------------


  Lattice summation method               =    Ewald          (3-D)
                                         =    Parry          (2-D)
                                         =    Saunders et al (1-D)
  Accuracy factor for lattice sums       =   12.000


  Analytic derivatives to be used

  Time limit = Infinity

  Maximum range for interatomic potentials =    100000.000000 Angstroms

  General interatomic potentials :

--------------------------------------------------------------------------------
Atom  Types   Potential      Parameter       Value         Units   Cutoffs(Ang)
  1     2                                                            Min /  Max 
--------------------------------------------------------------------------------
Si   c O1   s Buckingham    Buckingham A     1315.2478    eV        0.000 16.000
                            Buckingham rho  0.31775900    Ang       
                            Buckingham C     10.141118    eV*Ang^6  
--------------------------------------------------------------------------------
Si   c O2   s Buckingham    Buckingham A     1315.2478    eV        0.000 16.000
                            Buckingham rho  0.31775900    Ang       
                            Buckingham C     10.141118    eV*Ang^6  
--------------------------------------------------------------------------------
Si   c O3   s Buckingham    Buckingham A     1315.2478    eV        0.000 16.000
                            Buckingham rho  0.31775900    Ang       
                            Buckingham C     10.141118    eV*Ang^6  
--------------------------------------------------------------------------------
Ge   c O1   s Buckingham    Buckingham A     1497.3996    eV        0.000 16.000
                            Buckingham rho  0.32564600    Ang       
                            Buckingham C     16.808599    eV*Ang^6  
--------------------------------------------------------------------------------
Ge   c O2   s Buckingham    Buckingham A     1497.3996    eV        0.000 16.000
                            Buckingham rho  0.32564600    Ang       
                            Buckingham C     16.808599    eV*Ang^6  
--------------------------------------------------------------------------------
Ge   c O3   s Buckingham    Buckingham A     1497.3996    eV        0.000 16.000
                            Buckingham rho  0.32564600    Ang       
                            Buckingham C     16.808599    eV*Ang^6  
--------------------------------------------------------------------------------
O1   s O1   s Buckingham    Buckingham A     22764.000    eV        0.000 16.000
                            Buckingham rho  0.14900000    Ang       
                            Buckingham C     10.937044    eV*Ang^6  
--------------------------------------------------------------------------------
O1   s O2   s Buckingham    Buckingham A     22764.000    eV        0.000 16.000
                            Buckingham rho  0.14900000    Ang       
                            Buckingham C     10.937044    eV*Ang^6  
--------------------------------------------------------------------------------
O1   s O3   s Buckingham    Buckingham A     22764.000    eV        0.000 16.000
                            Buckingham rho  0.14900000    Ang       
                            Buckingham C     10.937044    eV*Ang^6  
--------------------------------------------------------------------------------
O2   s O2   s Buckingham    Buckingham A     22764.000    eV        0.000 16.000
                            Buckingham rho  0.14900000    Ang       
                            Buckingham C     10.937044    eV*Ang^6  
--------------------------------------------------------------------------------
O2   s O3   s Buckingham    Buckingham A     22764.000    eV        0.000 16.000
                            Buckingham rho  0.14900000    Ang       
                            Buckingham C     10.937044    eV*Ang^6  
--------------------------------------------------------------------------------
O3   s O3   s Buckingham    Buckingham A     22764.000    eV        0.000 16.000
                            Buckingham rho  0.14900000    Ang       
                            Buckingham C     10.937044    eV*Ang^6  
--------------------------------------------------------------------------------
O1   c O1   s Spring (c-s)  Spring k 2       180.31577    eV*Ang^-2 0.000  0.800
                            Spring k 4       0.0000000    eV*Ang^-4 
--------------------------------------------------------------------------------
O2   c O2   s Spring (c-s)  Spring k 2       75.969800    eV*Ang^-2 0.000  0.800
                            Spring k 4       0.0000000    eV*Ang^-4 
--------------------------------------------------------------------------------
O3   c O3   s Spring (c-s)  Spring k 2       128.14270    eV*Ang^-2 0.000  0.800
                            Spring k 4       0.0000000    eV*Ang^-4 
--------------------------------------------------------------------------------

  General Three-body potentials :

--------------------------------------------------------------------------------
  Atoms       Potential      Parameter       Value         Units   Cutoffs(Ang)
  1 / 2 / 3                                                          Min /  Max 
--------------------------------------------------------------------------------
Si    core    Harmonic      Three-body cnst  1.2614000    eV*rad^-2 0.000  1.900
O1    shel                  Three-body angl  109.47000    degrees   0.000  1.900
O1    shel                  Three-body k4    0.0000000    eV*rad^-4 0.000  3.500
                            Three-body k3    0.0000000    eV*rad^-3 
--------------------------------------------------------------------------------
Si    core    Harmonic      Three-body cnst  1.2614000    eV*rad^-2 0.000  1.900
O1    shel                  Three-body angl  109.47000    degrees   0.000  1.900
õ(1   shel                  Three-body k4    0.0000000    eV*rad^-4 0.000  3.500
                            Three-body k3    0.0000000    eV*rad^-3 
--------------------------------------------------------------------------------
Si    core    Harmonic      Three-body cnst  1.2614000    eV*rad^-2 0.000  1.900
õ(1   shel                  Three-body angl  109.47000    degrees   0.000  1.900
õ(1   shel                  Three-body k4    0.0000000    eV*rad^-4 0.000  3.500
                            Three-body k3    0.0000000    eV*rad^-3 
--------------------------------------------------------------------------------
Si    core    Harmonic      Three-body cnst  1.2614000    eV*rad^-2 0.000  1.900
O1    shel                  Three-body angl  109.47000    degrees   0.000  1.900
O2    shel                  Three-body k4    0.0000000    eV*rad^-4 0.000  3.500
                            Three-body k3    0.0000000    eV*rad^-3 
--------------------------------------------------------------------------------
Si    core    Harmonic      Three-body cnst  1.2614000    eV*rad^-2 0.000  1.900
O1    shel                  Three-body angl  109.47000    degrees   0.000  1.900
õ(2   shel                  Three-body k4    0.0000000    eV*rad^-4 0.000  3.500
                            Three-body k3    0.0000000    eV*rad^-3 
--------------------------------------------------------------------------------
Si    core    Harmonic      Three-body cnst  1.2614000    eV*rad^-2 0.000  1.900
O2    shel                  Three-body angl  109.47000    degrees   0.000  1.900
õ(1   shel                  Three-body k4    0.0000000    eV*rad^-4 0.000  3.500
                            Three-body k3    0.0000000    eV*rad^-3 
--------------------------------------------------------------------------------
Si    core    Harmonic      Three-body cnst  1.2614000    eV*rad^-2 0.000  1.900
õ(1   shel                  Three-body angl  109.47000    degrees   0.000  1.900
õ(2   shel                  Three-body k4    0.0000000    eV*rad^-4 0.000  3.500
                            Three-body k3    0.0000000    eV*rad^-3 
--------------------------------------------------------------------------------
Si    core    Harmonic      Three-body cnst  1.2614000    eV*rad^-2 0.000  1.900
O2    shel                  Three-body angl  109.47000    degrees   0.000  1.900
O2    shel                  Three-body k4    0.0000000    eV*rad^-4 0.000  3.500
                            Three-body k3    0.0000000    eV*rad^-3 
--------------------------------------------------------------------------------
Si    core    Harmonic      Three-body cnst  1.2614000    eV*rad^-2 0.000  1.900
O2    shel                  Three-body angl  109.47000    degrees   0.000  1.900
õ(2   shel                  Three-body k4    0.0000000    eV*rad^-4 0.000  3.500
                            Three-body k3    0.0000000    eV*rad^-3 
--------------------------------------------------------------------------------
Si    core    Harmonic      Three-body cnst  1.2614000    eV*rad^-2 0.000  1.900
õ(2   shel                  Three-body angl  109.47000    degrees   0.000  1.900
õ(2   shel                  Three-body k4    0.0000000    eV*rad^-4 0.000  3.500
                            Three-body k3    0.0000000    eV*rad^-3 
--------------------------------------------------------------------------------

********************************************************************************
*  Output for configuration   1 : c00107.vasp                                  *
********************************************************************************


  Components of energy : 

--------------------------------------------------------------------------------
  Interatomic potentials     =         400.32124075 eV    
  Three-body potentials      =           0.00003877 eV    
  Monopole - monopole (real) =       -1236.99964305 eV    
  Monopole - monopole (recip)=        -659.26603192 eV    
  Monopole - monopole (total)=       -1896.26567496 eV    
--------------------------------------------------------------------------------
  Total lattice energy       =       -1495.94439544 eV    
--------------------------------------------------------------------------------
  Total lattice energy       =         -144335.7666 kJ/(mole unit cells)
--------------------------------------------------------------------------------


  Number of variables =      183

  Maximum number of calculations  =          1000
  Maximum Hessian update interval =            10
  Maximum step size               =   0.100000000
  Maximum parameter tolerance     =   0.000010000
  Maximum function  tolerance     =   0.000010000
  Maximum gradient  tolerance     =   0.001000000
  Maximum gradient  component     =   0.010000000

  Symmetry not applied to optimisation

  Cell parameters to be optimised using strains

  Newton-Raphson optimiser to be used

  BFGS hessian update to be used

  Lower half triangular hessian to be used

  Minimiser to switch to RFO
  When gradient norm is less than     0.050000

  Dumpfile to be written after every cycle

  Start of bulk optimisation :

  Cycle:      0 Energy:     -1495.944395  Gnorm:      5.530802  CPU:    0.034
  ** Hessian calculated **
  Cycle:      1 Energy:     -1511.900885  Gnorm:      1.426604  CPU:    0.076
  ** Hessian calculated **
  Cycle:      2 Energy:     -1514.640355  Gnorm:      0.871572  CPU:    0.151
  ** Hessian calculated **
  Cycle:      3 Energy:     -1515.250613  Gnorm:      0.484620  CPU:    0.219
  Cycle:      4 Energy:     -1515.526448  Gnorm:      0.312850  CPU:    0.261
  Cycle:      5 Energy:     -1515.781112  Gnorm:      0.255097  CPU:    0.311
  Cycle:      6 Energy:     -1516.026356  Gnorm:      0.218906  CPU:    0.362
  Cycle:      7 Energy:     -1516.167164  Gnorm:      0.172379  CPU:    0.404
  Cycle:      8 Energy:     -1516.251390  Gnorm:      0.134326  CPU:    0.446
  Cycle:      9 Energy:     -1516.296160  Gnorm:      0.106251  CPU:    0.488
  Cycle:     10 Energy:     -1516.320666  Gnorm:      0.079972  CPU:    0.530
  Cycle:     11 Energy:     -1516.338832  Gnorm:      0.073571  CPU:    0.572
  Cycle:     12 Energy:     -1516.359936  Gnorm:      0.078550  CPU:    0.622
  ** Hessian calculated **
  Cycle:     13 Energy:     -1516.367148  Gnorm:      0.067602  CPU:    0.697
  Cycle:     14 Energy:     -1516.377039  Gnorm:      0.061818  CPU:    0.747
  Cycle:     15 Energy:     -1516.392831  Gnorm:      0.062359  CPU:    0.805
  Cycle:     16 Energy:     -1516.410453  Gnorm:      0.058528  CPU:    0.855
  Cycle:     17 Energy:     -1516.429642  Gnorm:      0.058974  CPU:    0.904
  Cycle:     18 Energy:     -1516.444155  Gnorm:      0.059013  CPU:    0.946
  Cycle:     19 Energy:     -1516.456546  Gnorm:      0.065047  CPU:    0.996
  Cycle:     20 Energy:     -1516.468287  Gnorm:      0.067500  CPU:    1.046
  Cycle:     21 Energy:     -1516.482867  Gnorm:      0.068012  CPU:    1.095
  Cycle:     22 Energy:     -1516.501940  Gnorm:      0.067151  CPU:    1.145
  ** Hessian calculated **
  Cycle:     23 Energy:     -1516.516887  Gnorm:      0.065361  CPU:    1.220
  Cycle:     24 Energy:     -1516.541293  Gnorm:      0.062064  CPU:    1.278
  Cycle:     25 Energy:     -1516.571770  Gnorm:      0.057363  CPU:    1.327
  Cycle:     26 Energy:     -1516.621825  Gnorm:      0.048189  CPU:    1.385
  ** Hessian has wrong structure
  ** Imaginary eigenvectors =   2
  Cycle:     27 Energy:     -1516.636757  Gnorm:      0.147674  CPU:    1.497
  ** Hessian has wrong structure
  ** Imaginary eigenvectors =   2
  ** Hessian has wrong structure
  ** Imaginary eigenvectors =   1
  Cycle:     28 Energy:     -1516.650129  Gnorm:      0.149449  CPU:    1.667
  ** Hessian has wrong structure
  ** Imaginary eigenvectors =   1
  ** Hessian has required structure
  Cycle:     29 Energy:     -1516.746166  Gnorm:      0.078838  CPU:    1.828
  ** Hessian has required structure
  Cycle:     30 Energy:     -1516.776953  Gnorm:      0.045160  CPU:    1.885
  ** Hessian has required structure
  Cycle:     31 Energy:     -1516.788114  Gnorm:      0.017864  CPU:    1.934
  ** Hessian has required structure
  Cycle:     32 Energy:     -1516.792419  Gnorm:      0.016908  CPU:    1.999
  ** Hessian has required structure
  Cycle:     33 Energy:     -1516.797205  Gnorm:      0.017988  CPU:    2.056
  ** Hessian has required structure
  Cycle:     34 Energy:     -1516.801442  Gnorm:      0.017958  CPU:    2.105
  ** Hessian has required structure
  Cycle:     35 Energy:     -1516.803942  Gnorm:      0.020065  CPU:    2.154
  ** Hessian has required structure
  Cycle:     36 Energy:     -1516.805793  Gnorm:      0.014843  CPU:    2.203
  ** Hessian has required structure
  Cycle:     37 Energy:     -1516.806960  Gnorm:      0.015044  CPU:    2.260
  ** Hessian has required structure
  Cycle:     38 Energy:     -1516.808138  Gnorm:      0.008309  CPU:    2.309
  ** Hessian has required structure
  Cycle:     39 Energy:     -1516.809253  Gnorm:      0.004569  CPU:    2.391
  ** Hessian has required structure
  Cycle:     40 Energy:     -1516.809553  Gnorm:      0.002614  CPU:    2.447
  ** Hessian has required structure
  Cycle:     41 Energy:     -1516.809642  Gnorm:      0.001353  CPU:    2.504
  ** Hessian has required structure
  Cycle:     42 Energy:     -1516.809667  Gnorm:      0.000841  CPU:    2.553
  ** Hessian has required structure
  Cycle:     43 Energy:     -1516.809678  Gnorm:      0.000423  CPU:    2.610
  ** Hessian has required structure
  Cycle:     44 Energy:     -1516.809679  Gnorm:      0.000299  CPU:    2.650
  ** Hessian has required structure
  Cycle:     45 Energy:     -1516.809680  Gnorm:      0.000209  CPU:    2.691
  ** Hessian has required structure


  **** Optimisation achieved ****


  Final energy =   -1516.80968051 eV      
  Final Gnorm  =       0.00014703

  Components of energy : 

--------------------------------------------------------------------------------
  Interatomic potentials     =         402.77596720 eV    
  Three-body potentials      =           0.05930274 eV    
  Monopole - monopole (real) =        -843.61214830 eV    
  Monopole - monopole (recip)=       -1076.03280215 eV    
  Monopole - monopole (total)=       -1919.64495045 eV    
--------------------------------------------------------------------------------
  Total lattice energy       =       -1516.80968051 eV    
--------------------------------------------------------------------------------
  Total lattice energy       =         -146348.9476 kJ/(mole unit cells)
--------------------------------------------------------------------------------

  Final fractional coordinates of atoms :

--------------------------------------------------------------------------------
   No.  Atomic        x           y          z          Radius
        Label       (Frac)      (Frac)     (Frac)       (Angs) 
--------------------------------------------------------------------------------
     1  Ge    c     0.313820    0.296860    0.309830    0.000000
     2  Ge    c     0.367357    0.682632    0.636733    0.000000
     3  Ge    c     0.900120    0.945897    0.350016    0.000000
     4  Ge    c     0.106285    0.985812    0.153038    0.000000
     5  Si    c     0.698769    0.242425    0.706018    0.000000
     6  Si    c     0.731675    0.640932    0.715578    0.000000
     7  Si    c     0.349622    0.698415    0.323596    0.000000
     8  Si    c     0.342014    0.284303    0.629735    0.000000
     9  Si    c     0.672505    0.241876    0.396846    0.000000
    10  Si    c     0.705328    0.642259    0.409855    0.000000
    11  Si    c     0.141634    0.979000    0.648241    0.000000
    12  Si    c     0.932260    0.949191    0.835235    0.000000
    13  O3    c     0.288875    0.282387    0.467209    0.000000
    14  O2    c     0.719544    0.209491    0.559621    0.000000
    15  O2    c     0.765027    0.661802    0.573104    0.000000
    16  O3    c     0.308665    0.711837    0.462870    0.000000
    17  O3    c     0.301531    0.511664    0.258916    0.000000
    18  O2    c     0.749938    0.436874    0.759128    0.000000
    19  O3    c     0.493670    0.208299    0.324500    0.000000
    20  O2    c     0.520399    0.217637    0.691373    0.000000
    21  O3    c     0.562965    0.711234    0.704024    0.000000
    22  O2    c     0.532643    0.721391    0.355507    0.000000
    23  O1    c     0.168915    0.192539    0.194731    0.000000
    24  O2    c     0.801289    0.101672    0.814028    0.000000
    25  O2    c     0.854884    0.759457    0.823663    0.000000
    26  O3    c     0.264208    0.850142    0.222851    0.000000
    27  O3    c     0.326679    0.476351    0.679722    0.000000
    28  O2    c     0.706416    0.441572    0.368880    0.000000
    29  O2    c     0.235024    0.158067    0.682776    0.000000
    30  O3    c     0.772879    0.117329    0.336399    0.000000
    31  O3    c     0.816066    0.747074    0.350181    0.000000
    32  O3    c     0.264603    0.823187    0.703796    0.000000
    33  O3    c     0.065067    0.965087    0.486405    0.000000
    34  O1    c     0.953165    0.942901    0.206300    0.000000
    35  O2    c     0.009844    0.976004    0.717955    0.000000
    36  O3    c     0.058045    0.963196    0.979269    0.000000
    37  O3    s     0.296279    0.283760    0.470632    0.000000
    38  O2    s     0.712472    0.216323    0.558318    0.000000
    39  O2    s     0.755177    0.657551    0.571060    0.000000
    40  O3    s     0.317403    0.708160    0.463654    0.000000
    41  O3    s     0.307235    0.512730    0.269371    0.000000
    42  O2    s     0.742804    0.437987    0.749212    0.000000
    43  O3    s     0.497356    0.218685    0.330573    0.000000
    44  O2    s     0.521397    0.227181    0.686595    0.000000
    45  O3    s     0.563827    0.701753    0.699631    0.000000
    46  O2    s     0.532093    0.710419    0.358063    0.000000
    47  O1    s     0.175848    0.185119    0.200868    0.000000
    48  O2    s     0.803570    0.101386    0.804508    0.000000
    49  O2    s     0.849706    0.766222    0.813402    0.000000
    50  O3    s     0.260284    0.845131    0.227900    0.000000
    51  O3    s     0.331501    0.473323    0.671189    0.000000
    52  O2    s     0.702780    0.442417    0.376240    0.000000
    53  O2    s     0.236807    0.153067    0.673450    0.000000
    54  O3    s     0.772887    0.116198    0.343985    0.000000
    55  O3    s     0.811038    0.752005    0.356596    0.000000
    56  O3    s     0.261105    0.826746    0.692738    0.000000
    57  O3    s     0.058918    0.964851    0.490952    0.000000
    58  O1    s     0.961232    0.946567    0.213193    0.000000
    59  O2    s     0.016289    0.973408    0.722727    0.000000
    60  O3    s     0.048239    0.963549    0.977909    0.000000
--------------------------------------------------------------------------------

  Final Cartesian lattice vectors (Angstroms) :

        9.155551    0.084797   -0.004207
        0.071150    7.701973    0.051765
       -3.323686    0.038090    9.820240


  Final cell parameters and derivatives :

--------------------------------------------------------------------------------
       a            9.155945 Angstrom     dE/de1(xx)     0.006719 eV/strain
       b            7.702476 Angstrom     dE/de2(yy)     0.008861 eV/strain
       c           10.367519 Angstrom     dE/de3(zz)     0.001839 eV/strain
       alpha       89.594447 Degrees      dE/de4(yz)     0.000321 eV/strain
       beta       108.721832 Degrees      dE/de5(xz)     0.001323 eV/strain
       gamma       88.940276 Degrees      dE/de6(xy)    -0.000500 eV/strain
--------------------------------------------------------------------------------

  Primitive cell volume =           692.282547 Angs**3

  Density of cell =      2.156799 g/cm**3

  Non-primitive cell volume =           692.282547 Angs**3


  Final internal derivatives :

--------------------------------------------------------------------------------
   No.  Atomic          a             b             c           Radius
        Label          (eV)          (eV)          (eV)        (eV/Angs)
--------------------------------------------------------------------------------
      1 Ge    c       0.000000      0.000000      0.000000      0.000000
      2 Ge    c       0.000933     -0.000494     -0.001207      0.000000
      3 Ge    c       0.003782     -0.001048     -0.002927      0.000000
      4 Ge    c      -0.002828      0.000281     -0.003865      0.000000
      5 Si    c       0.000617     -0.001132     -0.000947      0.000000
      6 Si    c       0.001530      0.000618     -0.000979      0.000000
      7 Si    c      -0.001460      0.000207      0.003929      0.000000
      8 Si    c      -0.000729     -0.000656      0.000524      0.000000
      9 Si    c      -0.000653     -0.001034      0.004914      0.000000
     10 Si    c      -0.001169      0.000049      0.001991      0.000000
     11 Si    c      -0.002693      0.000628     -0.000816      0.000000
     12 Si    c       0.002058      0.000088      0.000294      0.000000
     13 O3    c      -0.001094     -0.000768     -0.000355      0.000000
     14 O2    c      -0.000222     -0.000109     -0.000104      0.000000
     15 O2    c      -0.000005      0.000298      0.000135      0.000000
     16 O3    c       0.000632      0.000054     -0.002374      0.000000
     17 O3    c      -0.000490     -0.002853     -0.003968      0.000000
     18 O2    c       0.000402     -0.000634     -0.000021      0.000000
     19 O3    c      -0.003950     -0.001880     -0.000325      0.000000
     20 O2    c       0.002548     -0.000440     -0.000655      0.000000
     21 O3    c      -0.002413      0.000760      0.000027      0.000000
     22 O2    c       0.003245      0.000990     -0.000138      0.000000
     23 O1    c       0.000544      0.004827     -0.000735      0.000000
     24 O2    c      -0.000512      0.000538     -0.000273      0.000000
     25 O2    c       0.000008     -0.000403      0.000551      0.000000
     26 O3    c       0.004653     -0.001777     -0.003773      0.000000
     27 O3    c      -0.001592      0.000650      0.001724      0.000000
     28 O2    c       0.000577      0.003806     -0.000965      0.000000
     29 O2    c       0.000859      0.000959      0.000714      0.000000
     30 O3    c      -0.000171      0.003917     -0.003001      0.000000
     31 O3    c      -0.001684     -0.003017     -0.001441      0.000000
     32 O3    c      -0.001669      0.000005      0.003475      0.000000
     33 O3    c       0.003774      0.000143      0.008508      0.000000
     34 O1    c      -0.006356     -0.000333      0.005067      0.000000
     35 O2    c      -0.001384     -0.000030     -0.000254      0.000000
     36 O3    c       0.000303      0.000373     -0.000510      0.000000
     37 O3    s      -0.000145      0.000733     -0.000134      0.000000
     38 O2    s      -0.000138      0.000178      0.001346      0.000000
     39 O2    s       0.000180     -0.000621     -0.000714      0.000000
     40 O3    s      -0.001143      0.000282      0.003191      0.000000
     41 O3    s      -0.000075      0.000100      0.002353      0.000000
     42 O2    s      -0.000568     -0.000204      0.000258      0.000000
     43 O3    s       0.001352      0.000077     -0.000656      0.000000
     44 O2    s      -0.000364      0.000544      0.001513      0.000000
     45 O3    s       0.000732     -0.000724      0.000429      0.000000
     46 O2    s       0.000796     -0.000155     -0.000277      0.000000
     47 O1    s      -0.000365     -0.000881      0.000165      0.000000
     48 O2    s      -0.000649     -0.000123      0.001334      0.000000
     49 O2    s       0.000173      0.000180      0.000867      0.000000
     50 O3    s      -0.001654      0.000967      0.002122      0.000000
     51 O3    s       0.001103      0.000710     -0.002070      0.000000
     52 O2    s       0.000398      0.000499     -0.000403      0.000000
     53 O2    s      -0.000524     -0.000909     -0.000499      0.000000
     54 O3    s       0.000930     -0.001317      0.000337      0.000000
     55 O3    s      -0.000242     -0.000656      0.000088      0.000000
     56 O3    s       0.000335      0.000273     -0.002224      0.000000
     57 O3    s       0.001463     -0.000703     -0.004533      0.000000
     58 O1    s       0.002268     -0.000454     -0.003494      0.000000
     59 O2    s       0.000728     -0.000314     -0.000356      0.000000
     60 O3    s      -0.000609     -0.000368     -0.002101      0.000000
--------------------------------------------------------------------------------
  Maximum abs         0.006356      0.004827      0.008508      0.000000
--------------------------------------------------------------------------------


  Born effective charge tensors : 

-------------------------------------------------------------------------------
  Atom             x           y             z
-------------------------------------------------------------------------------
    1 Ge    x       3.8380      0.1175      0.3033
            y       0.4414      4.1020      0.2567
            z       0.3524      0.2204      3.6797
-------------------------------------------------------------------------------
    2 Ge    x       4.0652     -0.3396     -0.0864
            y      -0.3049      4.1204      0.0178
            z       0.0936      0.0139      3.2250
-------------------------------------------------------------------------------
    3 Ge    x       4.4644      0.1028     -0.2803
            y      -0.0648      3.9744     -0.0356
            z      -0.2927      0.0462      3.7944
-------------------------------------------------------------------------------
    4 Ge    x       4.0673      0.3036      0.2303
            y      -0.1353      3.9200     -0.0021
            z      -0.0709      0.1715      4.8261
-------------------------------------------------------------------------------
    5 Si    x       3.1080     -0.2317      0.2281
            y      -0.1454      3.4402     -0.1541
            z       0.1177     -0.1463      2.8100
-------------------------------------------------------------------------------
    6 Si    x       3.4289      0.0297      0.2041
            y       0.1880      3.5674      0.2324
            z       0.1454      0.1578      2.8379
-------------------------------------------------------------------------------
    7 Si    x       3.3076     -0.2891      0.2071
            y      -0.2044      3.9684     -0.1434
            z       0.0685     -0.3184      3.4209
-------------------------------------------------------------------------------
    8 Si    x       3.4441      0.1701     -0.0624
            y       0.2497      3.7461      0.1293
            z       0.0341      0.0375      3.0279
-------------------------------------------------------------------------------
    9 Si    x       3.7669     -0.3446     -0.0270
            y      -0.3928      3.6389      0.1850
            z       0.0777      0.1414      2.9249
-------------------------------------------------------------------------------
   10 Si    x       3.4922      0.3054     -0.2049
            y       0.5167      3.4885     -0.1164
            z      -0.0577     -0.1315      2.7613
-------------------------------------------------------------------------------
   11 Si    x       3.9105     -0.0511      0.3715
            y      -0.1691      3.4780     -0.1022
            z      -0.3101     -0.0195      3.1500
-------------------------------------------------------------------------------
   12 Si    x       3.3328      0.1525     -0.0403
            y      -0.0783      3.3202     -0.0155
            z       0.6613      0.1050      4.1347
-------------------------------------------------------------------------------
   13 O3    x      -1.4458     -0.0964      0.3191
            y      -0.1361     -1.3601      0.0406
            z       0.2920      0.0419     -2.5641
-------------------------------------------------------------------------------
   14 O2    x      -1.2618      0.1079      0.2527
            y       0.0993     -1.2787      0.0398
            z       0.2264      0.0366     -1.9894
-------------------------------------------------------------------------------
   15 O2    x      -1.2511     -0.0879      0.1880
            y      -0.1232     -1.2625     -0.0455
            z       0.1805     -0.0389     -1.9737
-------------------------------------------------------------------------------
   16 O3    x      -1.5565      0.1157      0.4393
            y       0.1183     -1.3658      0.0264
            z       0.4149      0.0600     -2.4423
-------------------------------------------------------------------------------
   17 O3    x      -1.2609     -0.1242     -0.1078
            y      -0.1946     -3.0146     -0.1606
            z      -0.0989     -0.1299     -1.3434
-------------------------------------------------------------------------------
   18 O2    x      -1.1198     -0.0969     -0.0785
            y      -0.1667     -2.5630     -0.0602
            z      -0.0557     -0.0281     -1.1269
-------------------------------------------------------------------------------
   19 O3    x      -2.7592      0.1245     -0.5177
            y       0.0369     -1.4353     -0.0623
            z      -0.5339     -0.0454     -1.3541
-------------------------------------------------------------------------------
   20 O2    x      -2.3807      0.0725     -0.3098
            y       0.0292     -1.2612      0.0479
            z      -0.2896      0.0635     -1.0942
-------------------------------------------------------------------------------
   21 O3    x      -2.9311      0.2314     -0.3990
            y       0.1766     -1.4449     -0.0320
            z      -0.4080     -0.0215     -1.2336
-------------------------------------------------------------------------------
   22 O2    x      -2.2140      0.1503     -0.3337
            y       0.1071     -1.3110      0.0725
            z      -0.3670      0.1065     -1.1557
-------------------------------------------------------------------------------
   23 O1    x      -1.7646     -0.7181     -0.5754
            y      -0.6973     -2.6032     -0.7577
            z      -0.5773     -0.7837     -2.0245
-------------------------------------------------------------------------------
   24 O2    x      -1.5568      0.6110     -0.2855
            y       0.6220     -1.9546      0.4539
            z      -0.3536      0.4525     -1.4791
-------------------------------------------------------------------------------
   25 O2    x      -1.4398     -0.6032     -0.2720
            y      -0.5360     -2.0750     -0.4167
            z      -0.3381     -0.4687     -1.4757
-------------------------------------------------------------------------------
   26 O3    x      -1.7427      0.6841     -0.5864
            y       0.7237     -2.2853      0.8003
            z      -0.5654      0.8232     -1.9519
-------------------------------------------------------------------------------
   27 O3    x      -1.3842      0.0024      0.0928
            y      -0.0714     -3.0935     -0.1253
            z       0.0558     -0.1147     -1.1632
-------------------------------------------------------------------------------
   28 O2    x      -1.2044     -0.0564      0.0545
            y      -0.0962     -2.4756     -0.0580
            z       0.0322     -0.0271     -1.0657
-------------------------------------------------------------------------------
   29 O2    x      -1.8758     -0.7402      0.0589
            y      -0.7255     -1.9636      0.0430
            z       0.1370      0.0536     -1.0746
-------------------------------------------------------------------------------
   30 O3    x      -2.3191      1.0475      0.3216
            y       1.0760     -2.3351     -0.2662
            z       0.2972     -0.2584     -1.2830
-------------------------------------------------------------------------------
   31 O3    x      -2.3013     -1.0334      0.3659
            y      -0.9991     -2.3513      0.2826
            z       0.3180      0.2576     -1.2595
-------------------------------------------------------------------------------
   32 O3    x      -2.2485      1.0017      0.0144
            y       1.0148     -2.3601      0.0177
            z       0.1044     -0.0159     -1.2445
-------------------------------------------------------------------------------
   33 O3    x      -1.8084     -0.0928     -0.6736
            y      -0.0350     -1.2840     -0.1353
            z      -0.3699     -0.1434     -2.4973
-------------------------------------------------------------------------------
   34 O1    x      -2.7749     -0.2056      0.9939
            y      -0.0975     -1.3144      0.0778
            z       1.0153      0.0764     -2.3619
-------------------------------------------------------------------------------
   35 O2    x      -2.2486     -0.1397      0.6478
            y      -0.0445     -1.1521      0.0640
            z       0.6359      0.0758     -1.6094
-------------------------------------------------------------------------------
   36 O3    x      -1.3762     -0.0800     -0.4528
            y       0.0184     -1.2197     -0.0984
            z      -0.5717     -0.2495     -3.8252
-------------------------------------------------------------------------------




  Elastic Constant Matrix: (Units=GPa)

-------------------------------------------------------------------------------
  Indices      1         2         3         4         5         6    
-------------------------------------------------------------------------------
       1     41.0370   17.8900    5.9300   -1.1498   -2.5712    9.2327
       2     17.8900   49.5581    6.2444   -0.7567    0.4865   11.4736
       3      5.9300    6.2444   24.2847    1.3855    6.7026    4.0478
       4     -1.1498   -0.7567    1.3855    9.7384    1.1823    3.8663
       5     -2.5712    0.4865    6.7026    1.1823   10.6020    2.6911
       6      9.2327   11.4736    4.0478    3.8663    2.6911   22.2424
-------------------------------------------------------------------------------


  Elastic Compliance Matrix: (Units=1/GPa)

-------------------------------------------------------------------------------
  Indices      1         2         3         4         5         6    
-------------------------------------------------------------------------------
       1    0.032914 -0.008289 -0.008894  0.006895  0.015983 -0.010900
       2   -0.008289  0.026123 -0.003562  0.005591  0.001082 -0.010489
       3   -0.008894 -0.003562  0.054347 -0.005032 -0.036011  0.000871
       4    0.006895  0.005591 -0.005032  0.114623 -0.001963 -0.024517
       5    0.015983  0.001082 -0.036011 -0.001963  0.125049 -0.015428
       6   -0.010900 -0.010489  0.000871 -0.024517 -0.015428  0.060864
-------------------------------------------------------------------------------

  Mechanical properties :

-------------------------------------------------------------------------------
  Convention :                    Reuss         Voigt         Hill
-------------------------------------------------------------------------------
  Bulk  Modulus (GPa)     =      13.90942      19.44542      16.67742
  Shear Modulus (GPa)     =      10.43025      14.17092      12.30059
-------------------------------------------------------------------------------
  Velocity S-wave (km/s)  =       2.19909       2.56327       2.38813
  Velocity P-wave (km/s)  =       3.59125       4.21620       3.91621
-------------------------------------------------------------------------------
  Compressibility (1/GPa) =    0.07189375
-------------------------------------------------------------------------------
  Stress axis :                     x             y             z
-------------------------------------------------------------------------------
  Youngs Moduli (GPa)     =      30.38214      38.28104      18.40025
-------------------------------------------------------------------------------
  Poissons Ratio (x)      =                     0.31731       0.16365
  Poissons Ratio (y)      =       0.25184                     0.06555
  Poissons Ratio (z)      =       0.27021       0.13636
-------------------------------------------------------------------------------


  Piezoelectric Strain Matrix: (Units=C/m**2)

-------------------------------------------------------------------------------
  Indices      1         2         3         4         5         6    
-------------------------------------------------------------------------------
       x    -0.33258   0.02526   1.01489  -0.08155   0.44171  -0.13222
       y     0.02395   0.27642   0.80647   0.94425  -0.04007   0.54794
       z     0.44880   0.89074   0.03585  -0.02866   0.73998   0.13445
-------------------------------------------------------------------------------


  Piezoelectric Stress Matrix: (Units=10**-11 C/N)

-------------------------------------------------------------------------------
  Indices      1         2         3         4         5         6    
-------------------------------------------------------------------------------
       x    -1.22432   0.12104   4.24126  -1.42315   1.55997  -0.86187
       y    -0.87783   0.36378   3.97999   9.25297  -4.36771   0.83595
       z     1.72337   1.86509  -3.16025  -0.01393   9.73617  -1.67341
-------------------------------------------------------------------------------


  Static dielectric constant tensor : 

-------------------------------------------------------------------------------
              x         y         z
-------------------------------------------------------------------------------
       x     4.46524   0.03693   0.16450
       y     0.03693   5.00965   0.16014
       z     0.16450   0.16014   3.73749
--------------------------------------------------------------------------------

  High frequency dielectric constant tensor : 

-------------------------------------------------------------------------------
              x         y         z
-------------------------------------------------------------------------------
       x     1.62334   0.00160   0.01009
       y     0.00160   1.63439   0.00052
       z     0.01009   0.00052   1.57197
-------------------------------------------------------------------------------

  Static refractive indices : 

-------------------------------------------------------------------------------
    1 =    1.91970      2 =    2.11938      3 =    2.24396
-------------------------------------------------------------------------------

  High frequency refractive indices : 

-------------------------------------------------------------------------------
    1 =    1.25302      2 =    1.27474      3 =    1.27855
-------------------------------------------------------------------------------


  Time to end of optimisation =       2.7824 seconds


  Peak dynamic memory used =       2.76 MB 


  Timing analysis for GULP :

--------------------------------------------------------------------------------
  Task / Subroutine                                          Time (Seconds)
--------------------------------------------------------------------------------
  Calculation of reciprocal space energy and derivatives          0.1801
  Calculation of real space energy and derivatives                2.3424
  Calculation of three-body energy and derivatives                0.0678
  Calculation and manipulation of Hessian matrix                  0.3401
  Calculation of matrix inversion                                 0.0042
  Global summation overhead                                       0.0001
--------------------------------------------------------------------------------
  Total CPU time                                                  2.7824
--------------------------------------------------------------------------------


  Dump file written as c00107.vasp.grs
  CIF file written as c00107.vasp.cif


  Job Finished at 22:42.35  6th October    2025                               

