********************************************************************************
*                       GENERAL UTILITY LATTICE PROGRAM                        *
*                                 Julian Gale                                  *
*                       Curtin Institute for Computation                       *
*                    School of Molecular and Life Sciences                     *
*                    Curtin University, Western Australia                      *
********************************************************************************
* Version = 6.1.2 * Last modified =   3rd November 2022                        *
********************************************************************************
*  optimise     - perform optimisation run                                     *
*  conp         - constant pressure calculation                                *
*  property     - calculate properties for final geometry                      *
********************************************************************************

  Job Started  at 22:43.27  6th October    2025                               

  Number of CPUs =     1


  Total number of configurations input =      1

********************************************************************************
*  Input for Configuration =   1 : c00125.vasp                                 *
********************************************************************************

  Formula = Ge4Si8O24                                                   

  Number of irreducible atoms/shells =      60


  Total number atoms/shells =      60

  Dimensionality = 3               :  Bulk   



  Cartesian lattice vectors (Angstroms) :

        9.086940    0.000000    0.000000
        0.000000    7.554810    0.000000
       -3.295144    0.000000    9.944380

  Cell parameters (Angstroms/Degrees):

  a =       9.0869    alpha =  90.0000
  b =       7.5548    beta  = 108.3330
  c =      10.4761    gamma =  90.0000

  Initial cell volume =         682.682735 Angs**3

  Temperature of configuration =   0.00     K 

  Pressure of configuration =         0.000 GPa 

  Fractional coordinates of asymmetric unit :

--------------------------------------------------------------------------------
   No.  Atomic       x           y          z         Charge      Occupancy
        Label      (Frac)      (Frac)     (Frac)        (e)         (Frac)  
--------------------------------------------------------------------------------
      1 Ge    c    0.331050    0.296920    0.607380     4.00000    1.000000    
      2 Ge    c    0.668950 *  0.703080 *  0.392620 *   4.00000    1.000000    
      3 Ge    c    0.879680 *  0.000000 *  0.350160 *   4.00000    1.000000    
      4 Ge    c    0.120320 *  0.000000 *  0.649840 *   4.00000    1.000000    
      5 Si    c    0.313820 *  0.296860 *  0.309830 *   4.00000    1.000000    
      6 Si    c    0.686180 *  0.296860 *  0.690170 *   4.00000    1.000000    
      7 Si    c    0.686180 *  0.703140 *  0.690170 *   4.00000    1.000000    
      8 Si    c    0.313820 *  0.703140 *  0.309830 *   4.00000    1.000000    
      9 Si    c    0.668950 *  0.296920 *  0.392620 *   4.00000    1.000000    
     10 Si    c    0.331050 *  0.703080 *  0.607380 *   4.00000    1.000000    
     11 Si    c    0.093070 *  0.000000 *  0.158230 *   4.00000    1.000000    
     12 Si    c    0.906930 *  0.000000 *  0.841770 *   4.00000    1.000000    
     13 O3    c    0.268740 *  0.279030 *  0.446100 *   1.33043    1.000000    
     14 O2    c    0.731260 *  0.279030 *  0.553900 *   0.87073    1.000000    
     15 O3    c    0.731260 *  0.720970 *  0.553900 *   1.33043    1.000000    
     16 O2    c    0.268740 *  0.720970 *  0.446100 *   0.87073    1.000000    
     17 O2    c    0.295480 *  0.500000 *  0.260860 *   0.87073    1.000000    
     18 O2    c    0.704520 *  0.500000 *  0.739140 *   0.87073    1.000000    
     19 O2    c    0.490600 *  0.234690 *  0.337530 *   0.87073    1.000000    
     20 O3    c    0.509400 *  0.234690 *  0.662470 *   1.33043    1.000000    
     21 O2    c    0.509400 *  0.765310 *  0.662470 *   0.87073    1.000000    
     22 O3    c    0.490600 *  0.765310 *  0.337530 *   1.33043    1.000000    
     23 O2    c    0.200440 *  0.174000 *  0.194980 *   0.87073    1.000000    
     24 O2    c    0.799560 *  0.174000 *  0.805020 *   0.87073    1.000000    
     25 O2    c    0.799560 *  0.826000 *  0.805020 *   0.87073    1.000000    
     26 O2    c    0.200440 *  0.826000 *  0.194980 *   0.87073    1.000000    
     27 O3    c    0.317860 *  0.500000 *  0.649090 *   1.33043    1.000000    
     28 O3    c    0.682140 *  0.500000 *  0.350910 *   1.33043    1.000000    
     29 O1    c    0.227920 *  0.173870 *  0.671620 *   1.73396    1.000000    
     30 O3    c    0.772080 *  0.173870 *  0.328380 *   1.33043    1.000000    
     31 O1    c    0.772080 *  0.826130 *  0.328380 *   1.73396    1.000000    
     32 O3    c    0.227920 *  0.826130 *  0.671620 *   1.33043    1.000000    
     33 O1    c    0.000000 *  0.000000 *  0.500000 *   1.73396    1.000000    
     34 O3    c    0.971960 *  0.000000 *  0.241930 *   1.33043    1.000000    
     35 O3    c    0.028040 *  0.000000 *  0.758070 *   1.33043    1.000000    
     36 O2    c    0.000000 *  0.000000 *  0.000000 *   0.87073    1.000000    
     37 O3    s    0.268740 *  0.279030 *  0.446100 *  -3.33043    1.000000    
     38 O2    s    0.731260 *  0.279030 *  0.553900 *  -2.87073    1.000000    
     39 O3    s    0.731260 *  0.720970 *  0.553900 *  -3.33043    1.000000    
     40 O2    s    0.268740 *  0.720970 *  0.446100 *  -2.87073    1.000000    
     41 O2    s    0.295480 *  0.500000 *  0.260860 *  -2.87073    1.000000    
     42 O2    s    0.704520 *  0.500000 *  0.739140 *  -2.87073    1.000000    
     43 O2    s    0.490600 *  0.234690 *  0.337530 *  -2.87073    1.000000    
     44 O3    s    0.509400 *  0.234690 *  0.662470 *  -3.33043    1.000000    
     45 O2    s    0.509400 *  0.765310 *  0.662470 *  -2.87073    1.000000    
     46 O3    s    0.490600 *  0.765310 *  0.337530 *  -3.33043    1.000000    
     47 O2    s    0.200440 *  0.174000 *  0.194980 *  -2.87073    1.000000    
     48 O2    s    0.799560 *  0.174000 *  0.805020 *  -2.87073    1.000000    
     49 O2    s    0.799560 *  0.826000 *  0.805020 *  -2.87073    1.000000    
     50 O2    s    0.200440 *  0.826000 *  0.194980 *  -2.87073    1.000000    
     51 O3    s    0.317860 *  0.500000 *  0.649090 *  -3.33043    1.000000    
     52 O3    s    0.682140 *  0.500000 *  0.350910 *  -3.33043    1.000000    
     53 O1    s    0.227920 *  0.173870 *  0.671620 *  -3.73396    1.000000    
     54 O3    s    0.772080 *  0.173870 *  0.328380 *  -3.33043    1.000000    
     55 O1    s    0.772080 *  0.826130 *  0.328380 *  -3.73396    1.000000    
     56 O3    s    0.227920 *  0.826130 *  0.671620 *  -3.33043    1.000000    
     57 O1    s    0.000000 *  0.000000 *  0.500000 *  -3.73396    1.000000    
     58 O3    s    0.971960 *  0.000000 *  0.241930 *  -3.33043    1.000000    
     59 O3    s    0.028040 *  0.000000 *  0.758070 *  -3.33043    1.000000    
     60 O2    s    0.000000 *  0.000000 *  0.000000 *  -2.87073    1.000000    
--------------------------------------------------------------------------------



********************************************************************************
*  General input information                                                   *
********************************************************************************

  Species output for all configurations : 

--------------------------------------------------------------------------------
  Species    Type    Atomic    Atomic    Charge       Radii (Angs)     Library
                     Number     Mass       (e)     Cova   Ionic  VDW   Symbol
--------------------------------------------------------------------------------
    Ge       Core       32      72.61   4.000000   1.170  0.000  1.750 Ge       
    Si       Core       14      28.09   4.000000   1.200  0.000  2.100 Si       
    O1       Core        8      16.00   1.733957   0.730  0.000  1.360 O1       
    O2       Core        8      16.00   0.870733   0.730  0.000  1.360 O2       
    O3       Core        8      16.00   1.330431   0.730  0.000  1.360 O3       
    O1       Shell       8       0.00  -3.733957   0.730  0.000  0.000 O1       
    O2       Shell       8       0.00  -2.870733   0.730  0.000  0.000 O2       
    O3       Shell       8       0.00  -3.330431   0.730  0.000  0.000 O3       
--------------------------------------------------------------------------------


  Lattice summation method               =    Ewald          (3-D)
                                         =    Parry          (2-D)
                                         =    Saunders et al (1-D)
  Accuracy factor for lattice sums       =   12.000


  Analytic derivatives to be used

  Time limit = Infinity

  Maximum range for interatomic potentials =    100000.000000 Angstroms

  General interatomic potentials :

--------------------------------------------------------------------------------
Atom  Types   Potential      Parameter       Value         Units   Cutoffs(Ang)
  1     2                                                            Min /  Max 
--------------------------------------------------------------------------------
Si   c O1   s Buckingham    Buckingham A     1315.2478    eV        0.000 16.000
                            Buckingham rho  0.31775900    Ang       
                            Buckingham C     10.141118    eV*Ang^6  
--------------------------------------------------------------------------------
Si   c O2   s Buckingham    Buckingham A     1315.2478    eV        0.000 16.000
                            Buckingham rho  0.31775900    Ang       
                            Buckingham C     10.141118    eV*Ang^6  
--------------------------------------------------------------------------------
Si   c O3   s Buckingham    Buckingham A     1315.2478    eV        0.000 16.000
                            Buckingham rho  0.31775900    Ang       
                            Buckingham C     10.141118    eV*Ang^6  
--------------------------------------------------------------------------------
Ge   c O1   s Buckingham    Buckingham A     1497.3996    eV        0.000 16.000
                            Buckingham rho  0.32564600    Ang       
                            Buckingham C     16.808599    eV*Ang^6  
--------------------------------------------------------------------------------
Ge   c O2   s Buckingham    Buckingham A     1497.3996    eV        0.000 16.000
                            Buckingham rho  0.32564600    Ang       
                            Buckingham C     16.808599    eV*Ang^6  
--------------------------------------------------------------------------------
Ge   c O3   s Buckingham    Buckingham A     1497.3996    eV        0.000 16.000
                            Buckingham rho  0.32564600    Ang       
                            Buckingham C     16.808599    eV*Ang^6  
--------------------------------------------------------------------------------
O1   s O1   s Buckingham    Buckingham A     22764.000    eV        0.000 16.000
                            Buckingham rho  0.14900000    Ang       
                            Buckingham C     10.937044    eV*Ang^6  
--------------------------------------------------------------------------------
O1   s O2   s Buckingham    Buckingham A     22764.000    eV        0.000 16.000
                            Buckingham rho  0.14900000    Ang       
                            Buckingham C     10.937044    eV*Ang^6  
--------------------------------------------------------------------------------
O1   s O3   s Buckingham    Buckingham A     22764.000    eV        0.000 16.000
                            Buckingham rho  0.14900000    Ang       
                            Buckingham C     10.937044    eV*Ang^6  
--------------------------------------------------------------------------------
O2   s O2   s Buckingham    Buckingham A     22764.000    eV        0.000 16.000
                            Buckingham rho  0.14900000    Ang       
                            Buckingham C     10.937044    eV*Ang^6  
--------------------------------------------------------------------------------
O2   s O3   s Buckingham    Buckingham A     22764.000    eV        0.000 16.000
                            Buckingham rho  0.14900000    Ang       
                            Buckingham C     10.937044    eV*Ang^6  
--------------------------------------------------------------------------------
O3   s O3   s Buckingham    Buckingham A     22764.000    eV        0.000 16.000
                            Buckingham rho  0.14900000    Ang       
                            Buckingham C     10.937044    eV*Ang^6  
--------------------------------------------------------------------------------
O1   c O1   s Spring (c-s)  Spring k 2       180.31577    eV*Ang^-2 0.000  0.800
                            Spring k 4       0.0000000    eV*Ang^-4 
--------------------------------------------------------------------------------
O2   c O2   s Spring (c-s)  Spring k 2       75.969800    eV*Ang^-2 0.000  0.800
                            Spring k 4       0.0000000    eV*Ang^-4 
--------------------------------------------------------------------------------
O3   c O3   s Spring (c-s)  Spring k 2       128.14270    eV*Ang^-2 0.000  0.800
                            Spring k 4       0.0000000    eV*Ang^-4 
--------------------------------------------------------------------------------

  General Three-body potentials :

--------------------------------------------------------------------------------
  Atoms       Potential      Parameter       Value         Units   Cutoffs(Ang)
  1 / 2 / 3                                                          Min /  Max 
--------------------------------------------------------------------------------
Si    core    Harmonic      Three-body cnst  1.2614000    eV*rad^-2 0.000  1.900
O1    shel                  Three-body angl  109.47000    degrees   0.000  1.900
O1    shel                  Three-body k4    0.0000000    eV*rad^-4 0.000  3.500
                            Three-body k3    0.0000000    eV*rad^-3 
--------------------------------------------------------------------------------
Si    core    Harmonic      Three-body cnst  1.2614000    eV*rad^-2 0.000  1.900
O1    shel                  Three-body angl  109.47000    degrees   0.000  1.900
õ(1   shel                  Three-body k4    0.0000000    eV*rad^-4 0.000  3.500
                            Three-body k3    0.0000000    eV*rad^-3 
--------------------------------------------------------------------------------
Si    core    Harmonic      Three-body cnst  1.2614000    eV*rad^-2 0.000  1.900
õ(1   shel                  Three-body angl  109.47000    degrees   0.000  1.900
õ(1   shel                  Three-body k4    0.0000000    eV*rad^-4 0.000  3.500
                            Three-body k3    0.0000000    eV*rad^-3 
--------------------------------------------------------------------------------
Si    core    Harmonic      Three-body cnst  1.2614000    eV*rad^-2 0.000  1.900
O1    shel                  Three-body angl  109.47000    degrees   0.000  1.900
O2    shel                  Three-body k4    0.0000000    eV*rad^-4 0.000  3.500
                            Three-body k3    0.0000000    eV*rad^-3 
--------------------------------------------------------------------------------
Si    core    Harmonic      Three-body cnst  1.2614000    eV*rad^-2 0.000  1.900
O1    shel                  Three-body angl  109.47000    degrees   0.000  1.900
õ(2   shel                  Three-body k4    0.0000000    eV*rad^-4 0.000  3.500
                            Three-body k3    0.0000000    eV*rad^-3 
--------------------------------------------------------------------------------
Si    core    Harmonic      Three-body cnst  1.2614000    eV*rad^-2 0.000  1.900
O2    shel                  Three-body angl  109.47000    degrees   0.000  1.900
õ(1   shel                  Three-body k4    0.0000000    eV*rad^-4 0.000  3.500
                            Three-body k3    0.0000000    eV*rad^-3 
--------------------------------------------------------------------------------
Si    core    Harmonic      Three-body cnst  1.2614000    eV*rad^-2 0.000  1.900
õ(1   shel                  Three-body angl  109.47000    degrees   0.000  1.900
õ(2   shel                  Three-body k4    0.0000000    eV*rad^-4 0.000  3.500
                            Three-body k3    0.0000000    eV*rad^-3 
--------------------------------------------------------------------------------
Si    core    Harmonic      Three-body cnst  1.2614000    eV*rad^-2 0.000  1.900
O2    shel                  Three-body angl  109.47000    degrees   0.000  1.900
O2    shel                  Three-body k4    0.0000000    eV*rad^-4 0.000  3.500
                            Three-body k3    0.0000000    eV*rad^-3 
--------------------------------------------------------------------------------
Si    core    Harmonic      Three-body cnst  1.2614000    eV*rad^-2 0.000  1.900
O2    shel                  Three-body angl  109.47000    degrees   0.000  1.900
õ(2   shel                  Three-body k4    0.0000000    eV*rad^-4 0.000  3.500
                            Three-body k3    0.0000000    eV*rad^-3 
--------------------------------------------------------------------------------
Si    core    Harmonic      Three-body cnst  1.2614000    eV*rad^-2 0.000  1.900
õ(2   shel                  Three-body angl  109.47000    degrees   0.000  1.900
õ(2   shel                  Three-body k4    0.0000000    eV*rad^-4 0.000  3.500
                            Three-body k3    0.0000000    eV*rad^-3 
--------------------------------------------------------------------------------

********************************************************************************
*  Output for configuration   1 : c00125.vasp                                  *
********************************************************************************


  Components of energy : 

--------------------------------------------------------------------------------
  Interatomic potentials     =         400.32249208 eV    
  Three-body potentials      =           0.00004465 eV    
  Monopole - monopole (real) =       -1236.99964305 eV    
  Monopole - monopole (recip)=        -659.26603192 eV    
  Monopole - monopole (total)=       -1896.26567496 eV    
--------------------------------------------------------------------------------
  Total lattice energy       =       -1495.94313823 eV    
--------------------------------------------------------------------------------
  Total lattice energy       =         -144335.6453 kJ/(mole unit cells)
--------------------------------------------------------------------------------


  Number of variables =      183

  Maximum number of calculations  =          1000
  Maximum Hessian update interval =            10
  Maximum step size               =   0.100000000
  Maximum parameter tolerance     =   0.000010000
  Maximum function  tolerance     =   0.000010000
  Maximum gradient  tolerance     =   0.001000000
  Maximum gradient  component     =   0.010000000

  Symmetry not applied to optimisation

  Cell parameters to be optimised using strains

  Newton-Raphson optimiser to be used

  BFGS hessian update to be used

  Lower half triangular hessian to be used

  Minimiser to switch to RFO
  When gradient norm is less than     0.050000

  Dumpfile to be written after every cycle

  Start of bulk optimisation :

  Cycle:      0 Energy:     -1495.943138  Gnorm:      5.619948  CPU:    0.031
  ** Hessian calculated **
  Cycle:      1 Energy:     -1504.388280  Gnorm:      4.198734  CPU:    0.096
  ** Hessian calculated **
  Cycle:      2 Energy:     -1513.263797  Gnorm:      1.041500  CPU:    0.156
  Cycle:      3 Energy:     -1514.178406  Gnorm:      0.530346  CPU:    0.193
  Cycle:      4 Energy:     -1514.624670  Gnorm:      0.384361  CPU:    0.237
  Cycle:      5 Energy:     -1515.038241  Gnorm:      0.320489  CPU:    0.281
  Cycle:      6 Energy:     -1515.313160  Gnorm:      0.265322  CPU:    0.317
  Cycle:      7 Energy:     -1515.524545  Gnorm:      0.219880  CPU:    0.354
  Cycle:      8 Energy:     -1515.654541  Gnorm:      0.176631  CPU:    0.391
  Cycle:      9 Energy:     -1515.720759  Gnorm:      0.128471  CPU:    0.428
  Cycle:     10 Energy:     -1515.755927  Gnorm:      0.104454  CPU:    0.464
  Cycle:     11 Energy:     -1515.783047  Gnorm:      0.087280  CPU:    0.501
  ** Hessian calculated **
  Cycle:     12 Energy:     -1515.817301  Gnorm:      0.085564  CPU:    0.569
  Cycle:     13 Energy:     -1515.873698  Gnorm:      0.082592  CPU:    0.619
  Cycle:     14 Energy:     -1515.956470  Gnorm:      0.077910  CPU:    0.670
  Cycle:     15 Energy:     -1516.051739  Gnorm:      0.072016  CPU:    0.714
  Cycle:     16 Energy:     -1516.191982  Gnorm:      0.062164  CPU:    0.764
  Cycle:     17 Energy:     -1516.333696  Gnorm:      0.050423  CPU:    0.809
  Cycle:     18 Energy:     -1516.468751  Gnorm:      0.037133  CPU:    0.854
  ** Hessian has wrong structure
  ** Imaginary eigenvectors =   2
  Cycle:     19 Energy:     -1516.471058  Gnorm:      0.057212  CPU:    0.936
  ** Hessian has wrong structure
  ** Imaginary eigenvectors =   3
  ** Hessian has wrong structure
  ** Imaginary eigenvectors =   2
  Cycle:     20 Energy:     -1516.516060  Gnorm:      0.070335  CPU:    1.083
  ** Hessian has wrong structure
  ** Imaginary eigenvectors =   1
  ** Hessian has wrong structure
  ** Imaginary eigenvectors =   1
  Cycle:     21 Energy:     -1516.522072  Gnorm:      0.080617  CPU:    1.209
  ** Hessian has required structure
  Cycle:     22 Energy:     -1516.597482  Gnorm:      0.064095  CPU:    1.262
  ** Hessian has required structure
  Cycle:     23 Energy:     -1516.643104  Gnorm:      0.057033  CPU:    1.300
  ** Hessian has required structure
  Cycle:     24 Energy:     -1516.667298  Gnorm:      0.031844  CPU:    1.345
  ** Hessian has required structure
  Cycle:     25 Energy:     -1516.678931  Gnorm:      0.032630  CPU:    1.397
  ** Hessian has required structure
  Cycle:     26 Energy:     -1516.687096  Gnorm:      0.025814  CPU:    1.443
  ** Hessian has required structure
  Cycle:     27 Energy:     -1516.692651  Gnorm:      0.020845  CPU:    1.495
  ** Hessian has required structure
  Cycle:     28 Energy:     -1516.696339  Gnorm:      0.016200  CPU:    1.540
  ** Hessian has required structure
  Cycle:     29 Energy:     -1516.699669  Gnorm:      0.015093  CPU:    1.592
  ** Hessian has required structure
  Cycle:     30 Energy:     -1516.701405  Gnorm:      0.011802  CPU:    1.637
  ** Hessian has required structure
  Cycle:     31 Energy:     -1516.702919  Gnorm:      0.006501  CPU:    1.712
  ** Hessian has required structure
  Cycle:     32 Energy:     -1516.703428  Gnorm:      0.003882  CPU:    1.765
  ** Hessian has required structure
  Cycle:     33 Energy:     -1516.703666  Gnorm:      0.002228  CPU:    1.818
  ** Hessian has required structure
  Cycle:     34 Energy:     -1516.703803  Gnorm:      0.001405  CPU:    1.870
  ** Hessian has required structure
  Cycle:     35 Energy:     -1516.704014  Gnorm:      0.002025  CPU:    1.930
  ** Hessian has required structure
  Cycle:     36 Energy:     -1516.704368  Gnorm:      0.006218  CPU:    1.990
  ** Hessian has required structure
  Cycle:     37 Energy:     -1516.704519  Gnorm:      0.011004  CPU:    2.028
  ** Hessian has required structure
  Cycle:     38 Energy:     -1516.704670  Gnorm:      0.011188  CPU:    2.080
  ** Hessian has required structure
  Cycle:     39 Energy:     -1516.704964  Gnorm:      0.011505  CPU:    2.140
  ** Hessian has required structure
  Cycle:     40 Energy:     -1516.705456  Gnorm:      0.012496  CPU:    2.200
  ** Hessian has wrong structure
  ** Imaginary eigenvectors =   1
  Cycle:     41 Energy:     -1516.709455  Gnorm:      0.015879  CPU:    2.334
  ** Hessian has wrong structure
  ** Imaginary eigenvectors =   1
  Cycle:     42 Energy:     -1516.717329  Gnorm:      0.022917  CPU:    2.467
  ** Hessian has required structure
  Cycle:     43 Energy:     -1516.726696  Gnorm:      0.018980  CPU:    2.543
  ** Hessian has required structure
  Cycle:     44 Energy:     -1516.734199  Gnorm:      0.014519  CPU:    2.595
  ** Hessian has required structure
  Cycle:     45 Energy:     -1516.736856  Gnorm:      0.006204  CPU:    2.640
  ** Hessian has required structure
  Cycle:     46 Energy:     -1516.737995  Gnorm:      0.006012  CPU:    2.692
  ** Hessian has required structure
  Cycle:     47 Energy:     -1516.738310  Gnorm:      0.002851  CPU:    2.738
  ** Hessian has required structure
  Cycle:     48 Energy:     -1516.738395  Gnorm:      0.001500  CPU:    2.790
  ** Hessian has required structure
  Cycle:     49 Energy:     -1516.738418  Gnorm:      0.000904  CPU:    2.835
  ** Hessian has required structure
  Cycle:     50 Energy:     -1516.738426  Gnorm:      0.000537  CPU:    2.880
  ** Hessian has required structure
  Cycle:     51 Energy:     -1516.738429  Gnorm:      0.000374  CPU:    2.918
  ** Hessian has required structure
  Cycle:     52 Energy:     -1516.738430  Gnorm:      0.000246  CPU:    2.956
  ** Hessian has required structure
  Cycle:     53 Energy:     -1516.738431  Gnorm:      0.000172  CPU:    3.017
  ** Hessian has required structure


  **** Optimisation achieved ****


  Final energy =   -1516.73843073 eV      
  Final Gnorm  =       0.00012075

  Components of energy : 

--------------------------------------------------------------------------------
  Interatomic potentials     =         401.49633556 eV    
  Three-body potentials      =           0.05260530 eV    
  Monopole - monopole (real) =        -843.39007441 eV    
  Monopole - monopole (recip)=       -1074.89729718 eV    
  Monopole - monopole (total)=       -1918.28737158 eV    
--------------------------------------------------------------------------------
  Total lattice energy       =       -1516.73843073 eV    
--------------------------------------------------------------------------------
  Total lattice energy       =         -146342.0731 kJ/(mole unit cells)
--------------------------------------------------------------------------------

  Final fractional coordinates of atoms :

--------------------------------------------------------------------------------
   No.  Atomic        x           y          z          Radius
        Label       (Frac)      (Frac)     (Frac)       (Angs) 
--------------------------------------------------------------------------------
     1  Ge    c     0.331050    0.296920    0.607380    0.000000
     2  Ge    c     0.687379    0.599167    0.365777    0.000000
     3  Ge    c     0.878771    0.907639    0.329836    0.000000
     4  Ge    c     0.139661    0.988450    0.643332    0.000000
     5  Si    c     0.286975    0.263615    0.299263    0.000000
     6  Si    c     0.694523    0.233955    0.678240    0.000000
     7  Si    c     0.731455    0.632476    0.673895    0.000000
     8  Si    c     0.323907    0.662136    0.294920    0.000000
     9  Si    c     0.644091    0.197086    0.372109    0.000000
    10  Si    c     0.374340    0.699004    0.601051    0.000000
    11  Si    c     0.082833    0.958261    0.145195    0.000000
    12  Si    c     0.935598    0.937830    0.827968    0.000000
    13  O3    c     0.281241    0.221185    0.442160    0.000000
    14  O2    c     0.679518    0.164456    0.529239    0.000000
    15  O3    c     0.737184    0.674902    0.530996    0.000000
    16  O2    c     0.338914    0.731638    0.443921    0.000000
    17  O2    c     0.247371    0.470235    0.268724    0.000000
    18  O2    c     0.771058    0.425856    0.704437    0.000000
    19  O2    c     0.458929    0.219638    0.295842    0.000000
    20  O3    c     0.527244    0.246188    0.692496    0.000000
    21  O2    c     0.559502    0.676457    0.677321    0.000000
    22  O3    c     0.491184    0.649899    0.280660    0.000000
    23  O2    c     0.163606    0.145643    0.186968    0.000000
    24  O2    c     0.810069    0.099339    0.781202    0.000000
    25  O2    c     0.854830    0.750447    0.786186    0.000000
    26  O2    c     0.208361    0.796750    0.191957    0.000000
    27  O3    c     0.295407    0.520598    0.613870    0.000000
    28  O3    c     0.723024    0.375490    0.359287    0.000000
    29  O1    c     0.207718    0.197810    0.666315    0.000000
    30  O3    c     0.709956    0.036517    0.307536    0.000000
    31  O1    c     0.810712    0.698278    0.306843    0.000000
    32  O3    c     0.308473    0.859571    0.665625    0.000000
    33  O1    c     0.009210    0.948039    0.486588    0.000000
    34  O3    c     0.948267    0.947000    0.205553    0.000000
    35  O3    c     0.070175    0.949101    0.767625    0.000000
    36  O2    c     0.009206    0.948042    0.986582    0.000000
    37  O3    s     0.285661    0.231260    0.440681    0.000000
    38  O2    s     0.677487    0.175093    0.528717    0.000000
    39  O3    s     0.732764    0.664828    0.532475    0.000000
    40  O2    s     0.340945    0.721000    0.444443    0.000000
    41  O2    s     0.259378    0.468352    0.274640    0.000000
    42  O2    s     0.759051    0.427738    0.698521    0.000000
    43  O2    s     0.460552    0.221990    0.304506    0.000000
    44  O3    s     0.528756    0.248927    0.684405    0.000000
    45  O2    s     0.557880    0.674103    0.668657    0.000000
    46  O3    s     0.489672    0.647160    0.288751    0.000000
    47  O2    s     0.168647    0.138661    0.194978    0.000000
    48  O2    s     0.810520    0.097047    0.774560    0.000000
    49  O2    s     0.849787    0.757429    0.778178    0.000000
    50  O2    s     0.207910    0.799042    0.198598    0.000000
    51  O3    s     0.305901    0.519699    0.612118    0.000000
    52  O3    s     0.712530    0.376389    0.361040    0.000000
    53  O1    s     0.212347    0.189965    0.659933    0.000000
    54  O3    s     0.716066    0.043688    0.316266    0.000000
    55  O1    s     0.806083    0.706123    0.313226    0.000000
    56  O3    s     0.302363    0.852400    0.656896    0.000000
    57  O1    s     0.009211    0.948040    0.486587    0.000000
    58  O3    s     0.956254    0.944759    0.210108    0.000000
    59  O3    s     0.062186    0.951339    0.763067    0.000000
    60  O2    s     0.009208    0.948043    0.986582    0.000000
--------------------------------------------------------------------------------

  Final Cartesian lattice vectors (Angstroms) :

        9.168479    0.235755   -0.218258
        0.192388    7.609015   -0.120549
       -3.549970   -0.243186   10.061759


  Final cell parameters and derivatives :

--------------------------------------------------------------------------------
       a            9.174106 Angstrom     dE/de1(xx)     0.008711 eV/strain
       b            7.612401 Angstrom     dE/de2(yy)     0.005571 eV/strain
       c           10.672414 Angstrom     dE/de3(zz)     0.008795 eV/strain
       alpha       92.642995 Degrees      dE/de4(yz)     0.000203 eV/strain
       beta       110.820496 Degrees      dE/de5(xz)    -0.000745 eV/strain
       gamma       87.058248 Degrees      dE/de6(xy)     0.000207 eV/strain
--------------------------------------------------------------------------------

  Primitive cell volume =           695.429907 Angs**3

  Density of cell =      2.147037 g/cm**3

  Non-primitive cell volume =           695.429907 Angs**3


  Final internal derivatives :

--------------------------------------------------------------------------------
   No.  Atomic          a             b             c           Radius
        Label          (eV)          (eV)          (eV)        (eV/Angs)
--------------------------------------------------------------------------------
      1 Ge    c       0.000000      0.000000      0.000000      0.000000
      2 Ge    c       0.000473     -0.000213     -0.001063      0.000000
      3 Ge    c      -0.000534      0.000318      0.000055      0.000000
      4 Ge    c       0.000582     -0.000186     -0.000478      0.000000
      5 Si    c       0.000054      0.000571     -0.001456      0.000000
      6 Si    c       0.000524     -0.000356      0.001892      0.000000
      7 Si    c       0.000584     -0.000600      0.001813      0.000000
      8 Si    c      -0.000703      0.000130     -0.002436      0.000000
      9 Si    c       0.000531     -0.000736     -0.001092      0.000000
     10 Si    c      -0.001184      0.000898      0.001790      0.000000
     11 Si    c       0.000657      0.000034      0.000522      0.000000
     12 Si    c      -0.000431     -0.000049     -0.000589      0.000000
     13 O3    c      -0.002809     -0.001272      0.002541      0.000000
     14 O2    c       0.002144     -0.001057     -0.002068      0.000000
     15 O3    c       0.003176      0.001699     -0.003156      0.000000
     16 O2    c      -0.002412      0.001740      0.002228      0.000000
     17 O2    c      -0.001389     -0.001465      0.000014      0.000000
     18 O2    c       0.001340      0.001232      0.000155      0.000000
     19 O2    c       0.000108     -0.000030     -0.001637      0.000000
     20 O3    c      -0.003956     -0.000454      0.002677      0.000000
     21 O2    c      -0.000310      0.000034      0.002578      0.000000
     22 O3    c       0.004152      0.000470     -0.003508      0.000000
     23 O2    c      -0.000221     -0.000302     -0.000160      0.000000
     24 O2    c      -0.000291      0.000129     -0.000273      0.000000
     25 O2    c       0.000305      0.000461      0.000062      0.000000
     26 O2    c       0.000251     -0.000014      0.000169      0.000000
     27 O3    c      -0.002393     -0.001559      0.001389      0.000000
     28 O3    c       0.002046      0.001075     -0.001351      0.000000
     29 O1    c       0.000075     -0.000464     -0.000232      0.000000
     30 O3    c      -0.000494      0.000421      0.000460      0.000000
     31 O1    c      -0.000158      0.000206      0.000109      0.000000
     32 O3    c       0.000438     -0.000286     -0.000439      0.000000
     33 O1    c       0.000352      0.000110      0.001177      0.000000
     34 O3    c      -0.000069      0.000080      0.000062      0.000000
     35 O3    c      -0.000665     -0.000118      0.000558      0.000000
     36 O2    c      -0.000009      0.000013     -0.000282      0.000000
     37 O3    s      -0.000254     -0.000865      0.000650      0.000000
     38 O2    s       0.001107     -0.002436     -0.000178      0.000000
     39 O3    s       0.000208      0.000925     -0.000958      0.000000
     40 O2    s      -0.001087      0.002522      0.000002      0.000000
     41 O2    s      -0.002137     -0.000213     -0.002921      0.000000
     42 O2    s       0.002065     -0.000231      0.002945      0.000000
     43 O2    s       0.000326     -0.001546     -0.002134      0.000000
     44 O3    s      -0.000735     -0.001027      0.002097      0.000000
     45 O2    s      -0.000104      0.001627      0.002491      0.000000
     46 O3    s       0.001195      0.001059     -0.002203      0.000000
     47 O2    s      -0.000418     -0.000082     -0.001163      0.000000
     48 O2    s       0.001061     -0.000578      0.001132      0.000000
     49 O2    s       0.000691      0.000188      0.001440      0.000000
     50 O2    s      -0.001038      0.000521     -0.001622      0.000000
     51 O3    s      -0.002487     -0.000123      0.002774      0.000000
     52 O3    s       0.002177     -0.000102     -0.002316      0.000000
     53 O1    s      -0.001014      0.000100      0.000936      0.000000
     54 O3    s       0.001054     -0.000895     -0.000991      0.000000
     55 O1    s       0.001139     -0.000065     -0.000970      0.000000
     56 O3    s      -0.001508      0.001061      0.001196      0.000000
     57 O1    s      -0.000078     -0.000098     -0.000542      0.000000
     58 O3    s      -0.000357     -0.000286      0.000351      0.000000
     59 O3    s       0.000540      0.000278     -0.000561      0.000000
     60 O2    s       0.000009     -0.000086     -0.000080      0.000000
--------------------------------------------------------------------------------
  Maximum abs         0.004152      0.002522      0.003508      0.000000
--------------------------------------------------------------------------------


  Born effective charge tensors : 

-------------------------------------------------------------------------------
  Atom             x           y             z
-------------------------------------------------------------------------------
    1 Ge    x       4.1548      0.3154     -0.0628
            y       0.4203      4.1442     -0.2173
            z      -0.0898      0.0082      3.3200
-------------------------------------------------------------------------------
    2 Ge    x       4.1548      0.3154     -0.0628
            y       0.4203      4.1442     -0.2173
            z      -0.0898      0.0082      3.3200
-------------------------------------------------------------------------------
    3 Ge    x       4.5380      0.4322     -0.1421
            y      -0.1085      3.9528      0.0121
            z      -0.3829     -0.0389      3.7334
-------------------------------------------------------------------------------
    4 Ge    x       4.5381      0.4322     -0.1422
            y      -0.1085      3.9528      0.0121
            z      -0.3828     -0.0389      3.7334
-------------------------------------------------------------------------------
    5 Si    x       3.1304      0.2510      0.0504
            y       0.2259      3.4866      0.1943
            z       0.1390      0.0556      3.1491
-------------------------------------------------------------------------------
    6 Si    x       3.4272     -0.2873      0.1131
            y      -0.0851      3.4812     -0.2430
            z       0.2356     -0.1744      2.9072
-------------------------------------------------------------------------------
    7 Si    x       3.1304      0.2510      0.0503
            y       0.2259      3.4866      0.1943
            z       0.1390      0.0556      3.1491
-------------------------------------------------------------------------------
    8 Si    x       3.4272     -0.2874      0.1131
            y      -0.0851      3.4812     -0.2430
            z       0.2356     -0.1744      2.9072
-------------------------------------------------------------------------------
    9 Si    x       3.4290     -0.4430     -0.1224
            y      -0.0741      3.9030      0.2124
            z      -0.0909      0.0452      2.8635
-------------------------------------------------------------------------------
   10 Si    x       3.4291     -0.4429     -0.1224
            y      -0.0741      3.9030      0.2125
            z      -0.0909      0.0453      2.8635
-------------------------------------------------------------------------------
   11 Si    x       3.5956      0.1392     -0.0284
            y      -0.0319      3.2997     -0.0471
            z      -0.0552      0.0101      4.0187
-------------------------------------------------------------------------------
   12 Si    x       3.5956      0.1393     -0.0283
            y      -0.0319      3.2997     -0.0471
            z      -0.0553      0.0101      4.0186
-------------------------------------------------------------------------------
   13 O3    x      -1.4001     -0.1327      0.3496
            y      -0.1292     -1.4527     -0.0177
            z       0.3092     -0.0420     -2.5290
-------------------------------------------------------------------------------
   14 O2    x      -1.2027      0.1186      0.1409
            y       0.0584     -1.3087     -0.0435
            z       0.1261     -0.0385     -2.0550
-------------------------------------------------------------------------------
   15 O3    x      -1.4001     -0.1327      0.3496
            y      -0.1292     -1.4527     -0.0177
            z       0.3092     -0.0420     -2.5290
-------------------------------------------------------------------------------
   16 O2    x      -1.2027      0.1186      0.1409
            y       0.0584     -1.3087     -0.0435
            z       0.1261     -0.0385     -2.0551
-------------------------------------------------------------------------------
   17 O2    x      -1.1676     -0.0780     -0.0671
            y      -0.1528     -2.5324      0.0200
            z      -0.0941      0.0331     -1.0884
-------------------------------------------------------------------------------
   18 O2    x      -1.1676     -0.0780     -0.0671
            y      -0.1528     -2.5324      0.0200
            z      -0.0941      0.0331     -1.0884
-------------------------------------------------------------------------------
   19 O2    x      -2.2418      0.1832     -0.3133
            y       0.1189     -1.2671     -0.0233
            z      -0.3208      0.0204     -1.1608
-------------------------------------------------------------------------------
   20 O3    x      -2.9203      0.1995     -0.2615
            y       0.1272     -1.3774      0.1082
            z      -0.3067      0.0790     -1.2790
-------------------------------------------------------------------------------
   21 O2    x      -2.2418      0.1832     -0.3133
            y       0.1189     -1.2671     -0.0233
            z      -0.3208      0.0204     -1.1608
-------------------------------------------------------------------------------
   22 O3    x      -2.9203      0.1995     -0.2615
            y       0.1272     -1.3774      0.1082
            z      -0.3067      0.0790     -1.2790
-------------------------------------------------------------------------------
   23 O2    x      -1.4163     -0.5704     -0.3711
            y      -0.5045     -2.0250     -0.5257
            z      -0.3766     -0.5386     -1.5539
-------------------------------------------------------------------------------
   24 O2    x      -1.4658      0.5572     -0.3866
            y       0.5559     -1.9650      0.5644
            z      -0.4113      0.5688     -1.5925
-------------------------------------------------------------------------------
   25 O2    x      -1.4163     -0.5704     -0.3711
            y      -0.5045     -2.0250     -0.5257
            z      -0.3766     -0.5386     -1.5540
-------------------------------------------------------------------------------
   26 O2    x      -1.4658      0.5572     -0.3866
            y       0.5559     -1.9650      0.5644
            z      -0.4113      0.5688     -1.5925
-------------------------------------------------------------------------------
   27 O3    x      -1.5081     -0.2537      0.0485
            y      -0.3414     -2.9644      0.0945
            z       0.0746      0.0857     -1.1344
-------------------------------------------------------------------------------
   28 O3    x      -1.5081     -0.2537      0.0485
            y      -0.3414     -2.9643      0.0946
            z       0.0746      0.0857     -1.1344
-------------------------------------------------------------------------------
   29 O1    x      -2.3727     -1.0054      0.3082
            y      -0.9215     -2.6002      0.1926
            z       0.3668      0.1854     -1.3359
-------------------------------------------------------------------------------
   30 O3    x      -2.2982      0.9595      0.2690
            y       0.9732     -2.2745     -0.3118
            z       0.2886     -0.2709     -1.2818
-------------------------------------------------------------------------------
   31 O1    x      -2.3727     -1.0054      0.3081
            y      -0.9215     -2.6002      0.1925
            z       0.3668      0.1854     -1.3359
-------------------------------------------------------------------------------
   32 O3    x      -2.2982      0.9595      0.2691
            y       0.9732     -2.2745     -0.3118
            z       0.2886     -0.2709     -1.2818
-------------------------------------------------------------------------------
   33 O1    x      -1.9067     -0.1793     -0.7909
            y      -0.0188     -1.3724     -0.2060
            z      -0.5099     -0.2613     -2.7005
-------------------------------------------------------------------------------
   34 O3    x      -2.7676     -0.2759      0.9931
            y      -0.1281     -1.2595      0.1387
            z       0.9596      0.1817     -2.0270
-------------------------------------------------------------------------------
   35 O3    x      -2.7676     -0.2759      0.9931
            y      -0.1281     -1.2595      0.1386
            z       0.9596      0.1816     -2.0270
-------------------------------------------------------------------------------
   36 O2    x      -1.1210     -0.0396     -0.2438
            y       0.0136     -1.1089     -0.0097
            z      -0.2325     -0.0782     -3.2075
-------------------------------------------------------------------------------




  Elastic Constant Matrix: (Units=GPa)

-------------------------------------------------------------------------------
  Indices      1         2         3         4         5         6    
-------------------------------------------------------------------------------
       1     46.0799   20.2972   28.9145   -3.8832   -3.8272   16.0412
       2     20.2972   56.0938   20.9270   -2.5130    5.1753   20.7032
       3     28.9145   20.9270   69.4874   -0.3196    2.6522   12.6525
       4     -3.8832   -2.5130   -0.3196   15.7526    0.4711    4.8319
       5     -3.8272    5.1753    2.6522    0.4711   15.5485   -1.9714
       6     16.0412   20.7032   12.6525    4.8319   -1.9714   27.5652
-------------------------------------------------------------------------------


  Elastic Compliance Matrix: (Units=1/GPa)

-------------------------------------------------------------------------------
  Indices      1         2         3         4         5         6    
-------------------------------------------------------------------------------
       1    0.038537 -0.004149 -0.012380  0.012908  0.010669 -0.015127
       2   -0.004149  0.030193 -0.002815  0.010848 -0.013690 -0.021851
       3   -0.012380 -0.002815  0.020592 -0.002912 -0.005537 -0.000018
       4    0.012908  0.010848 -0.002912  0.077182 -0.005860 -0.028271
       5    0.010669 -0.013690 -0.005537 -0.005860  0.074262  0.012952
       6   -0.015127 -0.021851 -0.000018 -0.028271  0.012952  0.067382
-------------------------------------------------------------------------------

  Mechanical properties :

-------------------------------------------------------------------------------
  Convention :                    Reuss         Voigt         Hill
-------------------------------------------------------------------------------
  Bulk  Modulus (GPa)     =      19.74988      34.65983      27.20485
  Shear Modulus (GPa)     =      13.74714      18.54144      16.14429
-------------------------------------------------------------------------------
  Velocity S-wave (km/s)  =       2.53038       2.93868       2.74214
  Velocity P-wave (km/s)  =       4.21139       5.25904       4.76410
-------------------------------------------------------------------------------
  Compressibility (1/GPa) =    0.05063323
-------------------------------------------------------------------------------
  Stress axis :                     x             y             z
-------------------------------------------------------------------------------
  Youngs Moduli (GPa)     =      25.94923      33.12076      48.56350
-------------------------------------------------------------------------------
  Poissons Ratio (x)      =                     0.13741       0.60120
  Poissons Ratio (y)      =       0.10766                     0.13673
  Poissons Ratio (z)      =       0.32124       0.09325
-------------------------------------------------------------------------------


  Piezoelectric Strain Matrix: (Units=C/m**2)

-------------------------------------------------------------------------------
  Indices      1         2         3         4         5         6    
-------------------------------------------------------------------------------
       x    -0.00237  -0.00103  -0.00574   0.00022   0.00132  -0.00126
       y     0.00252   0.00082   0.00510  -0.00005  -0.00131   0.00142
       z     0.00070   0.00001   0.00107  -0.00000  -0.00068   0.00053
-------------------------------------------------------------------------------


  Piezoelectric Stress Matrix: (Units=10**-11 C/N)

-------------------------------------------------------------------------------
  Indices      1         2         3         4         5         6    
-------------------------------------------------------------------------------
       x     0.00203   0.00067  -0.00940   0.00201   0.01013  -0.00158
       y    -0.00057  -0.00139   0.00789  -0.00103  -0.00910   0.00244
       z    -0.00017  -0.00080   0.00171  -0.00052  -0.00421   0.00163
-------------------------------------------------------------------------------


  Static dielectric constant tensor : 

-------------------------------------------------------------------------------
              x         y         z
-------------------------------------------------------------------------------
       x     5.42559  -0.32324  -0.32232
       y    -0.32324   5.48542   0.01272
       z    -0.32232   0.01272   3.50656
--------------------------------------------------------------------------------

  High frequency dielectric constant tensor : 

-------------------------------------------------------------------------------
              x         y         z
-------------------------------------------------------------------------------
       x     1.61666   0.00246   0.00699
       y     0.00246   1.63321  -0.00203
       z     0.00699  -0.00203   1.57891
-------------------------------------------------------------------------------

  Static refractive indices : 

-------------------------------------------------------------------------------
    1 =    1.85825      2 =    2.27183      3 =    2.40900
-------------------------------------------------------------------------------

  High frequency refractive indices : 

-------------------------------------------------------------------------------
    1 =    1.25601      2 =    1.27187      3 =    1.27812
-------------------------------------------------------------------------------


  Time to end of optimisation =       3.1088 seconds


  Peak dynamic memory used =       2.76 MB 


  Timing analysis for GULP :

--------------------------------------------------------------------------------
  Task / Subroutine                                          Time (Seconds)
--------------------------------------------------------------------------------
  Calculation of reciprocal space energy and derivatives          0.1903
  Calculation of real space energy and derivatives                2.4648
  Calculation of three-body energy and derivatives                0.1640
  Calculation and manipulation of Hessian matrix                  0.5131
  Calculation of matrix inversion                                 0.0023
  Global summation overhead                                       0.0001
--------------------------------------------------------------------------------
  Total CPU time                                                  3.1088
--------------------------------------------------------------------------------


  Dump file written as c00125.vasp.grs
  CIF file written as c00125.vasp.cif


  Job Finished at 22:43.30  6th October    2025                               

