********************************************************************************
*                       GENERAL UTILITY LATTICE PROGRAM                        *
*                                 Julian Gale                                  *
*                       Curtin Institute for Computation                       *
*                    School of Molecular and Life Sciences                     *
*                    Curtin University, Western Australia                      *
********************************************************************************
* Version = 6.1.2 * Last modified =   3rd November 2022                        *
********************************************************************************
*  optimise     - perform optimisation run                                     *
*  conp         - constant pressure calculation                                *
*  property     - calculate properties for final geometry                      *
********************************************************************************

  Job Started  at 18:36.33 30th October    2025                               

  Number of CPUs =     1


  Total number of configurations input =      1

********************************************************************************
*  Input for Configuration =   1 : c00016.vasp                                 *
********************************************************************************

  Formula = Ge22Si2O48                                                  

  Number of irreducible atoms/shells =     120


  Total number atoms/shells =     120

  Dimensionality = 3               :  Bulk   



  Cartesian lattice vectors (Angstroms) :

       17.182800    0.000000    0.000000
        0.000000    7.513760    0.000000
        0.000000    0.000000   10.447700

  Cell parameters (Angstroms/Degrees):

  a =      17.1828    alpha =  90.0000
  b =       7.5138    beta  =  90.0000
  c =      10.4477    gamma =  90.0000

  Initial cell volume =        1348.875752 Angs**3

  Temperature of configuration =   0.00     K 

  Pressure of configuration =         0.000 GPa 

  Fractional coordinates of asymmetric unit :

--------------------------------------------------------------------------------
   No.  Atomic       x           y          z         Charge      Occupancy
        Label      (Frac)      (Frac)     (Frac)        (e)         (Frac)  
--------------------------------------------------------------------------------
      1 Ge    c    0.052090    0.000000    0.372270     4.00000    1.000000    
      2 Ge    c    0.447910 *  0.000000 *  0.372270 *   4.00000    1.000000    
      3 Ge    c    0.947910 *  0.000000 *  0.627730 *   4.00000    1.000000    
      4 Ge    c    0.552090 *  0.000000 *  0.627730 *   4.00000    1.000000    
      5 Ge    c    0.556730 *  0.000000 *  0.122130 *   4.00000    1.000000    
      6 Ge    c    0.943270 *  0.000000 *  0.122130 *   4.00000    1.000000    
      7 Ge    c    0.443270 *  0.000000 *  0.877870 *   4.00000    1.000000    
      8 Ge    c    0.056730 *  0.000000 *  0.877870 *   4.00000    1.000000    
      9 Ge    c    0.160190 *  0.293910 *  0.273440 *   4.00000    1.000000    
     10 Ge    c    0.339810 *  0.706090 *  0.273440 *   4.00000    1.000000    
     11 Ge    c    0.839810 *  0.293910 *  0.726560 *   4.00000    1.000000    
     12 Ge    c    0.660190 *  0.706090 *  0.726560 *   4.00000    1.000000    
     13 Ge    c    0.839810 *  0.706090 *  0.726560 *   4.00000    1.000000    
     14 Ge    c    0.660190 *  0.293910 *  0.726560 *   4.00000    1.000000    
     15 Ge    c    0.660660 *  0.294090 *  0.017440 *   4.00000    1.000000    
     16 Ge    c    0.839340 *  0.705910 *  0.017440 *   4.00000    1.000000    
     17 Ge    c    0.339340 *  0.294090 *  0.982560 *   4.00000    1.000000    
     18 Ge    c    0.160660 *  0.705910 *  0.982560 *   4.00000    1.000000    
     19 Ge    c    0.339340 *  0.705910 *  0.982560 *   4.00000    1.000000    
     20 Ge    c    0.160660 *  0.294090 *  0.982560 *   4.00000    1.000000    
     21 Ge    c    0.660660 *  0.705910 *  0.017440 *   4.00000    1.000000    
     22 Ge    c    0.839340 *  0.294090 *  0.017440 *   4.00000    1.000000    
     23 Si    c    0.160190 *  0.706090 *  0.273440 *   4.00000    1.000000    
     24 Si    c    0.339810 *  0.293910 *  0.273440 *   4.00000    1.000000    
     25 O1    c    0.106570 *  0.174340 *  0.366200 *   1.73396    1.000000    
     26 O1    c    0.393430 *  0.825660 *  0.366200 *   1.73396    1.000000    
     27 O1    c    0.893430 *  0.174340 *  0.633800 *   1.73396    1.000000    
     28 O1    c    0.606570 *  0.825660 *  0.633800 *   1.73396    1.000000    
     29 O1    c    0.893430 *  0.825660 *  0.633800 *   1.73396    1.000000    
     30 O1    c    0.606570 *  0.174340 *  0.633800 *   1.73396    1.000000    
     31 O3    c    0.106570 *  0.825660 *  0.366200 *   1.33043    1.000000    
     32 O3    c    0.393430 *  0.174340 *  0.366200 *   1.33043    1.000000    
     33 O1    c    0.000000 *  0.000000 *  0.500000 *   1.73396    1.000000    
     34 O1    c    0.500000 *  0.000000 *  0.500000 *   1.73396    1.000000    
     35 O1    c    0.994520 *  0.000000 *  0.250840 *   1.73396    1.000000    
     36 O1    c    0.505480 *  0.000000 *  0.250840 *   1.73396    1.000000    
     37 O1    c    0.005480 *  0.000000 *  0.749160 *   1.73396    1.000000    
     38 O1    c    0.494520 *  0.000000 *  0.749160 *   1.73396    1.000000    
     39 O1    c    0.610230 *  0.175520 *  0.115390 *   1.73396    1.000000    
     40 O1    c    0.889770 *  0.824480 *  0.115390 *   1.73396    1.000000    
     41 O1    c    0.389770 *  0.175520 *  0.884610 *   1.73396    1.000000    
     42 O1    c    0.110230 *  0.824480 *  0.884610 *   1.73396    1.000000    
     43 O1    c    0.389770 *  0.824480 *  0.884610 *   1.73396    1.000000    
     44 O1    c    0.110230 *  0.175520 *  0.884610 *   1.73396    1.000000    
     45 O1    c    0.610230 *  0.824480 *  0.115390 *   1.73396    1.000000    
     46 O1    c    0.889770 *  0.175520 *  0.115390 *   1.73396    1.000000    
     47 O1    c    0.500000 *  0.000000 *  0.000000 *   1.73396    1.000000    
     48 O1    c    0.000000 *  0.000000 *  0.000000 *   1.73396    1.000000    
     49 O3    c    0.151750 *  0.500000 *  0.313330 *   1.33043    1.000000    
     50 O3    c    0.348250 *  0.500000 *  0.313330 *   1.33043    1.000000    
     51 O1    c    0.848250 *  0.500000 *  0.686670 *   1.73396    1.000000    
     52 O1    c    0.651750 *  0.500000 *  0.686670 *   1.73396    1.000000    
     53 O3    c    0.250000 *  0.234950 *  0.285720 *   1.33043    1.000000    
     54 O3    c    0.250000 *  0.765050 *  0.285720 *   1.33043    1.000000    
     55 O1    c    0.750000 *  0.234950 *  0.714280 *   1.73396    1.000000    
     56 O1    c    0.750000 *  0.765050 *  0.714280 *   1.73396    1.000000    
     57 O1    c    0.131410 *  0.268650 *  0.127790 *   1.73396    1.000000    
     58 O1    c    0.368590 *  0.731350 *  0.127790 *   1.73396    1.000000    
     59 O1    c    0.868590 *  0.268650 *  0.872210 *   1.73396    1.000000    
     60 O1    c    0.631410 *  0.731350 *  0.872210 *   1.73396    1.000000    
     61 O1    c    0.868590 *  0.731350 *  0.872210 *   1.73396    1.000000    
     62 O1    c    0.631410 *  0.268650 *  0.872210 *   1.73396    1.000000    
     63 O3    c    0.131410 *  0.731350 *  0.127790 *   1.33043    1.000000    
     64 O3    c    0.368590 *  0.268650 *  0.127790 *   1.33043    1.000000    
     65 O1    c    0.653920 *  0.500000 *  0.058200 *   1.73396    1.000000    
     66 O1    c    0.846080 *  0.500000 *  0.058200 *   1.73396    1.000000    
     67 O1    c    0.346080 *  0.500000 *  0.941800 *   1.73396    1.000000    
     68 O1    c    0.153920 *  0.500000 *  0.941800 *   1.73396    1.000000    
     69 O1    c    0.750000 *  0.231060 *  0.027050 *   1.73396    1.000000    
     70 O1    c    0.750000 *  0.768940 *  0.027050 *   1.73396    1.000000    
     71 O1    c    0.250000 *  0.231060 *  0.972950 *   1.73396    1.000000    
     72 O1    c    0.250000 *  0.768940 *  0.972950 *   1.73396    1.000000    
     73 O1    s    0.106570 *  0.174340 *  0.366200 *  -3.73396    1.000000    
     74 O1    s    0.393430 *  0.825660 *  0.366200 *  -3.73396    1.000000    
     75 O1    s    0.893430 *  0.174340 *  0.633800 *  -3.73396    1.000000    
     76 O1    s    0.606570 *  0.825660 *  0.633800 *  -3.73396    1.000000    
     77 O1    s    0.893430 *  0.825660 *  0.633800 *  -3.73396    1.000000    
     78 O1    s    0.606570 *  0.174340 *  0.633800 *  -3.73396    1.000000    
     79 O3    s    0.106570 *  0.825660 *  0.366200 *  -3.33043    1.000000    
     80 O3    s    0.393430 *  0.174340 *  0.366200 *  -3.33043    1.000000    
     81 O1    s    0.000000 *  0.000000 *  0.500000 *  -3.73396    1.000000    
     82 O1    s    0.500000 *  0.000000 *  0.500000 *  -3.73396    1.000000    
     83 O1    s    0.994520 *  0.000000 *  0.250840 *  -3.73396    1.000000    
     84 O1    s    0.505480 *  0.000000 *  0.250840 *  -3.73396    1.000000    
     85 O1    s    0.005480 *  0.000000 *  0.749160 *  -3.73396    1.000000    
     86 O1    s    0.494520 *  0.000000 *  0.749160 *  -3.73396    1.000000    
     87 O1    s    0.610230 *  0.175520 *  0.115390 *  -3.73396    1.000000    
     88 O1    s    0.889770 *  0.824480 *  0.115390 *  -3.73396    1.000000    
     89 O1    s    0.389770 *  0.175520 *  0.884610 *  -3.73396    1.000000    
     90 O1    s    0.110230 *  0.824480 *  0.884610 *  -3.73396    1.000000    
     91 O1    s    0.389770 *  0.824480 *  0.884610 *  -3.73396    1.000000    
     92 O1    s    0.110230 *  0.175520 *  0.884610 *  -3.73396    1.000000    
     93 O1    s    0.610230 *  0.824480 *  0.115390 *  -3.73396    1.000000    
     94 O1    s    0.889770 *  0.175520 *  0.115390 *  -3.73396    1.000000    
     95 O1    s    0.500000 *  0.000000 *  0.000000 *  -3.73396    1.000000    
     96 O1    s    0.000000 *  0.000000 *  0.000000 *  -3.73396    1.000000    
     97 O3    s    0.151750 *  0.500000 *  0.313330 *  -3.33043    1.000000    
     98 O3    s    0.348250 *  0.500000 *  0.313330 *  -3.33043    1.000000    
     99 O1    s    0.848250 *  0.500000 *  0.686670 *  -3.73396    1.000000    
    100 O1    s    0.651750 *  0.500000 *  0.686670 *  -3.73396    1.000000    
    101 O3    s    0.250000 *  0.234950 *  0.285720 *  -3.33043    1.000000    
    102 O3    s    0.250000 *  0.765050 *  0.285720 *  -3.33043    1.000000    
    103 O1    s    0.750000 *  0.234950 *  0.714280 *  -3.73396    1.000000    
    104 O1    s    0.750000 *  0.765050 *  0.714280 *  -3.73396    1.000000    
    105 O1    s    0.131410 *  0.268650 *  0.127790 *  -3.73396    1.000000    
    106 O1    s    0.368590 *  0.731350 *  0.127790 *  -3.73396    1.000000    
    107 O1    s    0.868590 *  0.268650 *  0.872210 *  -3.73396    1.000000    
    108 O1    s    0.631410 *  0.731350 *  0.872210 *  -3.73396    1.000000    
    109 O1    s    0.868590 *  0.731350 *  0.872210 *  -3.73396    1.000000    
    110 O1    s    0.631410 *  0.268650 *  0.872210 *  -3.73396    1.000000    
    111 O3    s    0.131410 *  0.731350 *  0.127790 *  -3.33043    1.000000    
    112 O3    s    0.368590 *  0.268650 *  0.127790 *  -3.33043    1.000000    
    113 O1    s    0.653920 *  0.500000 *  0.058200 *  -3.73396    1.000000    
    114 O1    s    0.846080 *  0.500000 *  0.058200 *  -3.73396    1.000000    
    115 O1    s    0.346080 *  0.500000 *  0.941800 *  -3.73396    1.000000    
    116 O1    s    0.153920 *  0.500000 *  0.941800 *  -3.73396    1.000000    
    117 O1    s    0.750000 *  0.231060 *  0.027050 *  -3.73396    1.000000    
    118 O1    s    0.750000 *  0.768940 *  0.027050 *  -3.73396    1.000000    
    119 O1    s    0.250000 *  0.231060 *  0.972950 *  -3.73396    1.000000    
    120 O1    s    0.250000 *  0.768940 *  0.972950 *  -3.73396    1.000000    
--------------------------------------------------------------------------------



********************************************************************************
*  General input information                                                   *
********************************************************************************

  Species output for all configurations : 

--------------------------------------------------------------------------------
  Species    Type    Atomic    Atomic    Charge       Radii (Angs)     Library
                     Number     Mass       (e)     Cova   Ionic  VDW   Symbol
--------------------------------------------------------------------------------
    Ge       Core       32      72.61   4.000000   1.170  0.000  1.750 Ge       
    Si       Core       14      28.09   4.000000   1.200  0.000  2.100 Si       
    O1       Core        8      16.00   1.733957   0.730  0.000  1.360 O1       
    O2       Core        8      16.00   0.870733   0.730  0.000  0.000 O2       
    O3       Core        8      16.00   1.330431   0.730  0.000  1.360 O3       
    O1       Shell       8       0.00  -3.733957   0.730  0.000  0.000 O1       
    O2       Shell       8       0.00  -2.870733   0.730  0.000  0.000 O2       
    O3       Shell       8       0.00  -3.330431   0.730  0.000  0.000 O3       
--------------------------------------------------------------------------------


  Lattice summation method               =    Ewald          (3-D)
                                         =    Parry          (2-D)
                                         =    Saunders et al (1-D)
  Accuracy factor for lattice sums       =   12.000


  Analytic derivatives to be used

  Time limit = Infinity

  Maximum range for interatomic potentials =    100000.000000 Angstroms

  General interatomic potentials :

--------------------------------------------------------------------------------
Atom  Types   Potential      Parameter       Value         Units   Cutoffs(Ang)
  1     2                                                            Min /  Max 
--------------------------------------------------------------------------------
Si   c O1   s Buckingham    Buckingham A     1315.2478    eV        0.000 16.000
                            Buckingham rho  0.31775900    Ang       
                            Buckingham C     10.141118    eV*Ang^6  
--------------------------------------------------------------------------------
Si   c O2   s Buckingham    Buckingham A     1315.2478    eV        0.000 16.000
                            Buckingham rho  0.31775900    Ang       
                            Buckingham C     10.141118    eV*Ang^6  
--------------------------------------------------------------------------------
Si   c O3   s Buckingham    Buckingham A     1315.2478    eV        0.000 16.000
                            Buckingham rho  0.31775900    Ang       
                            Buckingham C     10.141118    eV*Ang^6  
--------------------------------------------------------------------------------
Ge   c O1   s Buckingham    Buckingham A     1497.3996    eV        0.000 16.000
                            Buckingham rho  0.32564600    Ang       
                            Buckingham C     16.808599    eV*Ang^6  
--------------------------------------------------------------------------------
Ge   c O2   s Buckingham    Buckingham A     1497.3996    eV        0.000 16.000
                            Buckingham rho  0.32564600    Ang       
                            Buckingham C     16.808599    eV*Ang^6  
--------------------------------------------------------------------------------
Ge   c O3   s Buckingham    Buckingham A     1497.3996    eV        0.000 16.000
                            Buckingham rho  0.32564600    Ang       
                            Buckingham C     16.808599    eV*Ang^6  
--------------------------------------------------------------------------------
O1   s O1   s Buckingham    Buckingham A     22764.000    eV        0.000 16.000
                            Buckingham rho  0.14900000    Ang       
                            Buckingham C     10.937044    eV*Ang^6  
--------------------------------------------------------------------------------
O1   s O2   s Buckingham    Buckingham A     22764.000    eV        0.000 16.000
                            Buckingham rho  0.14900000    Ang       
                            Buckingham C     10.937044    eV*Ang^6  
--------------------------------------------------------------------------------
O1   s O3   s Buckingham    Buckingham A     22764.000    eV        0.000 16.000
                            Buckingham rho  0.14900000    Ang       
                            Buckingham C     10.937044    eV*Ang^6  
--------------------------------------------------------------------------------
O2   s O2   s Buckingham    Buckingham A     22764.000    eV        0.000 16.000
                            Buckingham rho  0.14900000    Ang       
                            Buckingham C     10.937044    eV*Ang^6  
--------------------------------------------------------------------------------
O2   s O3   s Buckingham    Buckingham A     22764.000    eV        0.000 16.000
                            Buckingham rho  0.14900000    Ang       
                            Buckingham C     10.937044    eV*Ang^6  
--------------------------------------------------------------------------------
O3   s O3   s Buckingham    Buckingham A     22764.000    eV        0.000 16.000
                            Buckingham rho  0.14900000    Ang       
                            Buckingham C     10.937044    eV*Ang^6  
--------------------------------------------------------------------------------
O1   c O1   s Spring (c-s)  Spring k 2       180.31577    eV*Ang^-2 0.000  0.800
                            Spring k 4       0.0000000    eV*Ang^-4 
--------------------------------------------------------------------------------
O2   c O2   s Spring (c-s)  Spring k 2       75.969800    eV*Ang^-2 0.000  0.800
                            Spring k 4       0.0000000    eV*Ang^-4 
--------------------------------------------------------------------------------
O3   c O3   s Spring (c-s)  Spring k 2       128.14270    eV*Ang^-2 0.000  0.800
                            Spring k 4       0.0000000    eV*Ang^-4 
--------------------------------------------------------------------------------

  General Three-body potentials :

--------------------------------------------------------------------------------
  Atoms       Potential      Parameter       Value         Units   Cutoffs(Ang)
  1 / 2 / 3                                                          Min /  Max 
--------------------------------------------------------------------------------
Si    core    Harmonic      Three-body cnst  1.2614000    eV*rad^-2 0.000  1.900
O1    shel                  Three-body angl  109.47000    degrees   0.000  1.900
O1    shel                  Three-body k4    0.0000000    eV*rad^-4 0.000  3.500
                            Three-body k3    0.0000000    eV*rad^-3 
--------------------------------------------------------------------------------
Si    core    Harmonic      Three-body cnst  1.2614000    eV*rad^-2 0.000  1.900
O1    shel                  Three-body angl  109.47000    degrees   0.000  1.900
õ(1   shel                  Three-body k4    0.0000000    eV*rad^-4 0.000  3.500
                            Three-body k3    0.0000000    eV*rad^-3 
--------------------------------------------------------------------------------
Si    core    Harmonic      Three-body cnst  1.2614000    eV*rad^-2 0.000  1.900
õ(1   shel                  Three-body angl  109.47000    degrees   0.000  1.900
õ(1   shel                  Three-body k4    0.0000000    eV*rad^-4 0.000  3.500
                            Three-body k3    0.0000000    eV*rad^-3 
--------------------------------------------------------------------------------
Si    core    Harmonic      Three-body cnst  1.2614000    eV*rad^-2 0.000  1.900
O1    shel                  Three-body angl  109.47000    degrees   0.000  1.900
O2    shel                  Three-body k4    0.0000000    eV*rad^-4 0.000  3.500
                            Three-body k3    0.0000000    eV*rad^-3 
--------------------------------------------------------------------------------
Si    core    Harmonic      Three-body cnst  1.2614000    eV*rad^-2 0.000  1.900
O1    shel                  Three-body angl  109.47000    degrees   0.000  1.900
õ(2   shel                  Three-body k4    0.0000000    eV*rad^-4 0.000  3.500
                            Three-body k3    0.0000000    eV*rad^-3 
--------------------------------------------------------------------------------
Si    core    Harmonic      Three-body cnst  1.2614000    eV*rad^-2 0.000  1.900
O2    shel                  Three-body angl  109.47000    degrees   0.000  1.900
õ(1   shel                  Three-body k4    0.0000000    eV*rad^-4 0.000  3.500
                            Three-body k3    0.0000000    eV*rad^-3 
--------------------------------------------------------------------------------
Si    core    Harmonic      Three-body cnst  1.2614000    eV*rad^-2 0.000  1.900
õ(1   shel                  Three-body angl  109.47000    degrees   0.000  1.900
õ(2   shel                  Three-body k4    0.0000000    eV*rad^-4 0.000  3.500
                            Three-body k3    0.0000000    eV*rad^-3 
--------------------------------------------------------------------------------
Si    core    Harmonic      Three-body cnst  1.2614000    eV*rad^-2 0.000  1.900
O2    shel                  Three-body angl  109.47000    degrees   0.000  1.900
O2    shel                  Three-body k4    0.0000000    eV*rad^-4 0.000  3.500
                            Three-body k3    0.0000000    eV*rad^-3 
--------------------------------------------------------------------------------
Si    core    Harmonic      Three-body cnst  1.2614000    eV*rad^-2 0.000  1.900
O2    shel                  Three-body angl  109.47000    degrees   0.000  1.900
õ(2   shel                  Three-body k4    0.0000000    eV*rad^-4 0.000  3.500
                            Three-body k3    0.0000000    eV*rad^-3 
--------------------------------------------------------------------------------
Si    core    Harmonic      Three-body cnst  1.2614000    eV*rad^-2 0.000  1.900
õ(2   shel                  Three-body angl  109.47000    degrees   0.000  1.900
õ(2   shel                  Three-body k4    0.0000000    eV*rad^-4 0.000  3.500
                            Three-body k3    0.0000000    eV*rad^-3 
--------------------------------------------------------------------------------

********************************************************************************
*  Output for configuration   1 : c00016.vasp                                  *
********************************************************************************


  Components of energy : 

--------------------------------------------------------------------------------
  Interatomic potentials     =         912.66702504 eV    
  Three-body potentials      =           0.00000000 eV    
  Monopole - monopole (real) =       -2676.00317478 eV    
  Monopole - monopole (recip)=       -1115.35404472 eV    
  Monopole - monopole (total)=       -3791.35721950 eV    
--------------------------------------------------------------------------------
  Total lattice energy       =       -2878.69019446 eV    
--------------------------------------------------------------------------------
  Total lattice energy       =         -277749.5990 kJ/(mole unit cells)
--------------------------------------------------------------------------------


  Number of variables =      363

  Maximum number of calculations  =          1000
  Maximum Hessian update interval =            10
  Maximum step size               =   0.100000000
  Maximum parameter tolerance     =   0.000010000
  Maximum function  tolerance     =   0.000010000
  Maximum gradient  tolerance     =   0.001000000
  Maximum gradient  component     =   0.010000000

  Symmetry not applied to optimisation

  Cell parameters to be optimised using strains

  Newton-Raphson optimiser to be used

  BFGS hessian update to be used

  Lower half triangular hessian to be used

  Minimiser to switch to RFO
  When gradient norm is less than     0.050000

  Dumpfile to be written after every cycle

  Start of bulk optimisation :

  Cycle:      0 Energy:     -2878.690194  Gnorm:      5.964197  CPU:    0.094
  ** Hessian calculated **
  Cycle:      1 Energy:     -2924.570000  Gnorm:      1.437078  CPU:    0.208
  ** Hessian calculated **
  Cycle:      2 Energy:     -2929.806549  Gnorm:      0.765809  CPU:    0.378
  Cycle:      3 Energy:     -2930.650853  Gnorm:      0.308571  CPU:    0.459
  Cycle:      4 Energy:     -2930.926367  Gnorm:      0.247524  CPU:    0.554
  Cycle:      5 Energy:     -2931.274123  Gnorm:      0.207019  CPU:    0.648
  Cycle:      6 Energy:     -2931.656498  Gnorm:      0.181449  CPU:    0.743
  Cycle:      7 Energy:     -2931.890283  Gnorm:      0.135176  CPU:    0.824
  Cycle:      8 Energy:     -2931.977362  Gnorm:      0.101149  CPU:    0.904
  Cycle:      9 Energy:     -2932.021676  Gnorm:      0.076051  CPU:    0.998
  Cycle:     10 Energy:     -2932.056537  Gnorm:      0.074893  CPU:    1.092
  Cycle:     11 Energy:     -2932.094603  Gnorm:      0.081189  CPU:    1.187
  ** Hessian calculated **
  Cycle:     12 Energy:     -2932.112381  Gnorm:      0.079766  CPU:    1.358
  Cycle:     13 Energy:     -2932.147321  Gnorm:      0.076706  CPU:    1.468
  Cycle:     14 Energy:     -2932.210885  Gnorm:      0.070109  CPU:    1.562
  Cycle:     15 Energy:     -2932.298035  Gnorm:      0.058926  CPU:    1.671
  Cycle:     16 Energy:     -2932.337217  Gnorm:      0.052657  CPU:    1.765
  Cycle:     17 Energy:     -2932.423615  Gnorm:      0.036265  CPU:    1.859
  ** Hessian has wrong structure
  ** Imaginary eigenvectors =   7
  Cycle:     18 Energy:     -2932.431335  Gnorm:      0.138431  CPU:    2.073
  ** Hessian has wrong structure
  ** Imaginary eigenvectors =   5
  ** Hessian has wrong structure
  ** Imaginary eigenvectors =   5
  Cycle:     19 Energy:     -2932.470856  Gnorm:      0.143423  CPU:    2.493
  ** Hessian has wrong structure
  ** Imaginary eigenvectors =   4
  ** Hessian has wrong structure
  ** Imaginary eigenvectors =   3
  Cycle:     20 Energy:     -2932.549173  Gnorm:      0.158957  CPU:    2.897
  ** Hessian has wrong structure
  ** Imaginary eigenvectors =   2
  ** Hessian has required structure
  Cycle:     21 Energy:     -2932.973738  Gnorm:      0.115114  CPU:    3.263
  ** Hessian has required structure
  Cycle:     22 Energy:     -2933.126752  Gnorm:      0.078549  CPU:    3.403
  ** Hessian has required structure
  Cycle:     23 Energy:     -2933.231476  Gnorm:      0.048612  CPU:    3.544
  ** Hessian has required structure
  Cycle:     24 Energy:     -2933.274615  Gnorm:      0.073184  CPU:    3.684
  ** Hessian has required structure
  Cycle:     25 Energy:     -2933.310415  Gnorm:      0.055781  CPU:    3.823
  ** Hessian has required structure
  Cycle:     26 Energy:     -2933.334377  Gnorm:      0.042002  CPU:    3.962
  ** Hessian has required structure
  Cycle:     27 Energy:     -2933.348427  Gnorm:      0.030027  CPU:    4.101
  ** Hessian has required structure
  Cycle:     28 Energy:     -2933.354864  Gnorm:      0.016153  CPU:    4.239
  ** Hessian has required structure
  Cycle:     29 Energy:     -2933.358614  Gnorm:      0.014060  CPU:    4.388
  ** Hessian has required structure
  Cycle:     30 Energy:     -2933.360116  Gnorm:      0.008589  CPU:    4.515
  ** Hessian has required structure
  Cycle:     31 Energy:     -2933.361889  Gnorm:      0.004353  CPU:    4.748
  ** Hessian has required structure
  Cycle:     32 Energy:     -2933.362335  Gnorm:      0.002242  CPU:    4.890
  ** Hessian has required structure
  Cycle:     33 Energy:     -2933.362446  Gnorm:      0.001132  CPU:    5.031
  ** Hessian has required structure
  Cycle:     34 Energy:     -2933.362470  Gnorm:      0.000683  CPU:    5.159
  ** Hessian has required structure
  Cycle:     35 Energy:     -2933.362477  Gnorm:      0.000478  CPU:    5.274
  ** Hessian has required structure
  Cycle:     36 Energy:     -2933.362478  Gnorm:      0.000383  CPU:    5.389
  ** Hessian has required structure
  Cycle:     37 Energy:     -2933.362480  Gnorm:      0.000297  CPU:    5.505
  ** Hessian has required structure
  Cycle:     38 Energy:     -2933.362481  Gnorm:      0.000224  CPU:    5.619
  ** Hessian has required structure
  Cycle:     39 Energy:     -2933.362482  Gnorm:      0.000165  CPU:    5.733
  ** Hessian has required structure
  Cycle:     40 Energy:     -2933.362483  Gnorm:      0.000120  CPU:    5.848
  ** Hessian has required structure


  **** Optimisation achieved ****


  Final energy =   -2933.36248330 eV      
  Final Gnorm  =       0.00009565

  Components of energy : 

--------------------------------------------------------------------------------
  Interatomic potentials     =         772.87450595 eV    
  Three-body potentials      =           0.00000000 eV    
  Monopole - monopole (real) =       -1483.05293180 eV    
  Monopole - monopole (recip)=       -2223.18405745 eV    
  Monopole - monopole (total)=       -3706.23698926 eV    
--------------------------------------------------------------------------------
  Total lattice energy       =       -2933.36248330 eV    
--------------------------------------------------------------------------------
  Total lattice energy       =         -283024.6391 kJ/(mole unit cells)
--------------------------------------------------------------------------------

  Final fractional coordinates of atoms :

--------------------------------------------------------------------------------
   No.  Atomic        x           y          z          Radius
        Label       (Frac)      (Frac)     (Frac)       (Angs) 
--------------------------------------------------------------------------------
     1  Ge    c     0.052090    0.000000    0.372270    0.000000
     2  Ge    c     0.437649    0.960509    0.418865    0.000000
     3  Ge    c     0.943290    0.953468    0.622182    0.000000
     4  Ge    c     0.545334    0.017100    0.664860    0.000000
     5  Ge    c     0.549803    0.012912    0.176470    0.000000
     6  Ge    c     0.944516    0.949255    0.123170    0.000000
     7  Ge    c     0.446254    0.951323    0.922710    0.000000
     8  Ge    c     0.048503    0.011833    0.872317    0.000000
     9  Ge    c     0.145205    0.320141    0.306363    0.000000
    10  Ge    c     0.348433    0.640825    0.304417    0.000000
    11  Ge    c     0.822191    0.244304    0.737601    0.000000
    12  Ge    c     0.667758    0.728489    0.737964    0.000000
    13  Ge    c     0.848482    0.644579    0.739722    0.000000
    14  Ge    c     0.641848    0.328147    0.735977    0.000000
    15  Ge    c     0.640718    0.323932    0.054599    0.000000
    16  Ge    c     0.848880    0.636373    0.058362    0.000000
    17  Ge    c     0.321710    0.241760    0.990165    0.000000
    18  Ge    c     0.169230    0.720792    0.995195    0.000000
    19  Ge    c     0.349396    0.641054    0.987138    0.000000
    20  Ge    c     0.140739    0.319554    0.990636    0.000000
    21  Ge    c     0.668840    0.725102    0.056345    0.000000
    22  Ge    c     0.821455    0.238679    0.055732    0.000000
    23  Si    c     0.168813    0.708324    0.307313    0.000000
    24  Si    c     0.324845    0.250916    0.299993    0.000000
    25  O1    c     0.089725    0.194998    0.400823    0.000000
    26  O1    c     0.407747    0.757513    0.397427    0.000000
    27  O1    c     0.869197    0.096815    0.642583    0.000000
    28  O1    c     0.617980    0.868921    0.640228    0.000000
    29  O1    c     0.914400    0.752063    0.652836    0.000000
    30  O1    c     0.579179    0.216488    0.644000    0.000000
    31  O3    c     0.124412    0.847473    0.394415    0.000000
    32  O3    c     0.363950    0.102813    0.385721    0.000000
    33  O1    c     0.973169    0.962629    0.461034    0.000000
    34  O1    c     0.464483    0.980506    0.580431    0.000000
    35  O1    c     0.022870    0.993927    0.210642    0.000000
    36  O1    c     0.519447    0.002771    0.336600    0.000000
    37  O1    c     0.022323    0.001283    0.710496    0.000000
    38  O1    c     0.521801    0.997317    0.829420    0.000000
    39  O1    c     0.575589    0.216876    0.143190    0.000000
    40  O1    c     0.912124    0.748319    0.148022    0.000000
    41  O1    c     0.371989    0.096799    0.900318    0.000000
    42  O1    c     0.123646    0.874520    0.905776    0.000000
    43  O1    c     0.412295    0.752023    0.896059    0.000000
    44  O1    c     0.075152    0.216240    0.901032    0.000000
    45  O1    c     0.626005    0.874824    0.154254    0.000000
    46  O1    c     0.870535    0.093515    0.149372    0.000000
    47  O1    c     0.473969    0.956323    0.084722    0.000000
    48  O1    c     0.970217    0.959502    0.959742    0.000000
    49  O3    c     0.151070    0.523402    0.366276    0.000000
    50  O3    c     0.343494    0.433560    0.360835    0.000000
    51  O1    c     0.836187    0.445447    0.677328    0.000000
    52  O1    c     0.653790    0.527296    0.676803    0.000000
    53  O3    c     0.235258    0.227521    0.296467    0.000000
    54  O3    c     0.258196    0.734749    0.308682    0.000000
    55  O1    c     0.726679    0.212876    0.737817    0.000000
    56  O1    c     0.763373    0.759399    0.736750    0.000000
    57  O1    c     0.109643    0.325383    0.150397    0.000000
    58  O1    c     0.381023    0.634971    0.147418    0.000000
    59  O1    c     0.854205    0.228453    0.896458    0.000000
    60  O1    c     0.635814    0.741082    0.897768    0.000000
    61  O1    c     0.878866    0.617866    0.898226    0.000000
    62  O1    c     0.610333    0.344475    0.895339    0.000000
    63  O3    c     0.139167    0.719942    0.157594    0.000000
    64  O3    c     0.355001    0.239932    0.151152    0.000000
    65  O1    c     0.652546    0.523885    0.115145    0.000000
    66  O1    c     0.836694    0.438140    0.119338    0.000000
    67  O1    c     0.337775    0.442038    0.928662    0.000000
    68  O1    c     0.151416    0.522146    0.934308    0.000000
    69  O1    c     0.725930    0.209767    0.056539    0.000000
    70  O1    c     0.764436    0.752523    0.054580    0.000000
    71  O1    c     0.226924    0.209443    0.984202    0.000000
    72  O1    c     0.263963    0.753492    0.989318    0.000000
    73  O1    s     0.091137    0.190247    0.391688    0.000000
    74  O1    s     0.405407    0.763704    0.391855    0.000000
    75  O1    s     0.871231    0.097272    0.648408    0.000000
    76  O1    s     0.616453    0.869068    0.649387    0.000000
    77  O1    s     0.911550    0.759101    0.657140    0.000000
    78  O1    s     0.581251    0.209909    0.652235    0.000000
    79  O3    s     0.123220    0.845456    0.384165    0.000000
    80  O3    s     0.366054    0.106087    0.379785    0.000000
    81  O1    s     0.977207    0.964898    0.465664    0.000000
    82  O1    s     0.468766    0.981863    0.575194    0.000000
    83  O1    s     0.018823    0.990893    0.215320    0.000000
    84  O1    s     0.515607    0.000382    0.331081    0.000000
    85  O1    s     0.018417    0.998500    0.715894    0.000000
    86  O1    s     0.517428    0.995074    0.825404    0.000000
    87  O1    s     0.578671    0.209985    0.138874    0.000000
    88  O1    s     0.909802    0.754543    0.139643    0.000000
    89  O1    s     0.373374    0.097829    0.909095    0.000000
    90  O1    s     0.121579    0.872576    0.910448    0.000000
    91  O1    s     0.410074    0.758047    0.904703    0.000000
    92  O1    s     0.078226    0.209120    0.905812    0.000000
    93  O1    s     0.623592    0.873549    0.148281    0.000000
    94  O1    s     0.872143    0.094211    0.140263    0.000000
    95  O1    s     0.477677    0.960250    0.079998    0.000000
    96  O1    s     0.974239    0.962671    0.964686    0.000000
    97  O3    s     0.152229    0.524166    0.356080    0.000000
    98  O3    s     0.342155    0.432457    0.350891    0.000000
    99  O1    s     0.836095    0.445724    0.686280    0.000000
   100  O1    s     0.653858    0.526148    0.685747    0.000000
   101  O3    s     0.236933    0.237138    0.297560    0.000000
   102  O3    s     0.256456    0.724829    0.308205    0.000000
   103  O1    s     0.727657    0.223478    0.737688    0.000000
   104  O1    s     0.762378    0.748917    0.737058    0.000000
   105  O1    s     0.114627    0.324552    0.150432    0.000000
   106  O1    s     0.376202    0.635870    0.148022    0.000000
   107  O1    s     0.849500    0.230338    0.896273    0.000000
   108  O1    s     0.640495    0.739028    0.897833    0.000000
   109  O1    s     0.874388    0.621217    0.898104    0.000000
   110  O1    s     0.614897    0.341751    0.895490    0.000000
   111  O3    s     0.144169    0.718961    0.159118    0.000000
   112  O3    s     0.349698    0.241080    0.153129    0.000000
   113  O1    s     0.652824    0.523347    0.106427    0.000000
   114  O1    s     0.836555    0.439344    0.110128    0.000000
   115  O1    s     0.337538    0.443318    0.937622    0.000000
   116  O1    s     0.151900    0.521356    0.942939    0.000000
   117  O1    s     0.726981    0.220143    0.056333    0.000000
   118  O1    s     0.763382    0.742052    0.054957    0.000000
   119  O1    s     0.228005    0.219879    0.985129    0.000000
   120  O1    s     0.262899    0.742799    0.989639    0.000000
--------------------------------------------------------------------------------

  Final Cartesian lattice vectors (Angstroms) :

       17.672963    0.314047    0.001421
        0.138010    7.884965    0.006527
        0.001282    0.008950   10.196728


  Final cell parameters and derivatives :

--------------------------------------------------------------------------------
       a           17.675753 Angstrom     dE/de1(xx)     0.002657 eV/strain
       b            7.886175 Angstrom     dE/de2(yy)     0.002699 eV/strain
       c           10.196732 Angstrom     dE/de3(zz)    -0.000622 eV/strain
       alpha       89.902177 Degrees      dE/de4(yz)     0.000178 eV/strain
       beta        89.987295 Degrees      dE/de5(xz)     0.000206 eV/strain
       gamma       87.979224 Degrees      dE/de6(xy)     0.000570 eV/strain
--------------------------------------------------------------------------------

  Primitive cell volume =          1420.478134 Angs**3

  Density of cell =      2.830896 g/cm**3

  Non-primitive cell volume =          1420.478134 Angs**3


  Final internal derivatives :

--------------------------------------------------------------------------------
   No.  Atomic          a             b             c           Radius
        Label          (eV)          (eV)          (eV)        (eV/Angs)
--------------------------------------------------------------------------------
      1 Ge    c       0.000000      0.000000      0.000000      0.000000
      2 Ge    c       0.002323      0.000277      0.000310      0.000000
      3 Ge    c      -0.001885      0.000048      0.000018      0.000000
      4 Ge    c       0.003489      0.001230      0.000723      0.000000
      5 Ge    c       0.001147      0.000884     -0.002269      0.000000
      6 Ge    c      -0.002395     -0.001003     -0.001221      0.000000
      7 Ge    c      -0.002021     -0.001478      0.001002      0.000000
      8 Ge    c       0.001425     -0.000027     -0.001790      0.000000
      9 Ge    c      -0.002695     -0.001278      0.000195      0.000000
     10 Ge    c      -0.000675     -0.000142     -0.000836      0.000000
     11 Ge    c       0.002241     -0.000714     -0.001489      0.000000
     12 Ge    c      -0.002434      0.001219     -0.000946      0.000000
     13 Ge    c      -0.001429      0.000329      0.000027      0.000000
     14 Ge    c      -0.001477     -0.000849      0.000101      0.000000
     15 Ge    c      -0.003741     -0.001223     -0.000383      0.000000
     16 Ge    c       0.000621     -0.000617      0.000342      0.000000
     17 Ge    c       0.003474     -0.001571     -0.000056      0.000000
     18 Ge    c      -0.004575      0.001811     -0.001162      0.000000
     19 Ge    c       0.001073      0.000422     -0.000816      0.000000
     20 Ge    c       0.000419     -0.000373      0.000032      0.000000
     21 Ge    c      -0.002750      0.000842      0.002412      0.000000
     22 Ge    c       0.000305     -0.001078      0.001650      0.000000
     23 Si    c      -0.005258      0.002408      0.000507      0.000000
     24 Si    c       0.000836     -0.001235     -0.001143      0.000000
     25 O1    c      -0.001147     -0.000753     -0.000350      0.000000
     26 O1    c      -0.002739     -0.002707      0.002085      0.000000
     27 O1    c      -0.002444      0.000913      0.001832      0.000000
     28 O1    c       0.002447     -0.001245      0.002570      0.000000
     29 O1    c       0.003832      0.001167     -0.001161      0.000000
     30 O1    c      -0.000748     -0.002113      0.000704      0.000000
     31 O3    c       0.003485     -0.000862     -0.000291      0.000000
     32 O3    c      -0.004857      0.003388      0.000163      0.000000
     33 O1    c      -0.006879     -0.000592      0.003658      0.000000
     34 O1    c       0.000494     -0.000621      0.001574      0.000000
     35 O1    c       0.001661     -0.000659     -0.002910      0.000000
     36 O1    c       0.001442     -0.000721     -0.000314      0.000000
     37 O1    c       0.005932     -0.000051      0.002365      0.000000
     38 O1    c      -0.000364     -0.001235     -0.002777      0.000000
     39 O1    c      -0.000704     -0.002351     -0.000776      0.000000
     40 O1    c       0.006018      0.002423      0.001586      0.000000
     41 O1    c      -0.004756      0.002951      0.003006      0.000000
     42 O1    c       0.005762     -0.003252      0.003615      0.000000
     43 O1    c       0.001427      0.001804     -0.000295      0.000000
     44 O1    c       0.000376      0.001208      0.000634      0.000000
     45 O1    c       0.003466     -0.001808     -0.003785      0.000000
     46 O1    c      -0.001766      0.000445     -0.001122      0.000000
     47 O1    c       0.008246      0.002366      0.002649      0.000000
     48 O1    c      -0.006004      0.000590      0.004965      0.000000
     49 O3    c      -0.001687     -0.003078      0.000526      0.000000
     50 O3    c       0.002367      0.002678      0.001166      0.000000
     51 O1    c       0.000471     -0.001399     -0.000010      0.000000
     52 O1    c      -0.001103     -0.001346      0.000621      0.000000
     53 O3    c      -0.000627     -0.000752      0.000498      0.000000
     54 O3    c       0.004651      0.001467      0.000143      0.000000
     55 O1    c      -0.001693     -0.000218     -0.000289      0.000000
     56 O1    c       0.002074      0.000829      0.000027      0.000000
     57 O1    c       0.001072      0.000528      0.002453      0.000000
     58 O1    c       0.001667      0.000329      0.000119      0.000000
     59 O1    c       0.001539     -0.000035     -0.000421      0.000000
     60 O1    c      -0.000322     -0.000557     -0.001273      0.000000
     61 O1    c       0.002929      0.000281      0.000479      0.000000
     62 O1    c       0.001826      0.000321      0.000331      0.000000
     63 O3    c       0.001944     -0.000873     -0.000645      0.000000
     64 O3    c      -0.000845      0.000249     -0.000366      0.000000
     65 O1    c       0.000187      0.002456     -0.001007      0.000000
     66 O1    c       0.000179     -0.000036      0.000755      0.000000
     67 O1    c       0.000885      0.002141     -0.000553      0.000000
     68 O1    c      -0.000624     -0.002472      0.000064      0.000000
     69 O1    c       0.002319     -0.001176     -0.000091      0.000000
     70 O1    c      -0.004625      0.001450     -0.000486      0.000000
     71 O1    c      -0.005351     -0.000608      0.000071      0.000000
     72 O1    c       0.003191      0.000813     -0.000306      0.000000
     73 O1    s       0.000588      0.001872      0.000265      0.000000
     74 O1    s       0.000689      0.000327      0.000774      0.000000
     75 O1    s       0.000254     -0.000005     -0.000948      0.000000
     76 O1    s      -0.001511      0.000475     -0.001711      0.000000
     77 O1    s      -0.002339     -0.000845     -0.000534      0.000000
     78 O1    s      -0.000745      0.001571     -0.000110      0.000000
     79 O3    s      -0.001329     -0.000342      0.000702      0.000000
     80 O3    s       0.001361     -0.000846      0.000583      0.000000
     81 O1    s       0.001682     -0.000325     -0.003510      0.000000
     82 O1    s       0.002047      0.000431      0.001189      0.000000
     83 O1    s      -0.000728      0.001524      0.000270      0.000000
     84 O1    s       0.003615      0.000316     -0.000726      0.000000
     85 O1    s      -0.003217      0.000624     -0.001190      0.000000
     86 O1    s       0.000657      0.001569      0.001627      0.000000
     87 O1    s       0.000600      0.000901      0.000418      0.000000
     88 O1    s      -0.001555     -0.001456     -0.001165      0.000000
     89 O1    s       0.002132     -0.001412     -0.003182      0.000000
     90 O1    s      -0.002912      0.001597     -0.000744      0.000000
     91 O1    s      -0.000523     -0.001646      0.000247      0.000000
     92 O1    s       0.001165      0.000125     -0.001248      0.000000
     93 O1    s      -0.003090      0.000512      0.000945      0.000000
     94 O1    s       0.000718     -0.000144      0.001036      0.000000
     95 O1    s      -0.002517     -0.001919     -0.001370      0.000000
     96 O1    s       0.001417     -0.001215     -0.002068      0.000000
     97 O3    s       0.001987      0.000945     -0.000577      0.000000
     98 O3    s      -0.002626     -0.001121     -0.000479      0.000000
     99 O1    s      -0.001360      0.000118     -0.000396      0.000000
    100 O1    s       0.000527      0.000651     -0.000017      0.000000
    101 O3    s      -0.001334      0.000904     -0.001248      0.000000
    102 O3    s      -0.002010     -0.000956     -0.000222      0.000000
    103 O1    s       0.000646      0.000726      0.000244      0.000000
    104 O1    s      -0.003090     -0.000799     -0.000269      0.000000
    105 O1    s       0.000494     -0.000660     -0.000983      0.000000
    106 O1    s      -0.000851     -0.000141     -0.000941      0.000000
    107 O1    s      -0.001995      0.000352      0.000796      0.000000
    108 O1    s       0.000480      0.000931      0.001114      0.000000
    109 O1    s       0.000372      0.000069      0.000209      0.000000
    110 O1    s      -0.000188     -0.001152     -0.000888      0.000000
    111 O3    s      -0.001570      0.000968     -0.000096      0.000000
    112 O3    s       0.000737     -0.000545      0.000326      0.000000
    113 O1    s       0.000353     -0.000772      0.000804      0.000000
    114 O1    s      -0.001064     -0.000709     -0.000540      0.000000
    115 O1    s      -0.000756     -0.000873      0.000132      0.000000
    116 O1    s       0.000313      0.001314     -0.000455      0.000000
    117 O1    s      -0.000297      0.001350      0.000176      0.000000
    118 O1    s       0.000182     -0.000412      0.001145      0.000000
    119 O1    s       0.002288      0.000463     -0.000281      0.000000
    120 O1    s      -0.001710     -0.000421      0.000514      0.000000
--------------------------------------------------------------------------------
  Maximum abs         0.008246      0.003388      0.004965      0.000000
--------------------------------------------------------------------------------


  Born effective charge tensors : 

-------------------------------------------------------------------------------
  Atom             x           y             z
-------------------------------------------------------------------------------
    1 Ge    x       4.1485      0.2629      0.1143
            y      -0.0284      3.9521      0.0519
            z      -0.7887     -0.1164      4.1117
-------------------------------------------------------------------------------
    2 Ge    x       4.1101      0.3398      0.4635
            y      -0.0729      3.9766      0.0196
            z       0.2461      0.0478      4.4006
-------------------------------------------------------------------------------
    3 Ge    x       4.1809      0.2369     -0.4678
            y      -0.1280      3.9386     -0.0505
            z      -0.2485      0.0064      4.4645
-------------------------------------------------------------------------------
    4 Ge    x       4.1624      0.2394     -0.0816
            y      -0.0803      3.9307     -0.0298
            z       0.8109      0.1207      4.1728
-------------------------------------------------------------------------------
    5 Ge    x       4.2781      0.2330     -0.4051
            y      -0.1535      3.9523     -0.0487
            z      -0.3305     -0.0169      3.9514
-------------------------------------------------------------------------------
    6 Ge    x       4.3226      0.2188     -0.0442
            y      -0.1104      3.9385     -0.0127
            z       0.6530      0.1437      3.6381
-------------------------------------------------------------------------------
    7 Ge    x       4.2735      0.2035      0.0308
            y      -0.0845      3.9528      0.0117
            z      -0.6671     -0.1627      3.7040
-------------------------------------------------------------------------------
    8 Ge    x       4.2489      0.2423      0.4140
            y      -0.1322      3.9524      0.0207
            z       0.3257      0.0113      4.0193
-------------------------------------------------------------------------------
    9 Ge    x       3.8338      0.1970     -0.2153
            y       0.4742      4.1442     -0.1521
            z      -0.0221     -0.2321      3.5004
-------------------------------------------------------------------------------
   10 Ge    x       3.8609      0.1564      0.1782
            y       0.4881      4.1384      0.1813
            z       0.0562      0.2743      3.5684
-------------------------------------------------------------------------------
   11 Ge    x       4.0074     -0.2401     -0.2779
            y      -0.2601      4.1964      0.0775
            z      -0.0066      0.1900      3.6323
-------------------------------------------------------------------------------
   12 Ge    x       4.0428     -0.2470      0.2831
            y      -0.2815      4.1486     -0.0724
            z       0.0171     -0.1462      3.5910
-------------------------------------------------------------------------------
   13 Ge    x       3.9729      0.0702     -0.1987
            y       0.4574      4.1819     -0.1036
            z      -0.0811     -0.2326      3.6214
-------------------------------------------------------------------------------
   14 Ge    x       3.9298      0.0893      0.2166
            y       0.4430      4.2126      0.0991
            z       0.0551      0.1885      3.5852
-------------------------------------------------------------------------------
   15 Ge    x       4.0369      0.0736     -0.2823
            y       0.4400      4.1860     -0.0964
            z      -0.1268     -0.2024      3.5236
-------------------------------------------------------------------------------
   16 Ge    x       4.0136      0.0976      0.2929
            y       0.4342      4.2056      0.0790
            z       0.0928      0.1781      3.4544
-------------------------------------------------------------------------------
   17 Ge    x       4.0215     -0.2315     -0.3551
            y      -0.2465      4.1517      0.1113
            z      -0.0594      0.1885      3.4095
-------------------------------------------------------------------------------
   18 Ge    x       3.9763     -0.2238      0.3537
            y      -0.2048      4.2111     -0.1248
            z       0.0581     -0.2370      3.4737
-------------------------------------------------------------------------------
   19 Ge    x       3.9701      0.1148     -0.3190
            y       0.4416      4.2061     -0.0898
            z      -0.1076     -0.1500      3.4547
-------------------------------------------------------------------------------
   20 Ge    x       3.9990      0.0875      0.3065
            y       0.4526      4.1804      0.1116
            z       0.1447      0.1851      3.5162
-------------------------------------------------------------------------------
   21 Ge    x       4.0453     -0.2317     -0.3305
            y      -0.2223      4.1987      0.1003
            z      -0.0213      0.1926      3.5466
-------------------------------------------------------------------------------
   22 Ge    x       4.0999     -0.2488      0.3137
            y      -0.2679      4.1530     -0.0637
            z       0.0280     -0.1451      3.4679
-------------------------------------------------------------------------------
   23 Si    x       3.6900     -0.2633     -0.2471
            y      -0.2407      3.8879      0.0596
            z      -0.0142      0.1461      3.2711
-------------------------------------------------------------------------------
   24 Si    x       3.6427     -0.2738      0.2661
            y      -0.2071      3.9415     -0.0625
            z       0.0094     -0.2037      3.3244
-------------------------------------------------------------------------------
   25 O1    x      -1.9212     -0.9047      0.3139
            y      -0.8730     -2.6522      0.2990
            z       0.3928      0.3464     -1.5794
-------------------------------------------------------------------------------
   26 O1    x      -1.9206     -0.8803     -0.5163
            y      -0.8269     -2.6863     -0.5505
            z      -0.4691     -0.5544     -1.6502
-------------------------------------------------------------------------------
   27 O1    x      -2.1870      0.9084      0.5237
            y       0.9481     -2.3263     -0.5211
            z       0.4782     -0.5433     -1.6790
-------------------------------------------------------------------------------
   28 O1    x      -2.1712      0.8899     -0.2991
            y       0.9534     -2.2846      0.3487
            z      -0.3771      0.3561     -1.6232
-------------------------------------------------------------------------------
   29 O1    x      -1.9818     -0.8608      0.5312
            y      -0.8088     -2.5221      0.5348
            z       0.4861      0.5392     -1.6581
-------------------------------------------------------------------------------
   30 O1    x      -1.9573     -0.8735     -0.3474
            y      -0.8318     -2.5187     -0.2931
            z      -0.4284     -0.3384     -1.5930
-------------------------------------------------------------------------------
   31 O3    x      -1.9616      0.8487      0.3122
            y       0.9061     -2.2529     -0.3952
            z       0.3944     -0.4244     -1.5089
-------------------------------------------------------------------------------
   32 O3    x      -1.9313      0.8328     -0.5151
            y       0.8633     -2.2981      0.5855
            z      -0.4597      0.5946     -1.5976
-------------------------------------------------------------------------------
   33 O1    x      -2.1510     -0.2119      0.9363
            y      -0.0772     -1.2792      0.1053
            z       1.1869      0.2131     -3.0428
-------------------------------------------------------------------------------
   34 O1    x      -2.1264     -0.2423     -0.9043
            y      -0.0984     -1.2849     -0.1363
            z      -1.1502     -0.2699     -3.0347
-------------------------------------------------------------------------------
   35 O1    x      -2.2051     -0.2231     -0.8450
            y      -0.0937     -1.3418     -0.1157
            z      -0.8315     -0.1753     -2.5310
-------------------------------------------------------------------------------
   36 O1    x      -2.1693     -0.2239      0.7841
            y      -0.0845     -1.2977      0.1263
            z       0.8059      0.1784     -2.6875
-------------------------------------------------------------------------------
   37 O1    x      -2.0737     -0.2386     -0.7714
            y      -0.1295     -1.3079     -0.1720
            z      -0.7930     -0.2153     -2.7815
-------------------------------------------------------------------------------
   38 O1    x      -2.1173     -0.2426      0.8094
            y      -0.1174     -1.3536      0.1834
            z       0.7937      0.2525     -2.6145
-------------------------------------------------------------------------------
   39 O1    x      -2.0195     -0.8357      0.5536
            y      -0.7590     -2.5350      0.5567
            z       0.4822      0.5355     -1.5668
-------------------------------------------------------------------------------
   40 O1    x      -2.0336     -0.8707     -0.3513
            y      -0.8090     -2.5228     -0.2622
            z      -0.3938     -0.3010     -1.4640
-------------------------------------------------------------------------------
   41 O1    x      -2.2217      0.9227      0.3153
            y       0.9668     -2.3095     -0.3466
            z       0.3792     -0.3734     -1.5145
-------------------------------------------------------------------------------
   42 O1    x      -2.2106      0.9170     -0.5750
            y       0.9330     -2.3474      0.5705
            z      -0.5001      0.5629     -1.6203
-------------------------------------------------------------------------------
   43 O1    x      -2.0202     -0.8622      0.3522
            y      -0.8258     -2.5218      0.2616
            z       0.4014      0.3014     -1.4882
-------------------------------------------------------------------------------
   44 O1    x      -2.0139     -0.8263     -0.5521
            y      -0.7724     -2.5339     -0.5363
            z      -0.4952     -0.5258     -1.5773
-------------------------------------------------------------------------------
   45 O1    x      -2.2103      0.8953      0.5418
            y       0.9058     -2.3110     -0.5433
            z       0.4611     -0.5336     -1.6091
-------------------------------------------------------------------------------
   46 O1    x      -2.2301      0.9085     -0.2886
            y       0.9542     -2.2973      0.3302
            z      -0.3461      0.3432     -1.4944
-------------------------------------------------------------------------------
   47 O1    x      -2.1376     -0.2381     -0.7022
            y      -0.1410     -1.3803     -0.1857
            z      -0.4913     -0.1600     -2.3030
-------------------------------------------------------------------------------
   48 O1    x      -2.1609     -0.2409      0.6834
            y      -0.1313     -1.3697      0.1771
            z       0.4775      0.1564     -2.2897
-------------------------------------------------------------------------------
   49 O3    x      -1.2751     -0.1507      0.1004
            y      -0.2664     -2.9593      0.0853
            z       0.0603      0.0915     -1.2961
-------------------------------------------------------------------------------
   50 O3    x      -1.2821     -0.1536     -0.1024
            y      -0.2657     -2.9830     -0.1145
            z      -0.0641     -0.1117     -1.3032
-------------------------------------------------------------------------------
   51 O1    x      -1.3637     -0.2054      0.0634
            y      -0.3032     -3.1520     -0.0237
            z       0.0193     -0.0221     -1.4059
-------------------------------------------------------------------------------
   52 O1    x      -1.3561     -0.1970     -0.0718
            y      -0.3007     -3.1527      0.0023
            z      -0.0258      0.0112     -1.3918
-------------------------------------------------------------------------------
   53 O3    x      -2.9302      0.1843      0.0136
            y       0.1187     -1.4324     -0.0034
            z       0.0210      0.0342     -1.1449
-------------------------------------------------------------------------------
   54 O3    x      -2.9269      0.1731      0.0146
            y       0.0978     -1.4307     -0.0173
            z      -0.0179     -0.0452     -1.1409
-------------------------------------------------------------------------------
   55 O1    x      -3.0548      0.2792     -0.0036
            y       0.1944     -1.5842     -0.0095
            z      -0.0226     -0.0430     -1.2255
-------------------------------------------------------------------------------
   56 O1    x      -3.0508      0.2826     -0.0082
            y       0.1941     -1.5797      0.0176
            z       0.0219      0.0476     -1.2238
-------------------------------------------------------------------------------
   57 O1    x      -1.4899     -0.0437     -0.1214
            y      -0.1102     -1.4297     -0.0256
            z      -0.0744     -0.0017     -2.6948
-------------------------------------------------------------------------------
   58 O1    x      -1.4740     -0.0422      0.1007
            y      -0.1086     -1.4330      0.0447
            z       0.0675      0.0085     -2.7110
-------------------------------------------------------------------------------
   59 O1    x      -1.5013      0.1048     -0.0296
            y       0.1142     -1.4233      0.0233
            z      -0.0308      0.0252     -2.7300
-------------------------------------------------------------------------------
   60 O1    x      -1.5056      0.1059      0.0051
            y       0.1185     -1.4216      0.0177
            z       0.0097      0.0128     -2.7307
-------------------------------------------------------------------------------
   61 O1    x      -1.4599     -0.0102     -0.0352
            y      -0.0776     -1.4337      0.0196
            z      -0.0448      0.0279     -2.7455
-------------------------------------------------------------------------------
   62 O1    x      -1.4643     -0.0147      0.0419
            y      -0.0826     -1.4270      0.0054
            z       0.0327      0.0057     -2.7508
-------------------------------------------------------------------------------
   63 O3    x      -1.3857      0.1005     -0.1153
            y       0.1021     -1.3563      0.0436
            z      -0.0801      0.0453     -2.5730
-------------------------------------------------------------------------------
   64 O3    x      -1.3955      0.0989      0.1240
            y       0.1010     -1.3489     -0.0547
            z       0.0818     -0.0430     -2.5608
-------------------------------------------------------------------------------
   65 O1    x      -1.4044     -0.2222      0.0844
            y      -0.3192     -3.1591     -0.0251
            z       0.0340     -0.0165     -1.3540
-------------------------------------------------------------------------------
   66 O1    x      -1.3953     -0.2120     -0.0870
            y      -0.3115     -3.1228      0.0017
            z      -0.0318      0.0086     -1.3572
-------------------------------------------------------------------------------
   67 O1    x      -1.3687     -0.2118      0.0975
            y      -0.3138     -3.1337      0.0052
            z       0.0416      0.0241     -1.3698
-------------------------------------------------------------------------------
   68 O1    x      -1.3789     -0.2205     -0.1006
            y      -0.3208     -3.1604     -0.0222
            z      -0.0527     -0.0471     -1.3711
-------------------------------------------------------------------------------
   69 O1    x      -3.0875      0.2884      0.0013
            y       0.1994     -1.5754      0.0166
            z       0.0292      0.0433     -1.1977
-------------------------------------------------------------------------------
   70 O1    x      -3.0919      0.3009     -0.0075
            y       0.2151     -1.5829     -0.0055
            z      -0.0150     -0.0399     -1.1984
-------------------------------------------------------------------------------
   71 O1    x      -3.0460      0.2531     -0.0211
            y       0.1736     -1.5543     -0.0340
            z      -0.0474     -0.0553     -1.2106
-------------------------------------------------------------------------------
   72 O1    x      -3.0465      0.2615      0.0590
            y       0.1898     -1.5673      0.0148
            z       0.0613      0.0464     -1.2074
-------------------------------------------------------------------------------




  Elastic Constant Matrix: (Units=GPa)

-------------------------------------------------------------------------------
  Indices      1         2         3         4         5         6    
-------------------------------------------------------------------------------
       1     26.6893   11.7422    7.9589   -0.0210   -0.0847    7.8490
       2     11.7422   36.3167    6.8474    0.1606   -0.0306    9.0447
       3      7.9589    6.8474   12.5729    0.3102   -0.0932    2.7464
       4     -0.0210    0.1606    0.3102    8.5366    2.2595    0.2899
       5     -0.0847   -0.0306   -0.0932    2.2595   15.7213    0.5429
       6      7.8490    9.0447    2.7464    0.2899    0.5429   20.6051
-------------------------------------------------------------------------------


  Elastic Compliance Matrix: (Units=1/GPa)

-------------------------------------------------------------------------------
  Indices      1         2         3         4         5         6    
-------------------------------------------------------------------------------
       1    0.052909 -0.009070 -0.025801  0.001585  0.000327 -0.012765
       2   -0.009070  0.035184 -0.011121 -0.000007  0.000318 -0.010515
       3   -0.025801 -0.011121  0.101771 -0.003845  0.000955  0.001174
       4    0.001585 -0.000007 -0.003845  0.121964 -0.017497 -0.001343
       5    0.000327  0.000318  0.000955 -0.017497  0.066196 -0.001890
       6   -0.012765 -0.010515  0.001174 -0.001343 -0.001890  0.057922
-------------------------------------------------------------------------------

  Mechanical properties :

-------------------------------------------------------------------------------
  Convention :                    Reuss         Voigt         Hill
-------------------------------------------------------------------------------
  Bulk  Modulus (GPa)     =      10.21657      14.29732      12.25695
  Shear Modulus (GPa)     =       8.91971      12.24130      10.58050
-------------------------------------------------------------------------------
  Velocity S-wave (km/s)  =       1.77506       2.07947       1.93326
  Velocity P-wave (km/s)  =       2.79465       3.28877       3.05173
-------------------------------------------------------------------------------
  Compressibility (1/GPa) =    0.09788019
-------------------------------------------------------------------------------
  Stress axis :                     x             y             z
-------------------------------------------------------------------------------
  Youngs Moduli (GPa)     =      18.90040      28.42206       9.82596
-------------------------------------------------------------------------------
  Poissons Ratio (x)      =                     0.25778       0.25352
  Poissons Ratio (y)      =       0.17142                     0.10927
  Poissons Ratio (z)      =       0.48766       0.31608
-------------------------------------------------------------------------------


  Piezoelectric Strain Matrix: (Units=C/m**2)

-------------------------------------------------------------------------------
  Indices      1         2         3         4         5         6    
-------------------------------------------------------------------------------
       x     0.13735   0.16753   0.29922  -0.00930  -0.05793  -0.08239
       y    -0.34311  -0.49536  -0.23840   0.02246   0.20504  -0.15172
       z    -0.27502  -0.02819   0.13486  -0.05284  -0.30439   0.02082
-------------------------------------------------------------------------------


  Piezoelectric Stress Matrix: (Units=10**-11 C/N)

-------------------------------------------------------------------------------
  Indices      1         2         3         4         5         6    
-------------------------------------------------------------------------------
       x    -0.09548   0.21692   2.49289  -0.09446  -0.31322  -0.78140
       y    -0.54705  -1.00053  -0.99694  -0.02684   1.29692   0.01034
       z    -1.82239  -0.03124   2.10707  -0.21015  -1.92344   0.58174
-------------------------------------------------------------------------------


  Static dielectric constant tensor : 

-------------------------------------------------------------------------------
              x         y         z
-------------------------------------------------------------------------------
       x     5.32720   0.03999  -0.01859
       y     0.03999   6.34778   0.02548
       z    -0.01859   0.02548   4.32285
--------------------------------------------------------------------------------

  High frequency dielectric constant tensor : 

-------------------------------------------------------------------------------
              x         y         z
-------------------------------------------------------------------------------
       x     1.53625   0.00203   0.00010
       y     0.00203   1.54299  -0.00001
       z     0.00010  -0.00001   1.49777
-------------------------------------------------------------------------------

  Static refractive indices : 

-------------------------------------------------------------------------------
    1 =    2.07898      2 =    2.30782      3 =    2.51985
-------------------------------------------------------------------------------

  High frequency refractive indices : 

-------------------------------------------------------------------------------
    1 =    1.22383      2 =    1.23923      3 =    1.24240
-------------------------------------------------------------------------------


  Time to end of optimisation =       6.1895 seconds


  Peak dynamic memory used =       5.01 MB 


  Timing analysis for GULP :

--------------------------------------------------------------------------------
  Task / Subroutine                                          Time (Seconds)
--------------------------------------------------------------------------------
  Calculation of reciprocal space energy and derivatives          0.4190
  Calculation of real space energy and derivatives                4.3185
  Calculation of three-body energy and derivatives                0.0341
  Calculation and manipulation of Hessian matrix                  1.7464
  Calculation of matrix inversion                                 0.0179
--------------------------------------------------------------------------------
  Total CPU time                                                  6.1895
--------------------------------------------------------------------------------


  Dump file written as c00016.vasp.grs
  CIF file written as c00016.vasp.cif


  Job Finished at 18:36.39 30th October    2025                               

