********************************************************************************
*                       GENERAL UTILITY LATTICE PROGRAM                        *
*                                 Julian Gale                                  *
*                       Curtin Institute for Computation                       *
*                    School of Molecular and Life Sciences                     *
*                    Curtin University, Western Australia                      *
********************************************************************************
* Version = 6.1.2 * Last modified =   3rd November 2022                        *
********************************************************************************
*  optimise     - perform optimisation run                                     *
*  conp         - constant pressure calculation                                *
*  property     - calculate properties for final geometry                      *
********************************************************************************

  Job Started  at 18:41.05 30th October    2025                               

  Number of CPUs =     1


  Total number of configurations input =      1

********************************************************************************
*  Input for Configuration =   1 : c00047.vasp                                 *
********************************************************************************

  Formula = Ge22Si2O48                                                  

  Number of irreducible atoms/shells =     120


  Total number atoms/shells =     120

  Dimensionality = 3               :  Bulk   



  Cartesian lattice vectors (Angstroms) :

       17.182800    0.000000    0.000000
        0.000000    7.513760    0.000000
        0.000000    0.000000   10.447700

  Cell parameters (Angstroms/Degrees):

  a =      17.1828    alpha =  90.0000
  b =       7.5138    beta  =  90.0000
  c =      10.4477    gamma =  90.0000

  Initial cell volume =        1348.875752 Angs**3

  Temperature of configuration =   0.00     K 

  Pressure of configuration =         0.000 GPa 

  Fractional coordinates of asymmetric unit :

--------------------------------------------------------------------------------
   No.  Atomic       x           y          z         Charge      Occupancy
        Label      (Frac)      (Frac)     (Frac)        (e)         (Frac)  
--------------------------------------------------------------------------------
      1 Ge    c    0.052090    0.000000    0.372270     4.00000    1.000000    
      2 Ge    c    0.947910 *  0.000000 *  0.627730 *   4.00000    1.000000    
      3 Ge    c    0.556730 *  0.000000 *  0.122130 *   4.00000    1.000000    
      4 Ge    c    0.943270 *  0.000000 *  0.122130 *   4.00000    1.000000    
      5 Ge    c    0.443270 *  0.000000 *  0.877870 *   4.00000    1.000000    
      6 Ge    c    0.056730 *  0.000000 *  0.877870 *   4.00000    1.000000    
      7 Ge    c    0.160190 *  0.293910 *  0.273440 *   4.00000    1.000000    
      8 Ge    c    0.339810 *  0.706090 *  0.273440 *   4.00000    1.000000    
      9 Ge    c    0.839810 *  0.293910 *  0.726560 *   4.00000    1.000000    
     10 Ge    c    0.660190 *  0.706090 *  0.726560 *   4.00000    1.000000    
     11 Ge    c    0.839810 *  0.706090 *  0.726560 *   4.00000    1.000000    
     12 Ge    c    0.660190 *  0.293910 *  0.726560 *   4.00000    1.000000    
     13 Ge    c    0.160190 *  0.706090 *  0.273440 *   4.00000    1.000000    
     14 Ge    c    0.339810 *  0.293910 *  0.273440 *   4.00000    1.000000    
     15 Ge    c    0.660660 *  0.294090 *  0.017440 *   4.00000    1.000000    
     16 Ge    c    0.839340 *  0.705910 *  0.017440 *   4.00000    1.000000    
     17 Ge    c    0.339340 *  0.294090 *  0.982560 *   4.00000    1.000000    
     18 Ge    c    0.160660 *  0.705910 *  0.982560 *   4.00000    1.000000    
     19 Ge    c    0.339340 *  0.705910 *  0.982560 *   4.00000    1.000000    
     20 Ge    c    0.160660 *  0.294090 *  0.982560 *   4.00000    1.000000    
     21 Ge    c    0.660660 *  0.705910 *  0.017440 *   4.00000    1.000000    
     22 Ge    c    0.839340 *  0.294090 *  0.017440 *   4.00000    1.000000    
     23 Si    c    0.447910 *  0.000000 *  0.372270 *   4.00000    1.000000    
     24 Si    c    0.552090 *  0.000000 *  0.627730 *   4.00000    1.000000    
     25 O1    c    0.106570 *  0.174340 *  0.366200 *   1.73396    1.000000    
     26 O3    c    0.393430 *  0.825660 *  0.366200 *   1.33043    1.000000    
     27 O1    c    0.893430 *  0.174340 *  0.633800 *   1.73396    1.000000    
     28 O3    c    0.606570 *  0.825660 *  0.633800 *   1.33043    1.000000    
     29 O1    c    0.893430 *  0.825660 *  0.633800 *   1.73396    1.000000    
     30 O3    c    0.606570 *  0.174340 *  0.633800 *   1.33043    1.000000    
     31 O1    c    0.106570 *  0.825660 *  0.366200 *   1.73396    1.000000    
     32 O3    c    0.393430 *  0.174340 *  0.366200 *   1.33043    1.000000    
     33 O1    c    0.000000 *  0.000000 *  0.500000 *   1.73396    1.000000    
     34 O2    c    0.500000 *  0.000000 *  0.500000 *   0.87073    1.000000    
     35 O1    c    0.994520 *  0.000000 *  0.250840 *   1.73396    1.000000    
     36 O3    c    0.505480 *  0.000000 *  0.250840 *   1.33043    1.000000    
     37 O1    c    0.005480 *  0.000000 *  0.749160 *   1.73396    1.000000    
     38 O3    c    0.494520 *  0.000000 *  0.749160 *   1.33043    1.000000    
     39 O1    c    0.610230 *  0.175520 *  0.115390 *   1.73396    1.000000    
     40 O1    c    0.889770 *  0.824480 *  0.115390 *   1.73396    1.000000    
     41 O1    c    0.389770 *  0.175520 *  0.884610 *   1.73396    1.000000    
     42 O1    c    0.110230 *  0.824480 *  0.884610 *   1.73396    1.000000    
     43 O1    c    0.389770 *  0.824480 *  0.884610 *   1.73396    1.000000    
     44 O1    c    0.110230 *  0.175520 *  0.884610 *   1.73396    1.000000    
     45 O1    c    0.610230 *  0.824480 *  0.115390 *   1.73396    1.000000    
     46 O1    c    0.889770 *  0.175520 *  0.115390 *   1.73396    1.000000    
     47 O1    c    0.500000 *  0.000000 *  0.000000 *   1.73396    1.000000    
     48 O1    c    0.000000 *  0.000000 *  0.000000 *   1.73396    1.000000    
     49 O1    c    0.151750 *  0.500000 *  0.313330 *   1.73396    1.000000    
     50 O1    c    0.348250 *  0.500000 *  0.313330 *   1.73396    1.000000    
     51 O1    c    0.848250 *  0.500000 *  0.686670 *   1.73396    1.000000    
     52 O1    c    0.651750 *  0.500000 *  0.686670 *   1.73396    1.000000    
     53 O1    c    0.250000 *  0.234950 *  0.285720 *   1.73396    1.000000    
     54 O1    c    0.250000 *  0.765050 *  0.285720 *   1.73396    1.000000    
     55 O1    c    0.750000 *  0.234950 *  0.714280 *   1.73396    1.000000    
     56 O1    c    0.750000 *  0.765050 *  0.714280 *   1.73396    1.000000    
     57 O1    c    0.131410 *  0.268650 *  0.127790 *   1.73396    1.000000    
     58 O1    c    0.368590 *  0.731350 *  0.127790 *   1.73396    1.000000    
     59 O1    c    0.868590 *  0.268650 *  0.872210 *   1.73396    1.000000    
     60 O1    c    0.631410 *  0.731350 *  0.872210 *   1.73396    1.000000    
     61 O1    c    0.868590 *  0.731350 *  0.872210 *   1.73396    1.000000    
     62 O1    c    0.631410 *  0.268650 *  0.872210 *   1.73396    1.000000    
     63 O1    c    0.131410 *  0.731350 *  0.127790 *   1.73396    1.000000    
     64 O1    c    0.368590 *  0.268650 *  0.127790 *   1.73396    1.000000    
     65 O1    c    0.653920 *  0.500000 *  0.058200 *   1.73396    1.000000    
     66 O1    c    0.846080 *  0.500000 *  0.058200 *   1.73396    1.000000    
     67 O1    c    0.346080 *  0.500000 *  0.941800 *   1.73396    1.000000    
     68 O1    c    0.153920 *  0.500000 *  0.941800 *   1.73396    1.000000    
     69 O1    c    0.750000 *  0.231060 *  0.027050 *   1.73396    1.000000    
     70 O1    c    0.750000 *  0.768940 *  0.027050 *   1.73396    1.000000    
     71 O1    c    0.250000 *  0.231060 *  0.972950 *   1.73396    1.000000    
     72 O1    c    0.250000 *  0.768940 *  0.972950 *   1.73396    1.000000    
     73 O1    s    0.106570 *  0.174340 *  0.366200 *  -3.73396    1.000000    
     74 O3    s    0.393430 *  0.825660 *  0.366200 *  -3.33043    1.000000    
     75 O1    s    0.893430 *  0.174340 *  0.633800 *  -3.73396    1.000000    
     76 O3    s    0.606570 *  0.825660 *  0.633800 *  -3.33043    1.000000    
     77 O1    s    0.893430 *  0.825660 *  0.633800 *  -3.73396    1.000000    
     78 O3    s    0.606570 *  0.174340 *  0.633800 *  -3.33043    1.000000    
     79 O1    s    0.106570 *  0.825660 *  0.366200 *  -3.73396    1.000000    
     80 O3    s    0.393430 *  0.174340 *  0.366200 *  -3.33043    1.000000    
     81 O1    s    0.000000 *  0.000000 *  0.500000 *  -3.73396    1.000000    
     82 O2    s    0.500000 *  0.000000 *  0.500000 *  -2.87073    1.000000    
     83 O1    s    0.994520 *  0.000000 *  0.250840 *  -3.73396    1.000000    
     84 O3    s    0.505480 *  0.000000 *  0.250840 *  -3.33043    1.000000    
     85 O1    s    0.005480 *  0.000000 *  0.749160 *  -3.73396    1.000000    
     86 O3    s    0.494520 *  0.000000 *  0.749160 *  -3.33043    1.000000    
     87 O1    s    0.610230 *  0.175520 *  0.115390 *  -3.73396    1.000000    
     88 O1    s    0.889770 *  0.824480 *  0.115390 *  -3.73396    1.000000    
     89 O1    s    0.389770 *  0.175520 *  0.884610 *  -3.73396    1.000000    
     90 O1    s    0.110230 *  0.824480 *  0.884610 *  -3.73396    1.000000    
     91 O1    s    0.389770 *  0.824480 *  0.884610 *  -3.73396    1.000000    
     92 O1    s    0.110230 *  0.175520 *  0.884610 *  -3.73396    1.000000    
     93 O1    s    0.610230 *  0.824480 *  0.115390 *  -3.73396    1.000000    
     94 O1    s    0.889770 *  0.175520 *  0.115390 *  -3.73396    1.000000    
     95 O1    s    0.500000 *  0.000000 *  0.000000 *  -3.73396    1.000000    
     96 O1    s    0.000000 *  0.000000 *  0.000000 *  -3.73396    1.000000    
     97 O1    s    0.151750 *  0.500000 *  0.313330 *  -3.73396    1.000000    
     98 O1    s    0.348250 *  0.500000 *  0.313330 *  -3.73396    1.000000    
     99 O1    s    0.848250 *  0.500000 *  0.686670 *  -3.73396    1.000000    
    100 O1    s    0.651750 *  0.500000 *  0.686670 *  -3.73396    1.000000    
    101 O1    s    0.250000 *  0.234950 *  0.285720 *  -3.73396    1.000000    
    102 O1    s    0.250000 *  0.765050 *  0.285720 *  -3.73396    1.000000    
    103 O1    s    0.750000 *  0.234950 *  0.714280 *  -3.73396    1.000000    
    104 O1    s    0.750000 *  0.765050 *  0.714280 *  -3.73396    1.000000    
    105 O1    s    0.131410 *  0.268650 *  0.127790 *  -3.73396    1.000000    
    106 O1    s    0.368590 *  0.731350 *  0.127790 *  -3.73396    1.000000    
    107 O1    s    0.868590 *  0.268650 *  0.872210 *  -3.73396    1.000000    
    108 O1    s    0.631410 *  0.731350 *  0.872210 *  -3.73396    1.000000    
    109 O1    s    0.868590 *  0.731350 *  0.872210 *  -3.73396    1.000000    
    110 O1    s    0.631410 *  0.268650 *  0.872210 *  -3.73396    1.000000    
    111 O1    s    0.131410 *  0.731350 *  0.127790 *  -3.73396    1.000000    
    112 O1    s    0.368590 *  0.268650 *  0.127790 *  -3.73396    1.000000    
    113 O1    s    0.653920 *  0.500000 *  0.058200 *  -3.73396    1.000000    
    114 O1    s    0.846080 *  0.500000 *  0.058200 *  -3.73396    1.000000    
    115 O1    s    0.346080 *  0.500000 *  0.941800 *  -3.73396    1.000000    
    116 O1    s    0.153920 *  0.500000 *  0.941800 *  -3.73396    1.000000    
    117 O1    s    0.750000 *  0.231060 *  0.027050 *  -3.73396    1.000000    
    118 O1    s    0.750000 *  0.768940 *  0.027050 *  -3.73396    1.000000    
    119 O1    s    0.250000 *  0.231060 *  0.972950 *  -3.73396    1.000000    
    120 O1    s    0.250000 *  0.768940 *  0.972950 *  -3.73396    1.000000    
--------------------------------------------------------------------------------



********************************************************************************
*  General input information                                                   *
********************************************************************************

  Species output for all configurations : 

--------------------------------------------------------------------------------
  Species    Type    Atomic    Atomic    Charge       Radii (Angs)     Library
                     Number     Mass       (e)     Cova   Ionic  VDW   Symbol
--------------------------------------------------------------------------------
    Ge       Core       32      72.61   4.000000   1.170  0.000  1.750 Ge       
    Si       Core       14      28.09   4.000000   1.200  0.000  2.100 Si       
    O1       Core        8      16.00   1.733957   0.730  0.000  1.360 O1       
    O2       Core        8      16.00   0.870733   0.730  0.000  1.360 O2       
    O3       Core        8      16.00   1.330431   0.730  0.000  1.360 O3       
    O1       Shell       8       0.00  -3.733957   0.730  0.000  0.000 O1       
    O2       Shell       8       0.00  -2.870733   0.730  0.000  0.000 O2       
    O3       Shell       8       0.00  -3.330431   0.730  0.000  0.000 O3       
--------------------------------------------------------------------------------


  Lattice summation method               =    Ewald          (3-D)
                                         =    Parry          (2-D)
                                         =    Saunders et al (1-D)
  Accuracy factor for lattice sums       =   12.000


  Analytic derivatives to be used

  Time limit = Infinity

  Maximum range for interatomic potentials =    100000.000000 Angstroms

  General interatomic potentials :

--------------------------------------------------------------------------------
Atom  Types   Potential      Parameter       Value         Units   Cutoffs(Ang)
  1     2                                                            Min /  Max 
--------------------------------------------------------------------------------
Si   c O1   s Buckingham    Buckingham A     1315.2478    eV        0.000 16.000
                            Buckingham rho  0.31775900    Ang       
                            Buckingham C     10.141118    eV*Ang^6  
--------------------------------------------------------------------------------
Si   c O2   s Buckingham    Buckingham A     1315.2478    eV        0.000 16.000
                            Buckingham rho  0.31775900    Ang       
                            Buckingham C     10.141118    eV*Ang^6  
--------------------------------------------------------------------------------
Si   c O3   s Buckingham    Buckingham A     1315.2478    eV        0.000 16.000
                            Buckingham rho  0.31775900    Ang       
                            Buckingham C     10.141118    eV*Ang^6  
--------------------------------------------------------------------------------
Ge   c O1   s Buckingham    Buckingham A     1497.3996    eV        0.000 16.000
                            Buckingham rho  0.32564600    Ang       
                            Buckingham C     16.808599    eV*Ang^6  
--------------------------------------------------------------------------------
Ge   c O2   s Buckingham    Buckingham A     1497.3996    eV        0.000 16.000
                            Buckingham rho  0.32564600    Ang       
                            Buckingham C     16.808599    eV*Ang^6  
--------------------------------------------------------------------------------
Ge   c O3   s Buckingham    Buckingham A     1497.3996    eV        0.000 16.000
                            Buckingham rho  0.32564600    Ang       
                            Buckingham C     16.808599    eV*Ang^6  
--------------------------------------------------------------------------------
O1   s O1   s Buckingham    Buckingham A     22764.000    eV        0.000 16.000
                            Buckingham rho  0.14900000    Ang       
                            Buckingham C     10.937044    eV*Ang^6  
--------------------------------------------------------------------------------
O1   s O2   s Buckingham    Buckingham A     22764.000    eV        0.000 16.000
                            Buckingham rho  0.14900000    Ang       
                            Buckingham C     10.937044    eV*Ang^6  
--------------------------------------------------------------------------------
O1   s O3   s Buckingham    Buckingham A     22764.000    eV        0.000 16.000
                            Buckingham rho  0.14900000    Ang       
                            Buckingham C     10.937044    eV*Ang^6  
--------------------------------------------------------------------------------
O2   s O2   s Buckingham    Buckingham A     22764.000    eV        0.000 16.000
                            Buckingham rho  0.14900000    Ang       
                            Buckingham C     10.937044    eV*Ang^6  
--------------------------------------------------------------------------------
O2   s O3   s Buckingham    Buckingham A     22764.000    eV        0.000 16.000
                            Buckingham rho  0.14900000    Ang       
                            Buckingham C     10.937044    eV*Ang^6  
--------------------------------------------------------------------------------
O3   s O3   s Buckingham    Buckingham A     22764.000    eV        0.000 16.000
                            Buckingham rho  0.14900000    Ang       
                            Buckingham C     10.937044    eV*Ang^6  
--------------------------------------------------------------------------------
O1   c O1   s Spring (c-s)  Spring k 2       180.31577    eV*Ang^-2 0.000  0.800
                            Spring k 4       0.0000000    eV*Ang^-4 
--------------------------------------------------------------------------------
O2   c O2   s Spring (c-s)  Spring k 2       75.969800    eV*Ang^-2 0.000  0.800
                            Spring k 4       0.0000000    eV*Ang^-4 
--------------------------------------------------------------------------------
O3   c O3   s Spring (c-s)  Spring k 2       128.14270    eV*Ang^-2 0.000  0.800
                            Spring k 4       0.0000000    eV*Ang^-4 
--------------------------------------------------------------------------------

  General Three-body potentials :

--------------------------------------------------------------------------------
  Atoms       Potential      Parameter       Value         Units   Cutoffs(Ang)
  1 / 2 / 3                                                          Min /  Max 
--------------------------------------------------------------------------------
Si    core    Harmonic      Three-body cnst  1.2614000    eV*rad^-2 0.000  1.900
O1    shel                  Three-body angl  109.47000    degrees   0.000  1.900
O1    shel                  Three-body k4    0.0000000    eV*rad^-4 0.000  3.500
                            Three-body k3    0.0000000    eV*rad^-3 
--------------------------------------------------------------------------------
Si    core    Harmonic      Three-body cnst  1.2614000    eV*rad^-2 0.000  1.900
O1    shel                  Three-body angl  109.47000    degrees   0.000  1.900
õ(1   shel                  Three-body k4    0.0000000    eV*rad^-4 0.000  3.500
                            Three-body k3    0.0000000    eV*rad^-3 
--------------------------------------------------------------------------------
Si    core    Harmonic      Three-body cnst  1.2614000    eV*rad^-2 0.000  1.900
õ(1   shel                  Three-body angl  109.47000    degrees   0.000  1.900
õ(1   shel                  Three-body k4    0.0000000    eV*rad^-4 0.000  3.500
                            Three-body k3    0.0000000    eV*rad^-3 
--------------------------------------------------------------------------------
Si    core    Harmonic      Three-body cnst  1.2614000    eV*rad^-2 0.000  1.900
O1    shel                  Three-body angl  109.47000    degrees   0.000  1.900
O2    shel                  Three-body k4    0.0000000    eV*rad^-4 0.000  3.500
                            Three-body k3    0.0000000    eV*rad^-3 
--------------------------------------------------------------------------------
Si    core    Harmonic      Three-body cnst  1.2614000    eV*rad^-2 0.000  1.900
O1    shel                  Three-body angl  109.47000    degrees   0.000  1.900
õ(2   shel                  Three-body k4    0.0000000    eV*rad^-4 0.000  3.500
                            Three-body k3    0.0000000    eV*rad^-3 
--------------------------------------------------------------------------------
Si    core    Harmonic      Three-body cnst  1.2614000    eV*rad^-2 0.000  1.900
O2    shel                  Three-body angl  109.47000    degrees   0.000  1.900
õ(1   shel                  Three-body k4    0.0000000    eV*rad^-4 0.000  3.500
                            Three-body k3    0.0000000    eV*rad^-3 
--------------------------------------------------------------------------------
Si    core    Harmonic      Three-body cnst  1.2614000    eV*rad^-2 0.000  1.900
õ(1   shel                  Three-body angl  109.47000    degrees   0.000  1.900
õ(2   shel                  Three-body k4    0.0000000    eV*rad^-4 0.000  3.500
                            Three-body k3    0.0000000    eV*rad^-3 
--------------------------------------------------------------------------------
Si    core    Harmonic      Three-body cnst  1.2614000    eV*rad^-2 0.000  1.900
O2    shel                  Three-body angl  109.47000    degrees   0.000  1.900
O2    shel                  Three-body k4    0.0000000    eV*rad^-4 0.000  3.500
                            Three-body k3    0.0000000    eV*rad^-3 
--------------------------------------------------------------------------------
Si    core    Harmonic      Three-body cnst  1.2614000    eV*rad^-2 0.000  1.900
O2    shel                  Three-body angl  109.47000    degrees   0.000  1.900
õ(2   shel                  Three-body k4    0.0000000    eV*rad^-4 0.000  3.500
                            Three-body k3    0.0000000    eV*rad^-3 
--------------------------------------------------------------------------------
Si    core    Harmonic      Three-body cnst  1.2614000    eV*rad^-2 0.000  1.900
õ(2   shel                  Three-body angl  109.47000    degrees   0.000  1.900
õ(2   shel                  Three-body k4    0.0000000    eV*rad^-4 0.000  3.500
                            Three-body k3    0.0000000    eV*rad^-3 
--------------------------------------------------------------------------------

********************************************************************************
*  Output for configuration   1 : c00047.vasp                                  *
********************************************************************************


  Components of energy : 

--------------------------------------------------------------------------------
  Interatomic potentials     =         912.63229250 eV    
  Three-body potentials      =           0.00000000 eV    
  Monopole - monopole (real) =       -2676.00317478 eV    
  Monopole - monopole (recip)=       -1115.35404472 eV    
  Monopole - monopole (total)=       -3791.35721950 eV    
--------------------------------------------------------------------------------
  Total lattice energy       =       -2878.72492700 eV    
--------------------------------------------------------------------------------
  Total lattice energy       =         -277752.9501 kJ/(mole unit cells)
--------------------------------------------------------------------------------


  Number of variables =      363

  Maximum number of calculations  =          1000
  Maximum Hessian update interval =            10
  Maximum step size               =   0.100000000
  Maximum parameter tolerance     =   0.000010000
  Maximum function  tolerance     =   0.000010000
  Maximum gradient  tolerance     =   0.001000000
  Maximum gradient  component     =   0.010000000

  Symmetry not applied to optimisation

  Cell parameters to be optimised using strains

  Newton-Raphson optimiser to be used

  BFGS hessian update to be used

  Lower half triangular hessian to be used

  Minimiser to switch to RFO
  When gradient norm is less than     0.050000

  Dumpfile to be written after every cycle

  Start of bulk optimisation :

  Cycle:      0 Energy:     -2878.724927  Gnorm:      6.066630  CPU:    0.100
  ** Hessian calculated **
  Cycle:      1 Energy:     -2924.500829  Gnorm:      1.465571  CPU:    0.237
  ** Hessian calculated **
  Cycle:      2 Energy:     -2930.386633  Gnorm:      0.569388  CPU:    0.457
  ** Hessian calculated **
  Cycle:      3 Energy:     -2931.127085  Gnorm:      0.264265  CPU:    0.641
  Cycle:      4 Energy:     -2931.268180  Gnorm:      0.122087  CPU:    0.735
  Cycle:      5 Energy:     -2931.319135  Gnorm:      0.102220  CPU:    0.846
  Cycle:      6 Energy:     -2931.381786  Gnorm:      0.089401  CPU:    0.955
  Cycle:      7 Energy:     -2931.451443  Gnorm:      0.092382  CPU:    1.065
  Cycle:      8 Energy:     -2931.499146  Gnorm:      0.082127  CPU:    1.158
  Cycle:      9 Energy:     -2931.530612  Gnorm:      0.079221  CPU:    1.250
  Cycle:     10 Energy:     -2931.558777  Gnorm:      0.074865  CPU:    1.360
  Cycle:     11 Energy:     -2931.583317  Gnorm:      0.074023  CPU:    1.469
  Cycle:     12 Energy:     -2931.612043  Gnorm:      0.075556  CPU:    1.578
  ** Hessian calculated **
  Cycle:     13 Energy:     -2931.625891  Gnorm:      0.075264  CPU:    1.777
  Cycle:     14 Energy:     -2931.655159  Gnorm:      0.074384  CPU:    1.903
  Cycle:     15 Energy:     -2931.720343  Gnorm:      0.071574  CPU:    2.028
  Cycle:     16 Energy:     -2931.802204  Gnorm:      0.067322  CPU:    2.136
  Cycle:     17 Energy:     -2931.920776  Gnorm:      0.059839  CPU:    2.244
  Cycle:     18 Energy:     -2932.129613  Gnorm:      0.044061  CPU:    2.353
  ** Hessian has wrong structure
  ** Imaginary eigenvectors =   7
  Cycle:     19 Energy:     -2932.176622  Gnorm:      0.163073  CPU:    2.597
  ** Hessian has wrong structure
  ** Imaginary eigenvectors =   5
  ** Hessian has wrong structure
  ** Imaginary eigenvectors =   4
  Cycle:     20 Energy:     -2932.194654  Gnorm:      0.165895  CPU:    3.112
  ** Hessian has wrong structure
  ** Imaginary eigenvectors =   3
  ** Hessian has wrong structure
  ** Imaginary eigenvectors =   2
  Cycle:     21 Energy:     -2932.336202  Gnorm:      0.176607  CPU:    3.572
  ** Hessian has wrong structure
  ** Imaginary eigenvectors =   1
  ** Hessian has wrong structure
  ** Imaginary eigenvectors =   1
  Cycle:     22 Energy:     -2932.370332  Gnorm:      0.182077  CPU:    3.926
  ** Hessian has required structure
  Cycle:     23 Energy:     -2932.807205  Gnorm:      0.108607  CPU:    4.168
  ** Hessian has required structure
  Cycle:     24 Energy:     -2932.988063  Gnorm:      0.055725  CPU:    4.332
  ** Hessian has required structure
  Cycle:     25 Energy:     -2933.060204  Gnorm:      0.077176  CPU:    4.478
  ** Hessian has required structure
  Cycle:     26 Energy:     -2933.118121  Gnorm:      0.046812  CPU:    4.624
  ** Hessian has required structure
  Cycle:     27 Energy:     -2933.148722  Gnorm:      0.047251  CPU:    4.769
  ** Hessian has required structure
  Cycle:     28 Energy:     -2933.165126  Gnorm:      0.046818  CPU:    4.914
  ** Hessian has required structure
  Cycle:     29 Energy:     -2933.177939  Gnorm:      0.032754  CPU:    5.060
  ** Hessian has required structure
  Cycle:     30 Energy:     -2933.183735  Gnorm:      0.024313  CPU:    5.205
  ** Hessian has required structure
  Cycle:     31 Energy:     -2933.187049  Gnorm:      0.011644  CPU:    5.333
  ** Hessian has required structure
  Cycle:     32 Energy:     -2933.188810  Gnorm:      0.008463  CPU:    5.494
  ** Hessian has required structure
  Cycle:     33 Energy:     -2933.190071  Gnorm:      0.004273  CPU:    5.737
  ** Hessian has required structure
  Cycle:     34 Energy:     -2933.190392  Gnorm:      0.002172  CPU:    5.898
  ** Hessian has required structure
  Cycle:     35 Energy:     -2933.190472  Gnorm:      0.001092  CPU:    6.058
  ** Hessian has required structure
  Cycle:     36 Energy:     -2933.190492  Gnorm:      0.000548  CPU:    6.216
  ** Hessian has required structure
  Cycle:     37 Energy:     -2933.190495  Gnorm:      0.000384  CPU:    6.342
  ** Hessian has required structure
  Cycle:     38 Energy:     -2933.190496  Gnorm:      0.000269  CPU:    6.470
  ** Hessian has required structure
  Cycle:     39 Energy:     -2933.190496  Gnorm:      0.000262  CPU:    6.613
  ** Hessian has required structure
  Cycle:     40 Energy:     -2933.190496  Gnorm:      0.000259  CPU:    6.739
  ** Hessian has required structure
  Cycle:     41 Energy:     -2933.190496  Gnorm:      0.000258  CPU:    6.867
  ** Hessian has required structure
  Cycle:     42 Energy:     -2933.190496  Gnorm:      0.000257  CPU:    6.994
  ** Hessian has required structure
  Cycle:     43 Energy:     -2933.190496  Gnorm:      0.000252  CPU:    7.217
  ** Hessian has required structure
  Cycle:     44 Energy:     -2933.190496  Gnorm:      0.000250  CPU:    7.344
  ** Hessian has required structure
  Cycle:     45 Energy:     -2933.190496  Gnorm:      0.000250  CPU:    7.470
  ** Hessian has required structure
  Cycle:     46 Energy:     -2933.190496  Gnorm:      0.000249  CPU:    7.596
  ** Hessian has required structure
  Cycle:     47 Energy:     -2933.190496  Gnorm:      0.000249  CPU:    7.722
  ** Hessian has required structure
  Cycle:     48 Energy:     -2933.190496  Gnorm:      0.000249  CPU:    7.849
  ** Hessian has required structure
  Cycle:     49 Energy:     -2933.190496  Gnorm:      0.000249  CPU:    7.976
  ** Hessian has required structure
  Cycle:     50 Energy:     -2933.190496  Gnorm:      0.000249  CPU:    8.102
  ** Hessian has required structure
  Cycle:     51 Energy:     -2933.190496  Gnorm:      0.000252  CPU:    8.312
  ** Hessian has required structure
  Cycle:     52 Energy:     -2933.190496  Gnorm:      0.000176  CPU:    8.519
  ** Hessian has required structure


  **** Optimisation achieved ****


  Final energy =   -2933.19049681 eV      
  Final Gnorm  =       0.00012342

  Components of energy : 

--------------------------------------------------------------------------------
  Interatomic potentials     =         772.82202433 eV    
  Three-body potentials      =           0.00000000 eV    
  Monopole - monopole (real) =       -1476.08311813 eV    
  Monopole - monopole (recip)=       -2229.92940301 eV    
  Monopole - monopole (total)=       -3706.01252113 eV    
--------------------------------------------------------------------------------
  Total lattice energy       =       -2933.19049681 eV    
--------------------------------------------------------------------------------
  Total lattice energy       =         -283008.0450 kJ/(mole unit cells)
--------------------------------------------------------------------------------

  Final fractional coordinates of atoms :

--------------------------------------------------------------------------------
   No.  Atomic        x           y          z          Radius
        Label       (Frac)      (Frac)     (Frac)       (Angs) 
--------------------------------------------------------------------------------
     1  Ge    c     0.052090    0.000000    0.372270    0.000000
     2  Ge    c     0.941480    0.943583    0.614064    0.000000
     3  Ge    c     0.549161    0.007218    0.131058    0.000000
     4  Ge    c     0.950044    0.939431    0.114724    0.000000
     5  Ge    c     0.446336    0.942422    0.868982    0.000000
     6  Ge    c     0.052492    0.000220    0.862141    0.000000
     7  Ge    c     0.149910    0.312032    0.303887    0.000000
     8  Ge    c     0.356228    0.632833    0.301867    0.000000
     9  Ge    c     0.821131    0.232124    0.728779    0.000000
    10  Ge    c     0.665240    0.710538    0.731552    0.000000
    11  Ge    c     0.848335    0.631412    0.730514    0.000000
    12  Ge    c     0.637896    0.309111    0.736264    0.000000
    13  Ge    c     0.174319    0.712446    0.300290    0.000000
    14  Ge    c     0.331751    0.231153    0.298688    0.000000
    15  Ge    c     0.645239    0.315082    0.054093    0.000000
    16  Ge    c     0.849923    0.629635    0.050336    0.000000
    17  Ge    c     0.325870    0.228229    0.980212    0.000000
    18  Ge    c     0.173682    0.714090    0.982066    0.000000
    19  Ge    c     0.355396    0.628993    0.984394    0.000000
    20  Ge    c     0.144343    0.313154    0.985155    0.000000
    21  Ge    c     0.670121    0.717071    0.049680    0.000000
    22  Ge    c     0.825263    0.228600    0.045846    0.000000
    23  Si    c     0.447261    0.945091    0.378640    0.000000
    24  Si    c     0.549226    0.996555    0.622477    0.000000
    25  O1    c     0.087602    0.199131    0.395270    0.000000
    26  O3    c     0.417822    0.755735    0.395104    0.000000
    27  O1    c     0.864916    0.079712    0.634104    0.000000
    28  O3    c     0.621405    0.869583    0.639284    0.000000
    29  O1    c     0.914334    0.740215    0.644852    0.000000
    30  O3    c     0.572152    0.189174    0.651416    0.000000
    31  O1    c     0.125018    0.852503    0.398088    0.000000
    32  O3    c     0.379343    0.083706    0.397831    0.000000
    33  O1    c     0.971121    0.958592    0.453721    0.000000
    34  O2    c     0.519748    0.983300    0.471123    0.000000
    35  O1    c     0.027650    0.983914    0.206971    0.000000
    36  O3    c     0.473699    0.965476    0.228265    0.000000
    37  O1    c     0.021680    0.997105    0.701388    0.000000
    38  O3    c     0.479279    0.941994    0.710137    0.000000
    39  O1    c     0.585198    0.206381    0.152169    0.000000
    40  O1    c     0.914890    0.740114    0.140492    0.000000
    41  O1    c     0.368033    0.076755    0.882985    0.000000
    42  O1    c     0.129782    0.864202    0.884689    0.000000
    43  O1    c     0.421495    0.736782    0.899648    0.000000
    44  O1    c     0.077005    0.205504    0.898888    0.000000
    45  O1    c     0.621551    0.856800    0.148068    0.000000
    46  O1    c     0.877020    0.087273    0.138846    0.000000
    47  O1    c     0.518000    0.005968    0.970097    0.000000
    48  O1    c     0.976599    0.940017    0.952172    0.000000
    49  O1    c     0.162196    0.511796    0.364038    0.000000
    50  O1    c     0.347368    0.432213    0.362083    0.000000
    51  O1    c     0.837368    0.430925    0.666810    0.000000
    52  O1    c     0.645561    0.510250    0.672731    0.000000
    53  O1    c     0.235813    0.199453    0.300375    0.000000
    54  O1    c     0.270298    0.743729    0.298850    0.000000
    55  O1    c     0.724844    0.204339    0.731855    0.000000
    56  O1    c     0.761433    0.738827    0.726846    0.000000
    57  O1    c     0.116393    0.333338    0.145372    0.000000
    58  O1    c     0.387454    0.609637    0.144210    0.000000
    59  O1    c     0.856744    0.216053    0.886391    0.000000
    60  O1    c     0.635041    0.728787    0.890806    0.000000
    61  O1    c     0.878496    0.607812    0.889973    0.000000
    62  O1    c     0.610125    0.333594    0.895647    0.000000
    63  O1    c     0.141103    0.727188    0.140516    0.000000
    64  O1    c     0.361412    0.216833    0.138795    0.000000
    65  O1    c     0.659513    0.514915    0.111905    0.000000
    66  O1    c     0.837797    0.430656    0.109803    0.000000
    67  O1    c     0.342428    0.429338    0.921658    0.000000
    68  O1    c     0.155882    0.512692    0.922876    0.000000
    69  O1    c     0.729402    0.196221    0.045643    0.000000
    70  O1    c     0.765874    0.749733    0.047181    0.000000
    71  O1    c     0.229702    0.199857    0.982484    0.000000
    72  O1    c     0.270052    0.742035    0.983878    0.000000
    73  O1    s     0.089542    0.192753    0.386914    0.000000
    74  O3    s     0.416017    0.764722    0.386497    0.000000
    75  O1    s     0.867438    0.081032    0.639928    0.000000
    76  O3    s     0.617777    0.869335    0.645059    0.000000
    77  O1    s     0.911387    0.747334    0.648998    0.000000
    78  O3    s     0.575101    0.179930    0.655274    0.000000
    79  O1    s     0.123426    0.852633    0.388775    0.000000
    80  O3    s     0.382131    0.081958    0.388257    0.000000
    81  O1    s     0.975298    0.960715    0.458884    0.000000
    82  O2    s     0.515073    0.980619    0.476544    0.000000
    83  O1    s     0.023207    0.981558    0.211108    0.000000
    84  O3    s     0.477527    0.967049    0.234015    0.000000
    85  O1    s     0.018083    0.993398    0.706747    0.000000
    86  O3    s     0.483501    0.947390    0.714185    0.000000
    87  O1    s     0.586995    0.199861    0.143382    0.000000
    88  O1    s     0.912574    0.746136    0.131953    0.000000
    89  O1    s     0.370650    0.078445    0.889494    0.000000
    90  O1    s     0.127368    0.862772    0.890554    0.000000
    91  O1    s     0.418232    0.743738    0.903927    0.000000
    92  O1    s     0.080375    0.198643    0.902820    0.000000
    93  O1    s     0.619951    0.857123    0.139171    0.000000
    94  O1    s     0.878279    0.087596    0.129842    0.000000
    95  O1    s     0.514729    0.001113    0.974025    0.000000
    96  O1    s     0.980355    0.944476    0.956961    0.000000
    97  O1    s     0.162115    0.510639    0.354826    0.000000
    98  O1    s     0.346942    0.433261    0.353016    0.000000
    99  O1    s     0.837005    0.431284    0.676011    0.000000
   100  O1    s     0.646408    0.510039    0.681598    0.000000
   101  O1    s     0.236838    0.209856    0.300480    0.000000
   102  O1    s     0.269368    0.733274    0.299156    0.000000
   103  O1    s     0.725591    0.214302    0.731965    0.000000
   104  O1    s     0.760564    0.728855    0.727473    0.000000
   105  O1    s     0.120939    0.330279    0.145183    0.000000
   106  O1    s     0.382765    0.612791    0.144378    0.000000
   107  O1    s     0.851893    0.218098    0.886328    0.000000
   108  O1    s     0.639762    0.726640    0.890531    0.000000
   109  O1    s     0.874121    0.611179    0.889678    0.000000
   110  O1    s     0.614759    0.330415    0.895095    0.000000
   111  O1    s     0.145847    0.725185    0.140511    0.000000
   112  O1    s     0.356699    0.218688    0.139074    0.000000
   113  O1    s     0.659165    0.513738    0.102939    0.000000
   114  O1    s     0.837846    0.431805    0.100677    0.000000
   115  O1    s     0.342215    0.429861    0.930565    0.000000
   116  O1    s     0.156295    0.512278    0.931758    0.000000
   117  O1    s     0.730581    0.207042    0.046236    0.000000
   118  O1    s     0.764665    0.738808    0.047565    0.000000
   119  O1    s     0.230696    0.210248    0.982522    0.000000
   120  O1    s     0.269119    0.731668    0.983795    0.000000
--------------------------------------------------------------------------------

  Final Cartesian lattice vectors (Angstroms) :

       17.580284    0.259277   -0.117678
        0.115500    7.863020   -0.018762
       -0.075356   -0.027564   10.190905


  Final cell parameters and derivatives :

--------------------------------------------------------------------------------
       a           17.582589 Angstrom     dE/de1(xx)     0.003969 eV/strain
       b            7.863890 Angstrom     dE/de2(yy)     0.002865 eV/strain
       c           10.191221 Angstrom     dE/de3(zz)     0.004210 eV/strain
       alpha       90.297870 Degrees      dE/de4(yz)    -0.000161 eV/strain
       beta        90.809373 Degrees      dE/de5(xz)     0.000100 eV/strain
       gamma       88.312620 Degrees      dE/de6(xy)    -0.001132 eV/strain
--------------------------------------------------------------------------------

  Primitive cell volume =          1408.347516 Angs**3

  Density of cell =      2.855279 g/cm**3

  Non-primitive cell volume =          1408.347516 Angs**3


  Final internal derivatives :

--------------------------------------------------------------------------------
   No.  Atomic          a             b             c           Radius
        Label          (eV)          (eV)          (eV)        (eV/Angs)
--------------------------------------------------------------------------------
      1 Ge    c       0.000000      0.000000      0.000000      0.000000
      2 Ge    c       0.001473     -0.000829     -0.000643      0.000000
      3 Ge    c      -0.002079      0.000770      0.000716      0.000000
      4 Ge    c      -0.006146     -0.001434      0.000442      0.000000
      5 Ge    c      -0.001410     -0.001724      0.001406      0.000000
      6 Ge    c       0.004459      0.000321     -0.000244      0.000000
      7 Ge    c      -0.001489      0.000518      0.000002      0.000000
      8 Ge    c      -0.001116      0.000413      0.000565      0.000000
      9 Ge    c      -0.000091     -0.000970     -0.000676      0.000000
     10 Ge    c      -0.001985      0.000863     -0.001110      0.000000
     11 Ge    c      -0.003300     -0.001930     -0.000767      0.000000
     12 Ge    c       0.004955     -0.000769     -0.000858      0.000000
     13 Ge    c      -0.000373      0.001021      0.000671      0.000000
     14 Ge    c       0.000580      0.000269      0.000899      0.000000
     15 Ge    c      -0.000867      0.000146     -0.000482      0.000000
     16 Ge    c       0.004134      0.001045      0.002317      0.000000
     17 Ge    c       0.001884     -0.000041     -0.001475      0.000000
     18 Ge    c      -0.002060     -0.000254     -0.002346      0.000000
     19 Ge    c       0.000343      0.000100     -0.001269      0.000000
     20 Ge    c       0.000404      0.001853      0.000251      0.000000
     21 Ge    c      -0.001078      0.000816      0.000586      0.000000
     22 Ge    c       0.002463     -0.000243      0.002059      0.000000
     23 Si    c       0.005444     -0.002094     -0.000095      0.000000
     24 Si    c       0.001509      0.001740     -0.000344      0.000000
     25 O1    c      -0.007332     -0.002977      0.003053      0.000000
     26 O3    c       0.004568      0.004100      0.001094      0.000000
     27 O1    c      -0.005872      0.004011      0.000352      0.000000
     28 O3    c       0.009972     -0.004687      0.002179      0.000000
     29 O1    c       0.003387      0.001826     -0.001991      0.000000
     30 O3    c      -0.000563     -0.000772     -0.000417      0.000000
     31 O1    c       0.000429     -0.000818     -0.001416      0.000000
     32 O3    c      -0.005199      0.001629     -0.001996      0.000000
     33 O1    c       0.001905      0.000959      0.000792      0.000000
     34 O2    c      -0.008398     -0.000864     -0.003899      0.000000
     35 O1    c      -0.000450     -0.001511     -0.000208      0.000000
     36 O3    c       0.002482      0.000930      0.003331      0.000000
     37 O1    c      -0.004601     -0.001440     -0.001463      0.000000
     38 O3    c      -0.001963      0.000305      0.000906      0.000000
     39 O1    c      -0.005028     -0.001203      0.003347      0.000000
     40 O1    c       0.001762      0.002119     -0.000695      0.000000
     41 O1    c      -0.003714      0.001577      0.002762      0.000000
     42 O1    c       0.007701     -0.002410      0.003443      0.000000
     43 O1    c       0.004969      0.001934      0.000764      0.000000
     44 O1    c      -0.009298     -0.002435     -0.001694      0.000000
     45 O1    c       0.004012     -0.002584     -0.001868      0.000000
     46 O1    c      -0.001580      0.001507     -0.003649      0.000000
     47 O1    c       0.001797     -0.001227     -0.001354      0.000000
     48 O1    c      -0.005152      0.001414     -0.000673      0.000000
     49 O1    c      -0.000446     -0.001815      0.001067      0.000000
     50 O1    c       0.000677     -0.003575     -0.000393      0.000000
     51 O1    c       0.001749      0.006326      0.001556      0.000000
     52 O1    c      -0.000608     -0.000451     -0.000109      0.000000
     53 O1    c       0.001974     -0.002154     -0.000473      0.000000
     54 O1    c      -0.002224      0.000877     -0.000605      0.000000
     55 O1    c      -0.009791      0.000804      0.000447      0.000000
     56 O1    c       0.004909      0.000436      0.000195      0.000000
     57 O1    c      -0.002608     -0.000003      0.001147      0.000000
     58 O1    c       0.000021     -0.000734     -0.000843      0.000000
     59 O1    c       0.000703     -0.000128     -0.000953      0.000000
     60 O1    c      -0.002692      0.000729      0.000541      0.000000
     61 O1    c       0.003059      0.000753      0.001029      0.000000
     62 O1    c      -0.001810     -0.001264      0.001106      0.000000
     63 O1    c      -0.000635      0.000205      0.001199      0.000000
     64 O1    c      -0.002403      0.000229     -0.001018      0.000000
     65 O1    c      -0.000107      0.000016      0.001523      0.000000
     66 O1    c       0.001246     -0.002145     -0.000945      0.000000
     67 O1    c      -0.001935      0.000238      0.000431      0.000000
     68 O1    c      -0.000228      0.000364      0.000888      0.000000
     69 O1    c       0.004820     -0.002950     -0.001670      0.000000
     70 O1    c      -0.005216      0.002576     -0.000891      0.000000
     71 O1    c       0.000977     -0.002218      0.000567      0.000000
     72 O1    c       0.001911      0.000769      0.000351      0.000000
     73 O1    s       0.003758      0.001838     -0.001660      0.000000
     74 O3    s       0.003067     -0.000338     -0.001189      0.000000
     75 O1    s       0.003917     -0.001982     -0.000558      0.000000
     76 O3    s      -0.004932      0.000772     -0.002450      0.000000
     77 O1    s      -0.004217     -0.001510     -0.001548      0.000000
     78 O3    s       0.000304      0.001947     -0.001822      0.000000
     79 O1    s       0.001286      0.000213      0.001598      0.000000
     80 O3    s       0.007487     -0.001160      0.002054      0.000000
     81 O1    s      -0.000344     -0.001445     -0.000489      0.000000
     82 O2    s      -0.000558      0.000618     -0.003445      0.000000
     83 O1    s       0.001249      0.001820     -0.000234      0.000000
     84 O3    s      -0.005237     -0.001774      0.000590      0.000000
     85 O1    s       0.005296      0.001051      0.000440      0.000000
     86 O3    s      -0.003332      0.000131     -0.000508      0.000000
     87 O1    s       0.000104      0.000928     -0.000706      0.000000
     88 O1    s      -0.000357     -0.001621      0.000043      0.000000
     89 O1    s       0.002075     -0.000869     -0.000318      0.000000
     90 O1    s      -0.001817      0.000607     -0.001808      0.000000
     91 O1    s      -0.004263     -0.000766     -0.000640      0.000000
     92 O1    s       0.004928      0.002521     -0.000718      0.000000
     93 O1    s      -0.001090      0.001210      0.003449      0.000000
     94 O1    s      -0.000571     -0.000184      0.002969      0.000000
     95 O1    s      -0.003443      0.001642      0.001483      0.000000
     96 O1    s       0.001860     -0.002121      0.001068      0.000000
     97 O1    s       0.000448      0.002110     -0.000348      0.000000
     98 O1    s      -0.002131      0.000925      0.000519      0.000000
     99 O1    s      -0.000956     -0.003632     -0.001168      0.000000
    100 O1    s       0.001656      0.000176     -0.000369      0.000000
    101 O1    s       0.001482      0.001570      0.000926      0.000000
    102 O1    s       0.000280     -0.000496      0.001190      0.000000
    103 O1    s       0.005748      0.000191     -0.000268      0.000000
    104 O1    s      -0.001776     -0.001036     -0.000595      0.000000
    105 O1    s      -0.002313     -0.000372     -0.000041      0.000000
    106 O1    s       0.003465      0.000962      0.000644      0.000000
    107 O1    s       0.000327     -0.000066      0.001008      0.000000
    108 O1    s       0.001887     -0.000886     -0.000389      0.000000
    109 O1    s      -0.000083     -0.000170     -0.000603      0.000000
    110 O1    s      -0.000338      0.001096     -0.000838      0.000000
    111 O1    s      -0.000464     -0.000299     -0.001117      0.000000
    112 O1    s       0.003469     -0.000267      0.000579      0.000000
    113 O1    s      -0.000337      0.001058     -0.000307      0.000000
    114 O1    s      -0.002203      0.000839      0.000908      0.000000
    115 O1    s       0.002551     -0.001061     -0.001363      0.000000
    116 O1    s       0.001088      0.000628     -0.000821      0.000000
    117 O1    s      -0.000234      0.002101      0.002335      0.000000
    118 O1    s       0.002404     -0.002584      0.001297      0.000000
    119 O1    s       0.002059      0.001162     -0.001380      0.000000
    120 O1    s      -0.002765     -0.000318     -0.000819      0.000000
--------------------------------------------------------------------------------
  Maximum abs         0.009972      0.006326      0.003899      0.000000
--------------------------------------------------------------------------------


  Born effective charge tensors : 

-------------------------------------------------------------------------------
  Atom             x           y             z
-------------------------------------------------------------------------------
    1 Ge    x       4.2065      0.2489      0.1083
            y      -0.0627      3.9152      0.0118
            z      -0.7785     -0.1461      4.1148
-------------------------------------------------------------------------------
    2 Ge    x       4.2270      0.2756     -0.4641
            y      -0.1379      3.9115     -0.0917
            z      -0.2510     -0.0339      4.3976
-------------------------------------------------------------------------------
    3 Ge    x       4.1227      0.1424      0.0370
            y      -0.1003      3.9443      0.0038
            z      -0.6433     -0.1738      3.7626
-------------------------------------------------------------------------------
    4 Ge    x       4.3224      0.1942     -0.0590
            y      -0.0807      3.9278     -0.0013
            z       0.6354      0.1673      3.6794
-------------------------------------------------------------------------------
    5 Ge    x       4.1829      0.2176     -0.3471
            y      -0.1561      3.9469     -0.0713
            z      -0.2972      0.0370      3.9311
-------------------------------------------------------------------------------
    6 Ge    x       4.2793      0.2268      0.3917
            y      -0.1597      3.9360      0.0711
            z       0.3144     -0.0097      3.9889
-------------------------------------------------------------------------------
    7 Ge    x       3.9662      0.0863     -0.2197
            y       0.4303      4.2173     -0.1085
            z      -0.0426     -0.2013      3.5696
-------------------------------------------------------------------------------
    8 Ge    x       3.8278      0.0442      0.1815
            y       0.4157      4.2822      0.1034
            z      -0.0076      0.1836      3.5305
-------------------------------------------------------------------------------
    9 Ge    x       4.0204     -0.2463     -0.2807
            y      -0.2044      4.1979      0.0618
            z       0.0131      0.1832      3.6175
-------------------------------------------------------------------------------
   10 Ge    x       3.9617     -0.2363      0.2329
            y      -0.1735      4.2158     -0.0308
            z      -0.0428     -0.1470      3.5793
-------------------------------------------------------------------------------
   11 Ge    x       4.0143      0.0653     -0.1964
            y       0.4331      4.1907     -0.1004
            z      -0.0773     -0.2244      3.6193
-------------------------------------------------------------------------------
   12 Ge    x       3.8698      0.0392      0.1471
            y       0.4293      4.2574      0.0842
            z       0.0289      0.2054      3.5909
-------------------------------------------------------------------------------
   13 Ge    x       4.0601     -0.2571     -0.2952
            y      -0.2715      4.1403      0.0488
            z      -0.0090      0.1263      3.5817
-------------------------------------------------------------------------------
   14 Ge    x       3.9811     -0.2338      0.2689
            y      -0.2338      4.1664     -0.0258
            z      -0.0298     -0.1040      3.5370
-------------------------------------------------------------------------------
   15 Ge    x       3.9599      0.0785     -0.3207
            y       0.4418      4.2111     -0.1010
            z      -0.1047     -0.1961      3.5221
-------------------------------------------------------------------------------
   16 Ge    x       4.0146      0.0911      0.2983
            y       0.4396      4.2057      0.0823
            z       0.0889      0.1844      3.4564
-------------------------------------------------------------------------------
   17 Ge    x       4.0312     -0.2311     -0.3245
            y      -0.2136      4.1978      0.0877
            z      -0.0131      0.2029      3.5768
-------------------------------------------------------------------------------
   18 Ge    x       4.0469     -0.2279      0.3267
            y      -0.2070      4.1966     -0.0997
            z       0.0143     -0.2029      3.5485
-------------------------------------------------------------------------------
   19 Ge    x       4.0227      0.0736     -0.2820
            y       0.4575      4.1960     -0.0654
            z      -0.1343     -0.2039      3.5458
-------------------------------------------------------------------------------
   20 Ge    x       4.0452      0.0742      0.2775
            y       0.4425      4.1872      0.0719
            z       0.1275      0.1962      3.5187
-------------------------------------------------------------------------------
   21 Ge    x       4.0712     -0.2450     -0.3288
            y      -0.3051      4.1540      0.0693
            z      -0.0537      0.1637      3.5443
-------------------------------------------------------------------------------
   22 Ge    x       4.1008     -0.2585      0.3280
            y      -0.3030      4.1488     -0.0552
            z       0.0298     -0.1450      3.4730
-------------------------------------------------------------------------------
   23 Si    x       3.5102      0.1752     -0.2162
            y      -0.1400      3.6670     -0.0570
            z       0.5402      0.0703      3.7549
-------------------------------------------------------------------------------
   24 Si    x       3.7454      0.2589      0.3057
            y      -0.1668      3.6693      0.0646
            z       0.1227     -0.0263      3.8159
-------------------------------------------------------------------------------
   25 O1    x      -1.9727     -0.8783      0.3380
            y      -0.8416     -2.5143      0.2894
            z       0.4159      0.3273     -1.5843
-------------------------------------------------------------------------------
   26 O3    x      -1.7442     -0.8333     -0.2758
            y      -0.7785     -2.5234     -0.2682
            z      -0.3536     -0.2989     -1.4583
-------------------------------------------------------------------------------
   27 O1    x      -2.1959      0.8906      0.5172
            y       0.9261     -2.3044     -0.5152
            z       0.4659     -0.5392     -1.6648
-------------------------------------------------------------------------------
   28 O3    x      -2.0993      0.8770     -0.4677
            y       0.8894     -2.1829      0.4318
            z      -0.4080      0.4639     -1.5324
-------------------------------------------------------------------------------
   29 O1    x      -1.9722     -0.8489      0.5222
            y      -0.7903     -2.5421      0.5440
            z       0.4721      0.5371     -1.6474
-------------------------------------------------------------------------------
   30 O3    x      -1.7421     -0.8041     -0.4428
            y      -0.7268     -2.5517     -0.5214
            z      -0.3894     -0.5076     -1.5329
-------------------------------------------------------------------------------
   31 O1    x      -2.1799      0.8899      0.2966
            y       0.9451     -2.2710     -0.3423
            z       0.3703     -0.3496     -1.6120
-------------------------------------------------------------------------------
   32 O3    x      -2.0525      0.8665     -0.2550
            y       0.9011     -2.1751      0.2961
            z      -0.3257      0.2936     -1.4873
-------------------------------------------------------------------------------
   33 O1    x      -2.1641     -0.2568      0.8978
            y      -0.1127     -1.2737      0.1406
            z       1.1454      0.2603     -2.9715
-------------------------------------------------------------------------------
   34 O2    x      -1.6154     -0.1714     -0.6195
            y      -0.0492     -1.1221     -0.0892
            z      -0.7867     -0.1698     -2.3542
-------------------------------------------------------------------------------
   35 O1    x      -2.1519     -0.2311     -0.8071
            y      -0.1095     -1.3421     -0.1592
            z      -0.7838     -0.2166     -2.5829
-------------------------------------------------------------------------------
   36 O3    x      -1.8942     -0.1931      0.7414
            y      -0.0863     -1.2700      0.1674
            z       0.7439      0.2258     -2.5869
-------------------------------------------------------------------------------
   37 O1    x      -2.1239     -0.2428     -0.7831
            y      -0.1258     -1.3044     -0.1463
            z      -0.8124     -0.1779     -2.7376
-------------------------------------------------------------------------------
   38 O3    x      -1.9785     -0.2504      0.7846
            y      -0.1392     -1.2518      0.1815
            z       0.8187      0.2088     -2.5689
-------------------------------------------------------------------------------
   39 O1    x      -1.9960     -0.8579      0.3971
            y      -0.8217     -2.4974      0.3238
            z       0.4316      0.3568     -1.5426
-------------------------------------------------------------------------------
   40 O1    x      -2.0698     -0.8769     -0.3449
            y      -0.8350     -2.4937     -0.2473
            z      -0.3882     -0.2863     -1.4683
-------------------------------------------------------------------------------
   41 O1    x      -2.2207      0.8919      0.5184
            y       0.9020     -2.2781     -0.5023
            z       0.4570     -0.5225     -1.6158
-------------------------------------------------------------------------------
   42 O1    x      -2.2300      0.8940     -0.5368
            y       0.9065     -2.2962      0.5307
            z      -0.4594      0.5270     -1.6056
-------------------------------------------------------------------------------
   43 O1    x      -2.0045     -0.8413      0.5487
            y      -0.7648     -2.5573      0.5504
            z       0.5008      0.5557     -1.5848
-------------------------------------------------------------------------------
   44 O1    x      -2.0273     -0.8318     -0.5443
            y      -0.7509     -2.5376     -0.5572
            z      -0.4749     -0.5375     -1.5617
-------------------------------------------------------------------------------
   45 O1    x      -2.1909      0.9014      0.3651
            y       0.9456     -2.2923     -0.3890
            z       0.4247     -0.4011     -1.5564
-------------------------------------------------------------------------------
   46 O1    x      -2.2430      0.9173     -0.3080
            y       0.9585     -2.2917      0.3273
            z      -0.3665      0.3469     -1.4976
-------------------------------------------------------------------------------
   47 O1    x      -2.0544     -0.2313     -0.7082
            y      -0.1417     -1.3823     -0.1862
            z      -0.5332     -0.1705     -2.4378
-------------------------------------------------------------------------------
   48 O1    x      -2.1535     -0.2445      0.7119
            y      -0.1475     -1.3766      0.1732
            z       0.4988      0.1464     -2.3092
-------------------------------------------------------------------------------
   49 O1    x      -1.3567     -0.1840      0.0711
            y      -0.2797     -3.1481      0.0128
            z       0.0175     -0.0104     -1.3956
-------------------------------------------------------------------------------
   50 O1    x      -1.3393     -0.1732     -0.0877
            y      -0.2881     -3.2425      0.0007
            z      -0.0324      0.0208     -1.3919
-------------------------------------------------------------------------------
   51 O1    x      -1.3625     -0.1944      0.0759
            y      -0.3080     -3.1467     -0.0137
            z       0.0261     -0.0127     -1.4118
-------------------------------------------------------------------------------
   52 O1    x      -1.3478     -0.1859     -0.0856
            y      -0.3215     -3.2440      0.0443
            z      -0.0418      0.0312     -1.4015
-------------------------------------------------------------------------------
   53 O1    x      -3.0974      0.2874      0.0231
            y       0.2130     -1.5834      0.0096
            z       0.0359      0.0401     -1.2159
-------------------------------------------------------------------------------
   54 O1    x      -3.0857      0.2673     -0.0049
            y       0.1367     -1.5636     -0.0115
            z      -0.0382     -0.0394     -1.2133
-------------------------------------------------------------------------------
   55 O1    x      -3.1135      0.2677      0.0440
            y       0.1561     -1.5445     -0.0262
            z       0.0022     -0.0558     -1.2266
-------------------------------------------------------------------------------
   56 O1    x      -3.1285      0.2952      0.0097
            y       0.2322     -1.5663      0.0262
            z       0.0151      0.0575     -1.2291
-------------------------------------------------------------------------------
   57 O1    x      -1.4681     -0.0111     -0.0653
            y      -0.0779     -1.4344      0.0078
            z      -0.0567      0.0185     -2.7464
-------------------------------------------------------------------------------
   58 O1    x      -1.4459     -0.0088      0.0258
            y      -0.0839     -1.4405     -0.0320
            z       0.0245     -0.0340     -2.7643
-------------------------------------------------------------------------------
   59 O1    x      -1.5152      0.1089     -0.0548
            y       0.1146     -1.4226      0.0217
            z      -0.0562      0.0202     -2.7204
-------------------------------------------------------------------------------
   60 O1    x      -1.4880      0.1134     -0.0337
            y       0.1229     -1.4292     -0.0033
            z       0.0018     -0.0175     -2.7717
-------------------------------------------------------------------------------
   61 O1    x      -1.4602     -0.0107     -0.0515
            y      -0.0773     -1.4386      0.0152
            z      -0.0412      0.0084     -2.7540
-------------------------------------------------------------------------------
   62 O1    x      -1.4523     -0.0123     -0.0164
            y      -0.0875     -1.4423     -0.0564
            z      -0.0092     -0.0242     -2.7723
-------------------------------------------------------------------------------
   63 O1    x      -1.5123      0.1071     -0.0197
            y       0.1137     -1.4220     -0.0122
            z      -0.0092      0.0105     -2.7265
-------------------------------------------------------------------------------
   64 O1    x      -1.4868      0.1068     -0.0348
            y       0.1231     -1.4270      0.0297
            z      -0.0284      0.0047     -2.7565
-------------------------------------------------------------------------------
   65 O1    x      -1.3822     -0.1980      0.0770
            y      -0.2817     -3.1624      0.0117
            z       0.0233     -0.0043     -1.3570
-------------------------------------------------------------------------------
   66 O1    x      -1.3937     -0.1975     -0.0803
            y      -0.2761     -3.1366     -0.0008
            z      -0.0230      0.0165     -1.3540
-------------------------------------------------------------------------------
   67 O1    x      -1.3903     -0.2164      0.0831
            y      -0.3282     -3.1572     -0.0338
            z       0.0354     -0.0080     -1.3707
-------------------------------------------------------------------------------
   68 O1    x      -1.4015     -0.2184     -0.0842
            y      -0.3258     -3.1521      0.0385
            z      -0.0346      0.0184     -1.3601
-------------------------------------------------------------------------------
   69 O1    x      -3.0537      0.2853      0.0536
            y       0.1816     -1.5944     -0.0075
            z       0.0694      0.0270     -1.2003
-------------------------------------------------------------------------------
   70 O1    x      -3.0583      0.2901      0.0081
            y       0.1917     -1.6003     -0.0005
            z      -0.0030     -0.0397     -1.1969
-------------------------------------------------------------------------------
   71 O1    x      -3.0891      0.2949      0.0324
            y       0.2135     -1.5763     -0.0189
            z       0.0065     -0.0507     -1.2087
-------------------------------------------------------------------------------
   72 O1    x      -3.0843      0.2961      0.0005
            y       0.2099     -1.5759      0.0138
            z       0.0226      0.0449     -1.2099
-------------------------------------------------------------------------------




  Elastic Constant Matrix: (Units=GPa)

-------------------------------------------------------------------------------
  Indices      1         2         3         4         5         6    
-------------------------------------------------------------------------------
       1     28.3447   12.1327    9.2623   -0.4690   -0.2241    7.5612
       2     12.1327   34.2073    7.4549   -0.4930    0.4606    7.3513
       3      9.2623    7.4549   14.5333   -0.1322   -0.1139    2.0684
       4     -0.4690   -0.4930   -0.1322    8.7827    2.3129    0.1476
       5     -0.2241    0.4606   -0.1139    2.3129   15.9603   -0.1385
       6      7.5612    7.3513    2.0684    0.1476   -0.1385   19.9964
-------------------------------------------------------------------------------


  Elastic Compliance Matrix: (Units=1/GPa)

-------------------------------------------------------------------------------
  Indices      1         2         3         4         5         6    
-------------------------------------------------------------------------------
       1    0.051479 -0.009752 -0.025905  0.001922  0.000426 -0.013212
       2   -0.009752  0.037160 -0.011589  0.001974 -0.001654 -0.008801
       3   -0.025905 -0.011589  0.090590 -0.000959  0.000797  0.004698
       4    0.001922  0.001974 -0.000959  0.118642 -0.017251 -0.002349
       5    0.000426 -0.001654  0.000797 -0.017251  0.065223  0.000944
       6   -0.013212 -0.008801  0.004698 -0.002349  0.000944  0.057778
-------------------------------------------------------------------------------

  Mechanical properties :

-------------------------------------------------------------------------------
  Convention :                    Reuss         Voigt         Hill
-------------------------------------------------------------------------------
  Bulk  Modulus (GPa)     =      11.80101      14.97611      13.38856
  Shear Modulus (GPa)     =       9.19779      12.16358      10.68068
-------------------------------------------------------------------------------
  Velocity S-wave (km/s)  =       1.79481       2.06398       1.93408
  Velocity P-wave (km/s)  =       2.90313       3.30531       3.11073
-------------------------------------------------------------------------------
  Compressibility (1/GPa) =    0.08473854
-------------------------------------------------------------------------------
  Stress axis :                     x             y             z
-------------------------------------------------------------------------------
  Youngs Moduli (GPa)     =      19.42552      26.91066      11.03871
-------------------------------------------------------------------------------
  Poissons Ratio (x)      =                     0.26243       0.28595
  Poissons Ratio (y)      =       0.18943                     0.12793
  Poissons Ratio (z)      =       0.50321       0.31186
-------------------------------------------------------------------------------


  Piezoelectric Strain Matrix: (Units=C/m**2)

-------------------------------------------------------------------------------
  Indices      1         2         3         4         5         6    
-------------------------------------------------------------------------------
       x     0.09015   0.16259   0.11054  -0.13825   0.38676   0.05784
       y    -0.09613  -0.18172  -0.20523   0.61893   0.39106  -0.02853
       z     0.29327  -0.17291  -1.21887   0.08530  -0.03837   0.10765
-------------------------------------------------------------------------------


  Piezoelectric Stress Matrix: (Units=10**-11 C/N)

-------------------------------------------------------------------------------
  Indices      1         2         3         4         5         6    
-------------------------------------------------------------------------------
       x    -0.06732   0.24596   0.65073  -2.28220   2.75228   0.19289
       y     0.38730  -0.26106  -1.44122   6.64062   1.48980  -0.08279
       z     4.70831   0.41244 -11.56177   1.19207  -0.44330  -0.20957
-------------------------------------------------------------------------------


  Static dielectric constant tensor : 

-------------------------------------------------------------------------------
              x         y         z
-------------------------------------------------------------------------------
       x     5.37265  -0.02577  -0.12036
       y    -0.02577   6.52540  -0.00871
       z    -0.12036  -0.00871   4.04424
--------------------------------------------------------------------------------

  High frequency dielectric constant tensor : 

-------------------------------------------------------------------------------
              x         y         z
-------------------------------------------------------------------------------
       x     1.54153   0.00274   0.00047
       y     0.00274   1.54737  -0.00021
       z     0.00047  -0.00021   1.50679
-------------------------------------------------------------------------------

  Static refractive indices : 

-------------------------------------------------------------------------------
    1 =    2.00833      2 =    2.32011      3 =    2.55460
-------------------------------------------------------------------------------

  High frequency refractive indices : 

-------------------------------------------------------------------------------
    1 =    1.22751      2 =    1.24115      3 =    1.24437
-------------------------------------------------------------------------------


  Time to end of optimisation =       8.8167 seconds


  Peak dynamic memory used =       5.01 MB 


  Timing analysis for GULP :

--------------------------------------------------------------------------------
  Task / Subroutine                                          Time (Seconds)
--------------------------------------------------------------------------------
  Calculation of reciprocal space energy and derivatives          0.6225
  Calculation of real space energy and derivatives                6.0610
  Calculation of three-body energy and derivatives                0.0597
  Calculation and manipulation of Hessian matrix                  2.4530
  Calculation of matrix inversion                                 0.0286
  Global summation overhead                                       0.0001
--------------------------------------------------------------------------------
  Total CPU time                                                  8.8167
--------------------------------------------------------------------------------


  Dump file written as c00047.vasp.grs
  CIF file written as c00047.vasp.cif


  Job Finished at 18:41.14 30th October    2025                               

