********************************************************************************
*                       GENERAL UTILITY LATTICE PROGRAM                        *
*                                 Julian Gale                                  *
*                       Curtin Institute for Computation                       *
*                    School of Molecular and Life Sciences                     *
*                    Curtin University, Western Australia                      *
********************************************************************************
* Version = 6.1.2 * Last modified =   3rd November 2022                        *
********************************************************************************
*  optimise     - perform optimisation run                                     *
*  conp         - constant pressure calculation                                *
*  property     - calculate properties for final geometry                      *
********************************************************************************

  Job Started  at 18:37.35 30th October    2025                               

  Number of CPUs =     1


  Total number of configurations input =      1

********************************************************************************
*  Input for Configuration =   1 : c00023.vasp                                 *
********************************************************************************

  Formula = Ge22Si2O48                                                  

  Number of irreducible atoms/shells =     120


  Total number atoms/shells =     120

  Dimensionality = 3               :  Bulk   



  Cartesian lattice vectors (Angstroms) :

       17.182800    0.000000    0.000000
        0.000000    7.513760    0.000000
        0.000000    0.000000   10.447700

  Cell parameters (Angstroms/Degrees):

  a =      17.1828    alpha =  90.0000
  b =       7.5138    beta  =  90.0000
  c =      10.4477    gamma =  90.0000

  Initial cell volume =        1348.875752 Angs**3

  Temperature of configuration =   0.00     K 

  Pressure of configuration =         0.000 GPa 

  Fractional coordinates of asymmetric unit :

--------------------------------------------------------------------------------
   No.  Atomic       x           y          z         Charge      Occupancy
        Label      (Frac)      (Frac)     (Frac)        (e)         (Frac)  
--------------------------------------------------------------------------------
      1 Ge    c    0.052090    0.000000    0.372270     4.00000    1.000000    
      2 Ge    c    0.447910 *  0.000000 *  0.372270 *   4.00000    1.000000    
      3 Ge    c    0.947910 *  0.000000 *  0.627730 *   4.00000    1.000000    
      4 Ge    c    0.552090 *  0.000000 *  0.627730 *   4.00000    1.000000    
      5 Ge    c    0.556730 *  0.000000 *  0.122130 *   4.00000    1.000000    
      6 Ge    c    0.943270 *  0.000000 *  0.122130 *   4.00000    1.000000    
      7 Ge    c    0.443270 *  0.000000 *  0.877870 *   4.00000    1.000000    
      8 Ge    c    0.160190 *  0.293910 *  0.273440 *   4.00000    1.000000    
      9 Ge    c    0.339810 *  0.706090 *  0.273440 *   4.00000    1.000000    
     10 Ge    c    0.839810 *  0.293910 *  0.726560 *   4.00000    1.000000    
     11 Ge    c    0.660190 *  0.706090 *  0.726560 *   4.00000    1.000000    
     12 Ge    c    0.839810 *  0.706090 *  0.726560 *   4.00000    1.000000    
     13 Ge    c    0.660190 *  0.293910 *  0.726560 *   4.00000    1.000000    
     14 Ge    c    0.160190 *  0.706090 *  0.273440 *   4.00000    1.000000    
     15 Ge    c    0.339810 *  0.293910 *  0.273440 *   4.00000    1.000000    
     16 Ge    c    0.660660 *  0.294090 *  0.017440 *   4.00000    1.000000    
     17 Ge    c    0.839340 *  0.705910 *  0.017440 *   4.00000    1.000000    
     18 Ge    c    0.339340 *  0.294090 *  0.982560 *   4.00000    1.000000    
     19 Ge    c    0.160660 *  0.705910 *  0.982560 *   4.00000    1.000000    
     20 Ge    c    0.339340 *  0.705910 *  0.982560 *   4.00000    1.000000    
     21 Ge    c    0.160660 *  0.294090 *  0.982560 *   4.00000    1.000000    
     22 Ge    c    0.660660 *  0.705910 *  0.017440 *   4.00000    1.000000    
     23 Si    c    0.056730 *  0.000000 *  0.877870 *   4.00000    1.000000    
     24 Si    c    0.839340 *  0.294090 *  0.017440 *   4.00000    1.000000    
     25 O1    c    0.106570 *  0.174340 *  0.366200 *   1.73396    1.000000    
     26 O1    c    0.393430 *  0.825660 *  0.366200 *   1.73396    1.000000    
     27 O1    c    0.893430 *  0.174340 *  0.633800 *   1.73396    1.000000    
     28 O1    c    0.606570 *  0.825660 *  0.633800 *   1.73396    1.000000    
     29 O1    c    0.893430 *  0.825660 *  0.633800 *   1.73396    1.000000    
     30 O1    c    0.606570 *  0.174340 *  0.633800 *   1.73396    1.000000    
     31 O1    c    0.106570 *  0.825660 *  0.366200 *   1.73396    1.000000    
     32 O1    c    0.393430 *  0.174340 *  0.366200 *   1.73396    1.000000    
     33 O1    c    0.000000 *  0.000000 *  0.500000 *   1.73396    1.000000    
     34 O1    c    0.500000 *  0.000000 *  0.500000 *   1.73396    1.000000    
     35 O1    c    0.994520 *  0.000000 *  0.250840 *   1.73396    1.000000    
     36 O1    c    0.505480 *  0.000000 *  0.250840 *   1.73396    1.000000    
     37 O3    c    0.005480 *  0.000000 *  0.749160 *   1.33043    1.000000    
     38 O1    c    0.494520 *  0.000000 *  0.749160 *   1.73396    1.000000    
     39 O1    c    0.610230 *  0.175520 *  0.115390 *   1.73396    1.000000    
     40 O1    c    0.889770 *  0.824480 *  0.115390 *   1.73396    1.000000    
     41 O1    c    0.389770 *  0.175520 *  0.884610 *   1.73396    1.000000    
     42 O3    c    0.110230 *  0.824480 *  0.884610 *   1.33043    1.000000    
     43 O1    c    0.389770 *  0.824480 *  0.884610 *   1.73396    1.000000    
     44 O3    c    0.110230 *  0.175520 *  0.884610 *   1.33043    1.000000    
     45 O1    c    0.610230 *  0.824480 *  0.115390 *   1.73396    1.000000    
     46 O3    c    0.889770 *  0.175520 *  0.115390 *   1.33043    1.000000    
     47 O1    c    0.500000 *  0.000000 *  0.000000 *   1.73396    1.000000    
     48 O3    c    0.000000 *  0.000000 *  0.000000 *   1.33043    1.000000    
     49 O1    c    0.151750 *  0.500000 *  0.313330 *   1.73396    1.000000    
     50 O1    c    0.348250 *  0.500000 *  0.313330 *   1.73396    1.000000    
     51 O1    c    0.848250 *  0.500000 *  0.686670 *   1.73396    1.000000    
     52 O1    c    0.651750 *  0.500000 *  0.686670 *   1.73396    1.000000    
     53 O1    c    0.250000 *  0.234950 *  0.285720 *   1.73396    1.000000    
     54 O1    c    0.250000 *  0.765050 *  0.285720 *   1.73396    1.000000    
     55 O1    c    0.750000 *  0.234950 *  0.714280 *   1.73396    1.000000    
     56 O1    c    0.750000 *  0.765050 *  0.714280 *   1.73396    1.000000    
     57 O1    c    0.131410 *  0.268650 *  0.127790 *   1.73396    1.000000    
     58 O1    c    0.368590 *  0.731350 *  0.127790 *   1.73396    1.000000    
     59 O3    c    0.868590 *  0.268650 *  0.872210 *   1.33043    1.000000    
     60 O1    c    0.631410 *  0.731350 *  0.872210 *   1.73396    1.000000    
     61 O1    c    0.868590 *  0.731350 *  0.872210 *   1.73396    1.000000    
     62 O1    c    0.631410 *  0.268650 *  0.872210 *   1.73396    1.000000    
     63 O1    c    0.131410 *  0.731350 *  0.127790 *   1.73396    1.000000    
     64 O1    c    0.368590 *  0.268650 *  0.127790 *   1.73396    1.000000    
     65 O1    c    0.653920 *  0.500000 *  0.058200 *   1.73396    1.000000    
     66 O3    c    0.846080 *  0.500000 *  0.058200 *   1.33043    1.000000    
     67 O1    c    0.346080 *  0.500000 *  0.941800 *   1.73396    1.000000    
     68 O1    c    0.153920 *  0.500000 *  0.941800 *   1.73396    1.000000    
     69 O3    c    0.750000 *  0.231060 *  0.027050 *   1.33043    1.000000    
     70 O1    c    0.750000 *  0.768940 *  0.027050 *   1.73396    1.000000    
     71 O1    c    0.250000 *  0.231060 *  0.972950 *   1.73396    1.000000    
     72 O1    c    0.250000 *  0.768940 *  0.972950 *   1.73396    1.000000    
     73 O1    s    0.106570 *  0.174340 *  0.366200 *  -3.73396    1.000000    
     74 O1    s    0.393430 *  0.825660 *  0.366200 *  -3.73396    1.000000    
     75 O1    s    0.893430 *  0.174340 *  0.633800 *  -3.73396    1.000000    
     76 O1    s    0.606570 *  0.825660 *  0.633800 *  -3.73396    1.000000    
     77 O1    s    0.893430 *  0.825660 *  0.633800 *  -3.73396    1.000000    
     78 O1    s    0.606570 *  0.174340 *  0.633800 *  -3.73396    1.000000    
     79 O1    s    0.106570 *  0.825660 *  0.366200 *  -3.73396    1.000000    
     80 O1    s    0.393430 *  0.174340 *  0.366200 *  -3.73396    1.000000    
     81 O1    s    0.000000 *  0.000000 *  0.500000 *  -3.73396    1.000000    
     82 O1    s    0.500000 *  0.000000 *  0.500000 *  -3.73396    1.000000    
     83 O1    s    0.994520 *  0.000000 *  0.250840 *  -3.73396    1.000000    
     84 O1    s    0.505480 *  0.000000 *  0.250840 *  -3.73396    1.000000    
     85 O3    s    0.005480 *  0.000000 *  0.749160 *  -3.33043    1.000000    
     86 O1    s    0.494520 *  0.000000 *  0.749160 *  -3.73396    1.000000    
     87 O1    s    0.610230 *  0.175520 *  0.115390 *  -3.73396    1.000000    
     88 O1    s    0.889770 *  0.824480 *  0.115390 *  -3.73396    1.000000    
     89 O1    s    0.389770 *  0.175520 *  0.884610 *  -3.73396    1.000000    
     90 O3    s    0.110230 *  0.824480 *  0.884610 *  -3.33043    1.000000    
     91 O1    s    0.389770 *  0.824480 *  0.884610 *  -3.73396    1.000000    
     92 O3    s    0.110230 *  0.175520 *  0.884610 *  -3.33043    1.000000    
     93 O1    s    0.610230 *  0.824480 *  0.115390 *  -3.73396    1.000000    
     94 O3    s    0.889770 *  0.175520 *  0.115390 *  -3.33043    1.000000    
     95 O1    s    0.500000 *  0.000000 *  0.000000 *  -3.73396    1.000000    
     96 O3    s    0.000000 *  0.000000 *  0.000000 *  -3.33043    1.000000    
     97 O1    s    0.151750 *  0.500000 *  0.313330 *  -3.73396    1.000000    
     98 O1    s    0.348250 *  0.500000 *  0.313330 *  -3.73396    1.000000    
     99 O1    s    0.848250 *  0.500000 *  0.686670 *  -3.73396    1.000000    
    100 O1    s    0.651750 *  0.500000 *  0.686670 *  -3.73396    1.000000    
    101 O1    s    0.250000 *  0.234950 *  0.285720 *  -3.73396    1.000000    
    102 O1    s    0.250000 *  0.765050 *  0.285720 *  -3.73396    1.000000    
    103 O1    s    0.750000 *  0.234950 *  0.714280 *  -3.73396    1.000000    
    104 O1    s    0.750000 *  0.765050 *  0.714280 *  -3.73396    1.000000    
    105 O1    s    0.131410 *  0.268650 *  0.127790 *  -3.73396    1.000000    
    106 O1    s    0.368590 *  0.731350 *  0.127790 *  -3.73396    1.000000    
    107 O3    s    0.868590 *  0.268650 *  0.872210 *  -3.33043    1.000000    
    108 O1    s    0.631410 *  0.731350 *  0.872210 *  -3.73396    1.000000    
    109 O1    s    0.868590 *  0.731350 *  0.872210 *  -3.73396    1.000000    
    110 O1    s    0.631410 *  0.268650 *  0.872210 *  -3.73396    1.000000    
    111 O1    s    0.131410 *  0.731350 *  0.127790 *  -3.73396    1.000000    
    112 O1    s    0.368590 *  0.268650 *  0.127790 *  -3.73396    1.000000    
    113 O1    s    0.653920 *  0.500000 *  0.058200 *  -3.73396    1.000000    
    114 O3    s    0.846080 *  0.500000 *  0.058200 *  -3.33043    1.000000    
    115 O1    s    0.346080 *  0.500000 *  0.941800 *  -3.73396    1.000000    
    116 O1    s    0.153920 *  0.500000 *  0.941800 *  -3.73396    1.000000    
    117 O3    s    0.750000 *  0.231060 *  0.027050 *  -3.33043    1.000000    
    118 O1    s    0.750000 *  0.768940 *  0.027050 *  -3.73396    1.000000    
    119 O1    s    0.250000 *  0.231060 *  0.972950 *  -3.73396    1.000000    
    120 O1    s    0.250000 *  0.768940 *  0.972950 *  -3.73396    1.000000    
--------------------------------------------------------------------------------



********************************************************************************
*  General input information                                                   *
********************************************************************************

  Species output for all configurations : 

--------------------------------------------------------------------------------
  Species    Type    Atomic    Atomic    Charge       Radii (Angs)     Library
                     Number     Mass       (e)     Cova   Ionic  VDW   Symbol
--------------------------------------------------------------------------------
    Ge       Core       32      72.61   4.000000   1.170  0.000  1.750 Ge       
    Si       Core       14      28.09   4.000000   1.200  0.000  2.100 Si       
    O1       Core        8      16.00   1.733957   0.730  0.000  1.360 O1       
    O2       Core        8      16.00   0.870733   0.730  0.000  0.000 O2       
    O3       Core        8      16.00   1.330431   0.730  0.000  1.360 O3       
    O1       Shell       8       0.00  -3.733957   0.730  0.000  0.000 O1       
    O2       Shell       8       0.00  -2.870733   0.730  0.000  0.000 O2       
    O3       Shell       8       0.00  -3.330431   0.730  0.000  0.000 O3       
--------------------------------------------------------------------------------


  Lattice summation method               =    Ewald          (3-D)
                                         =    Parry          (2-D)
                                         =    Saunders et al (1-D)
  Accuracy factor for lattice sums       =   12.000


  Analytic derivatives to be used

  Time limit = Infinity

  Maximum range for interatomic potentials =    100000.000000 Angstroms

  General interatomic potentials :

--------------------------------------------------------------------------------
Atom  Types   Potential      Parameter       Value         Units   Cutoffs(Ang)
  1     2                                                            Min /  Max 
--------------------------------------------------------------------------------
Si   c O1   s Buckingham    Buckingham A     1315.2478    eV        0.000 16.000
                            Buckingham rho  0.31775900    Ang       
                            Buckingham C     10.141118    eV*Ang^6  
--------------------------------------------------------------------------------
Si   c O2   s Buckingham    Buckingham A     1315.2478    eV        0.000 16.000
                            Buckingham rho  0.31775900    Ang       
                            Buckingham C     10.141118    eV*Ang^6  
--------------------------------------------------------------------------------
Si   c O3   s Buckingham    Buckingham A     1315.2478    eV        0.000 16.000
                            Buckingham rho  0.31775900    Ang       
                            Buckingham C     10.141118    eV*Ang^6  
--------------------------------------------------------------------------------
Ge   c O1   s Buckingham    Buckingham A     1497.3996    eV        0.000 16.000
                            Buckingham rho  0.32564600    Ang       
                            Buckingham C     16.808599    eV*Ang^6  
--------------------------------------------------------------------------------
Ge   c O2   s Buckingham    Buckingham A     1497.3996    eV        0.000 16.000
                            Buckingham rho  0.32564600    Ang       
                            Buckingham C     16.808599    eV*Ang^6  
--------------------------------------------------------------------------------
Ge   c O3   s Buckingham    Buckingham A     1497.3996    eV        0.000 16.000
                            Buckingham rho  0.32564600    Ang       
                            Buckingham C     16.808599    eV*Ang^6  
--------------------------------------------------------------------------------
O1   s O1   s Buckingham    Buckingham A     22764.000    eV        0.000 16.000
                            Buckingham rho  0.14900000    Ang       
                            Buckingham C     10.937044    eV*Ang^6  
--------------------------------------------------------------------------------
O1   s O2   s Buckingham    Buckingham A     22764.000    eV        0.000 16.000
                            Buckingham rho  0.14900000    Ang       
                            Buckingham C     10.937044    eV*Ang^6  
--------------------------------------------------------------------------------
O1   s O3   s Buckingham    Buckingham A     22764.000    eV        0.000 16.000
                            Buckingham rho  0.14900000    Ang       
                            Buckingham C     10.937044    eV*Ang^6  
--------------------------------------------------------------------------------
O2   s O2   s Buckingham    Buckingham A     22764.000    eV        0.000 16.000
                            Buckingham rho  0.14900000    Ang       
                            Buckingham C     10.937044    eV*Ang^6  
--------------------------------------------------------------------------------
O2   s O3   s Buckingham    Buckingham A     22764.000    eV        0.000 16.000
                            Buckingham rho  0.14900000    Ang       
                            Buckingham C     10.937044    eV*Ang^6  
--------------------------------------------------------------------------------
O3   s O3   s Buckingham    Buckingham A     22764.000    eV        0.000 16.000
                            Buckingham rho  0.14900000    Ang       
                            Buckingham C     10.937044    eV*Ang^6  
--------------------------------------------------------------------------------
O1   c O1   s Spring (c-s)  Spring k 2       180.31577    eV*Ang^-2 0.000  0.800
                            Spring k 4       0.0000000    eV*Ang^-4 
--------------------------------------------------------------------------------
O2   c O2   s Spring (c-s)  Spring k 2       75.969800    eV*Ang^-2 0.000  0.800
                            Spring k 4       0.0000000    eV*Ang^-4 
--------------------------------------------------------------------------------
O3   c O3   s Spring (c-s)  Spring k 2       128.14270    eV*Ang^-2 0.000  0.800
                            Spring k 4       0.0000000    eV*Ang^-4 
--------------------------------------------------------------------------------

  General Three-body potentials :

--------------------------------------------------------------------------------
  Atoms       Potential      Parameter       Value         Units   Cutoffs(Ang)
  1 / 2 / 3                                                          Min /  Max 
--------------------------------------------------------------------------------
Si    core    Harmonic      Three-body cnst  1.2614000    eV*rad^-2 0.000  1.900
O1    shel                  Three-body angl  109.47000    degrees   0.000  1.900
O1    shel                  Three-body k4    0.0000000    eV*rad^-4 0.000  3.500
                            Three-body k3    0.0000000    eV*rad^-3 
--------------------------------------------------------------------------------
Si    core    Harmonic      Three-body cnst  1.2614000    eV*rad^-2 0.000  1.900
O1    shel                  Three-body angl  109.47000    degrees   0.000  1.900
õ(1   shel                  Three-body k4    0.0000000    eV*rad^-4 0.000  3.500
                            Three-body k3    0.0000000    eV*rad^-3 
--------------------------------------------------------------------------------
Si    core    Harmonic      Three-body cnst  1.2614000    eV*rad^-2 0.000  1.900
õ(1   shel                  Three-body angl  109.47000    degrees   0.000  1.900
õ(1   shel                  Three-body k4    0.0000000    eV*rad^-4 0.000  3.500
                            Three-body k3    0.0000000    eV*rad^-3 
--------------------------------------------------------------------------------
Si    core    Harmonic      Three-body cnst  1.2614000    eV*rad^-2 0.000  1.900
O1    shel                  Three-body angl  109.47000    degrees   0.000  1.900
O2    shel                  Three-body k4    0.0000000    eV*rad^-4 0.000  3.500
                            Three-body k3    0.0000000    eV*rad^-3 
--------------------------------------------------------------------------------
Si    core    Harmonic      Three-body cnst  1.2614000    eV*rad^-2 0.000  1.900
O1    shel                  Three-body angl  109.47000    degrees   0.000  1.900
õ(2   shel                  Three-body k4    0.0000000    eV*rad^-4 0.000  3.500
                            Three-body k3    0.0000000    eV*rad^-3 
--------------------------------------------------------------------------------
Si    core    Harmonic      Three-body cnst  1.2614000    eV*rad^-2 0.000  1.900
O2    shel                  Three-body angl  109.47000    degrees   0.000  1.900
õ(1   shel                  Three-body k4    0.0000000    eV*rad^-4 0.000  3.500
                            Three-body k3    0.0000000    eV*rad^-3 
--------------------------------------------------------------------------------
Si    core    Harmonic      Three-body cnst  1.2614000    eV*rad^-2 0.000  1.900
õ(1   shel                  Three-body angl  109.47000    degrees   0.000  1.900
õ(2   shel                  Three-body k4    0.0000000    eV*rad^-4 0.000  3.500
                            Three-body k3    0.0000000    eV*rad^-3 
--------------------------------------------------------------------------------
Si    core    Harmonic      Three-body cnst  1.2614000    eV*rad^-2 0.000  1.900
O2    shel                  Three-body angl  109.47000    degrees   0.000  1.900
O2    shel                  Three-body k4    0.0000000    eV*rad^-4 0.000  3.500
                            Three-body k3    0.0000000    eV*rad^-3 
--------------------------------------------------------------------------------
Si    core    Harmonic      Three-body cnst  1.2614000    eV*rad^-2 0.000  1.900
O2    shel                  Three-body angl  109.47000    degrees   0.000  1.900
õ(2   shel                  Three-body k4    0.0000000    eV*rad^-4 0.000  3.500
                            Three-body k3    0.0000000    eV*rad^-3 
--------------------------------------------------------------------------------
Si    core    Harmonic      Three-body cnst  1.2614000    eV*rad^-2 0.000  1.900
õ(2   shel                  Three-body angl  109.47000    degrees   0.000  1.900
õ(2   shel                  Three-body k4    0.0000000    eV*rad^-4 0.000  3.500
                            Three-body k3    0.0000000    eV*rad^-3 
--------------------------------------------------------------------------------

********************************************************************************
*  Output for configuration   1 : c00023.vasp                                  *
********************************************************************************


  Components of energy : 

--------------------------------------------------------------------------------
  Interatomic potentials     =         912.58247585 eV    
  Three-body potentials      =           0.00000000 eV    
  Monopole - monopole (real) =       -2676.00317478 eV    
  Monopole - monopole (recip)=       -1115.35404472 eV    
  Monopole - monopole (total)=       -3791.35721950 eV    
--------------------------------------------------------------------------------
  Total lattice energy       =       -2878.77474365 eV    
--------------------------------------------------------------------------------
  Total lattice energy       =         -277757.7567 kJ/(mole unit cells)
--------------------------------------------------------------------------------


  Number of variables =      363

  Maximum number of calculations  =          1000
  Maximum Hessian update interval =            10
  Maximum step size               =   0.100000000
  Maximum parameter tolerance     =   0.000010000
  Maximum function  tolerance     =   0.000010000
  Maximum gradient  tolerance     =   0.001000000
  Maximum gradient  component     =   0.010000000

  Symmetry not applied to optimisation

  Cell parameters to be optimised using strains

  Newton-Raphson optimiser to be used

  BFGS hessian update to be used

  Lower half triangular hessian to be used

  Minimiser to switch to RFO
  When gradient norm is less than     0.050000

  Dumpfile to be written after every cycle

  Start of bulk optimisation :

  Cycle:      0 Energy:     -2878.774744  Gnorm:      6.012936  CPU:    0.096
  ** Hessian calculated **
  Cycle:      1 Energy:     -2924.655023  Gnorm:      1.458984  CPU:    0.225
  ** Hessian calculated **
  Cycle:      2 Energy:     -2929.950894  Gnorm:      0.781936  CPU:    0.416
  Cycle:      3 Energy:     -2930.811909  Gnorm:      0.307747  CPU:    0.505
  Cycle:      4 Energy:     -2931.096375  Gnorm:      0.247453  CPU:    0.613
  Cycle:      5 Energy:     -2931.451854  Gnorm:      0.210181  CPU:    0.719
  Cycle:      6 Energy:     -2931.845991  Gnorm:      0.184017  CPU:    0.826
  Cycle:      7 Energy:     -2932.088728  Gnorm:      0.139452  CPU:    0.916
  Cycle:      8 Energy:     -2932.173158  Gnorm:      0.096785  CPU:    1.006
  Cycle:      9 Energy:     -2932.210216  Gnorm:      0.073294  CPU:    1.112
  Cycle:     10 Energy:     -2932.236270  Gnorm:      0.065163  CPU:    1.218
  Cycle:     11 Energy:     -2932.263376  Gnorm:      0.067436  CPU:    1.325
  ** Hessian calculated **
  Cycle:     12 Energy:     -2932.274694  Gnorm:      0.066481  CPU:    1.518
  Cycle:     13 Energy:     -2932.292856  Gnorm:      0.064859  CPU:    1.641
  Cycle:     14 Energy:     -2932.315980  Gnorm:      0.062527  CPU:    1.763
  Cycle:     15 Energy:     -2932.331969  Gnorm:      0.060485  CPU:    1.868
  ** Hessian calculated **
  Cycle:     16 Energy:     -2932.362095  Gnorm:      0.058377  CPU:    2.061
  Cycle:     17 Energy:     -2932.421990  Gnorm:      0.053785  CPU:    2.183
  Cycle:     18 Energy:     -2932.533884  Gnorm:      0.038763  CPU:    2.289
  ** Hessian has wrong structure
  ** Imaginary eigenvectors =   5
  Cycle:     19 Energy:     -2932.588032  Gnorm:      0.072727  CPU:    2.529
  ** Hessian has wrong structure
  ** Imaginary eigenvectors =   4
  ** Hessian has wrong structure
  ** Imaginary eigenvectors =   3
  Cycle:     20 Energy:     -2932.631808  Gnorm:      0.084719  CPU:    3.036
  ** Hessian has wrong structure
  ** Imaginary eigenvectors =   2
  Cycle:     21 Energy:     -2932.722958  Gnorm:      0.121193  CPU:    3.333
  ** Hessian has required structure
  Cycle:     22 Energy:     -2933.013926  Gnorm:      0.103553  CPU:    3.545
  ** Hessian has required structure
  Cycle:     23 Energy:     -2933.198717  Gnorm:      0.060596  CPU:    3.677
  ** Hessian has required structure
  Cycle:     24 Energy:     -2933.288364  Gnorm:      0.065011  CPU:    3.820
  ** Hessian has required structure
  Cycle:     25 Energy:     -2933.339109  Gnorm:      0.060395  CPU:    3.964
  ** Hessian has required structure
  Cycle:     26 Energy:     -2933.382784  Gnorm:      0.054765  CPU:    4.108
  ** Hessian has required structure
  Cycle:     27 Energy:     -2933.406601  Gnorm:      0.035312  CPU:    4.235
  ** Hessian has required structure
  Cycle:     28 Energy:     -2933.426785  Gnorm:      0.044604  CPU:    4.394
  ** Hessian has required structure
  Cycle:     29 Energy:     -2933.439014  Gnorm:      0.032745  CPU:    4.520
  ** Hessian has required structure
  Cycle:     30 Energy:     -2933.444103  Gnorm:      0.024864  CPU:    4.653
  ** Hessian has required structure
  Cycle:     31 Energy:     -2933.448422  Gnorm:      0.013070  CPU:    4.798
  ** Hessian has required structure
  Cycle:     32 Energy:     -2933.451838  Gnorm:      0.006637  CPU:    5.021
  ** Hessian has required structure
  Cycle:     33 Energy:     -2933.452720  Gnorm:      0.003422  CPU:    5.166
  ** Hessian has required structure
  Cycle:     34 Energy:     -2933.452955  Gnorm:      0.001733  CPU:    5.312
  ** Hessian has required structure
  Cycle:     35 Energy:     -2933.453007  Gnorm:      0.001047  CPU:    5.455
  ** Hessian has required structure
  Cycle:     36 Energy:     -2933.453028  Gnorm:      0.000630  CPU:    5.599
  ** Hessian has required structure
  Cycle:     37 Energy:     -2933.453037  Gnorm:      0.000316  CPU:    5.759
  ** Hessian has required structure
  Cycle:     38 Energy:     -2933.453038  Gnorm:      0.000221  CPU:    5.886
  ** Hessian has required structure
  Cycle:     39 Energy:     -2933.453039  Gnorm:      0.000155  CPU:    6.001
  ** Hessian has required structure
  Cycle:     40 Energy:     -2933.453039  Gnorm:      0.000140  CPU:    6.119
  ** Hessian has required structure
  Cycle:     41 Energy:     -2933.453039  Gnorm:      0.000142  CPU:    6.306
  ** Hessian has required structure
  Cycle:     42 Energy:     -2933.453039  Gnorm:      0.000143  CPU:    6.579
  ** Hessian calculated **


  **** Optimisation achieved ****


  Final energy =   -2933.45303925 eV      
  Final Gnorm  =       0.00014355

  Components of energy : 

--------------------------------------------------------------------------------
  Interatomic potentials     =         772.86490158 eV    
  Three-body potentials      =           0.00000000 eV    
  Monopole - monopole (real) =       -1488.90206020 eV    
  Monopole - monopole (recip)=       -2217.41588062 eV    
  Monopole - monopole (total)=       -3706.31794083 eV    
--------------------------------------------------------------------------------
  Total lattice energy       =       -2933.45303925 eV    
--------------------------------------------------------------------------------
  Total lattice energy       =         -283033.3764 kJ/(mole unit cells)
--------------------------------------------------------------------------------

  Final fractional coordinates of atoms :

--------------------------------------------------------------------------------
   No.  Atomic        x           y          z          Radius
        Label       (Frac)      (Frac)     (Frac)       (Angs) 
--------------------------------------------------------------------------------
     1  Ge    c     0.052090    0.000000    0.372270    0.000000
     2  Ge    c     0.446768    0.052520    0.369816    0.000000
     3  Ge    c     0.950717    0.051610    0.628150    0.000000
     4  Ge    c     0.549569    0.995025    0.623496    0.000000
     5  Ge    c     0.554842    0.989647    0.127668    0.000000
     6  Ge    c     0.942874    0.050196    0.124529    0.000000
     7  Ge    c     0.448172    0.055716    0.877863    0.000000
     8  Ge    c     0.173159    0.285666    0.262622    0.000000
     9  Ge    c     0.324365    0.766997    0.256682    0.000000
    10  Ge    c     0.852613    0.363809    0.699303    0.000000
    11  Ge    c     0.647088    0.680892    0.697244    0.000000
    12  Ge    c     0.827388    0.767099    0.703023    0.000000
    13  Ge    c     0.673374    0.278349    0.697148    0.000000
    14  Ge    c     0.142970    0.684346    0.258274    0.000000
    15  Ge    c     0.354288    0.367166    0.254024    0.000000
    16  Ge    c     0.674179    0.275519    0.010982    0.000000
    17  Ge    c     0.827064    0.753654    0.015060    0.000000
    18  Ge    c     0.346237    0.364763    0.939004    0.000000
    19  Ge    c     0.142798    0.685274    0.944918    0.000000
    20  Ge    c     0.323944    0.765596    0.944033    0.000000
    21  Ge    c     0.165158    0.284255    0.949141    0.000000
    22  Ge    c     0.644792    0.674873    0.011661    0.000000
    23  Si    c     0.046830    0.994464    0.882369    0.000000
    24  Si    c     0.851745    0.358969    0.006271    0.000000
    25  O1    c     0.129859    0.132802    0.355820    0.000000
    26  O1    c     0.369540    0.919547    0.347320    0.000000
    27  O1    c     0.918619    0.255604    0.614019    0.000000
    28  O1    c     0.583190    0.793256    0.606634    0.000000
    29  O1    c     0.876203    0.908433    0.606764    0.000000
    30  O1    c     0.623043    0.140825    0.600441    0.000000
    31  O1    c     0.075990    0.794354    0.339955    0.000000
    32  O1    c     0.422931    0.258467    0.335846    0.000000
    33  O1    c     0.024898    0.011789    0.531520    0.000000
    34  O1    c     0.472475    0.036625    0.530456    0.000000
    35  O1    c     0.975699    0.061353    0.280572    0.000000
    36  O1    c     0.525688    0.994988    0.285491    0.000000
    37  O3    c     0.976732    0.028926    0.790059    0.000000
    38  O1    c     0.523524    0.015402    0.783643    0.000000
    39  O1    c     0.634028    0.119243    0.104653    0.000000
    40  O1    c     0.872961    0.894887    0.115516    0.000000
    41  O1    c     0.409946    0.252996    0.851771    0.000000
    42  O3    c     0.079645    0.807647    0.858108    0.000000
    43  O1    c     0.375553    0.907468    0.853666    0.000000
    44  O3    c     0.113692    0.136094    0.860498    0.000000
    45  O1    c     0.577824    0.783332    0.094042    0.000000
    46  O3    c     0.912307    0.252032    0.086221    0.000000
    47  O1    c     0.479273    0.054797    0.036481    0.000000
    48  O3    c     0.019980    0.999994    0.031084    0.000000
    49  O1    c     0.156568    0.485657    0.322720    0.000000
    50  O1    c     0.342790    0.566507    0.316449    0.000000
    51  O1    c     0.841153    0.565103    0.642721    0.000000
    52  O1    c     0.660404    0.482437    0.638196    0.000000
    53  O1    c     0.269092    0.254454    0.261076    0.000000
    54  O1    c     0.228270    0.797216    0.258806    0.000000
    55  O1    c     0.769116    0.244490    0.693373    0.000000
    56  O1    c     0.731375    0.798621    0.701398    0.000000
    57  O1    c     0.137536    0.273715    0.107628    0.000000
    58  O1    c     0.357086    0.780341    0.100791    0.000000
    59  O3    c     0.879733    0.384655    0.860126    0.000000
    60  O1    c     0.615913    0.658574    0.853442    0.000000
    61  O1    c     0.858902    0.783391    0.860591    0.000000
    62  O1    c     0.641896    0.261168    0.854280    0.000000
    63  O1    c     0.113676    0.657356    0.101396    0.000000
    64  O1    c     0.378810    0.389569    0.095132    0.000000
    65  O1    c     0.653049    0.471850    0.071637    0.000000
    66  O3    c     0.841515    0.544770    0.066499    0.000000
    67  O1    c     0.334505    0.565263    0.879574    0.000000
    68  O1    c     0.150883    0.484921    0.884092    0.000000
    69  O3    c     0.771848    0.253834    0.006819    0.000000
    70  O1    c     0.730956    0.783169    0.019175    0.000000
    71  O1    c     0.261005    0.250838    0.942677    0.000000
    72  O1    c     0.228088    0.797891    0.945765    0.000000
    73  O1    s     0.127229    0.134513    0.349769    0.000000
    74  O1    s     0.371996    0.917888    0.341932    0.000000
    75  O1    s     0.916033    0.248703    0.621420    0.000000
    76  O1    s     0.585406    0.799843    0.614508    0.000000
    77  O1    s     0.877973    0.908205    0.615661    0.000000
    78  O1    s     0.621520    0.140707    0.609509    0.000000
    79  O1    s     0.079288    0.801420    0.336174    0.000000
    80  O1    s     0.419530    0.251248    0.332213    0.000000
    81  O1    s     0.020827    0.014160    0.527671    0.000000
    82  O1    s     0.476710    0.034511    0.526138    0.000000
    83  O1    s     0.978905    0.055944    0.275723    0.000000
    84  O1    s     0.522038    0.998846    0.280105    0.000000
    85  O3    s     0.981965    0.027131    0.787417    0.000000
    86  O1    s     0.519349    0.017130    0.779855    0.000000
    87  O1    s     0.631288    0.121870    0.099021    0.000000
    88  O1    s     0.874758    0.895846    0.108470    0.000000
    89  O1    s     0.407924    0.247218    0.860158    0.000000
    90  O3    s     0.081493    0.815434    0.867037    0.000000
    91  O1    s     0.376804    0.907162    0.862468    0.000000
    92  O3    s     0.111588    0.134801    0.869617    0.000000
    93  O1    s     0.581241    0.790329    0.090229    0.000000
    94  O3    s     0.908683    0.246680    0.081277    0.000000
    95  O1    s     0.482661    0.050007    0.031995    0.000000
    96  O3    s     0.016482    0.003374    0.024709    0.000000
    97  O1    s     0.156742    0.486048    0.313639    0.000000
    98  O1    s     0.342325    0.566156    0.307532    0.000000
    99  O1    s     0.841068    0.563692    0.651437    0.000000
   100  O1    s     0.660294    0.483359    0.646980    0.000000
   101  O1    s     0.268093    0.265002    0.260669    0.000000
   102  O1    s     0.229246    0.786753    0.258596    0.000000
   103  O1    s     0.768018    0.255614    0.694105    0.000000
   104  O1    s     0.732496    0.787915    0.701242    0.000000
   105  O1    s     0.142195    0.275359    0.107223    0.000000
   106  O1    s     0.352321    0.778336    0.100879    0.000000
   107  O3    s     0.874963    0.380609    0.861799    0.000000
   108  O1    s     0.620366    0.661435    0.853640    0.000000
   109  O1    s     0.854205    0.779988    0.860774    0.000000
   110  O1    s     0.646526    0.263451    0.854498    0.000000
   111  O1    s     0.118072    0.661469    0.101444    0.000000
   112  O1    s     0.374555    0.386068    0.095703    0.000000
   113  O1    s     0.653977    0.472480    0.062760    0.000000
   114  O3    s     0.841418    0.542620    0.056928    0.000000
   115  O1    s     0.334648    0.564171    0.888732    0.000000
   116  O1    s     0.151269    0.485952    0.893249    0.000000
   117  O3    s     0.771751    0.265315    0.007081    0.000000
   118  O1    s     0.731833    0.772990    0.018309    0.000000
   119  O1    s     0.260006    0.261455    0.942913    0.000000
   120  O1    s     0.229084    0.787262    0.945595    0.000000
--------------------------------------------------------------------------------

  Final Cartesian lattice vectors (Angstroms) :

       17.596363   -0.222447   -0.064608
       -0.099077    7.856674    0.025790
       -0.040025    0.036054   10.356845


  Final cell parameters and derivatives :

--------------------------------------------------------------------------------
       a           17.597887 Angstrom     dE/de1(xx)     0.010790 eV/strain
       b            7.857341 Angstrom     dE/de2(yy)     0.013134 eV/strain
       c           10.356985 Angstrom     dE/de3(zz)     0.005356 eV/strain
       alpha       89.609708 Degrees      dE/de4(yz)    -0.000038 eV/strain
       beta        90.434281 Degrees      dE/de5(xz)     0.000198 eV/strain
       gamma       91.447438 Degrees      dE/de6(xy)     0.000661 eV/strain
--------------------------------------------------------------------------------

  Primitive cell volume =          1431.557865 Angs**3

  Density of cell =      2.808986 g/cm**3

  Non-primitive cell volume =          1431.557865 Angs**3


  Final internal derivatives :

--------------------------------------------------------------------------------
   No.  Atomic          a             b             c           Radius
        Label          (eV)          (eV)          (eV)        (eV/Angs)
--------------------------------------------------------------------------------
      1 Ge    c       0.000000      0.000000      0.000000      0.000000
      2 Ge    c       0.000928     -0.001118     -0.000333      0.000000
      3 Ge    c       0.004801      0.001565      0.002018      0.000000
      4 Ge    c      -0.000373     -0.000648      0.000259      0.000000
      5 Ge    c       0.001768      0.001269      0.002593      0.000000
      6 Ge    c       0.002226     -0.000300      0.000123      0.000000
      7 Ge    c      -0.007060      0.000915     -0.000950      0.000000
      8 Ge    c      -0.002540     -0.001486      0.000081      0.000000
      9 Ge    c       0.002551      0.001584      0.001258      0.000000
     10 Ge    c       0.006026     -0.002281     -0.000075      0.000000
     11 Ge    c      -0.002460      0.001451     -0.000792      0.000000
     12 Ge    c       0.002842      0.001270     -0.000610      0.000000
     13 Ge    c      -0.003804     -0.001862     -0.000596      0.000000
     14 Ge    c       0.001700      0.000302     -0.000980      0.000000
     15 Ge    c      -0.002237      0.000156     -0.000307      0.000000
     16 Ge    c      -0.004474     -0.001166      0.001237      0.000000
     17 Ge    c       0.002771      0.001060      0.000158      0.000000
     18 Ge    c       0.007204     -0.002831     -0.001817      0.000000
     19 Ge    c      -0.005410      0.001108     -0.000407      0.000000
     20 Ge    c       0.003523      0.002217     -0.003034      0.000000
     21 Ge    c      -0.002081     -0.001226     -0.001119      0.000000
     22 Ge    c       0.001610      0.000215     -0.001990      0.000000
     23 Si    c      -0.003861     -0.001758     -0.000692      0.000000
     24 Si    c       0.002985     -0.000065     -0.001565      0.000000
     25 O1    c       0.011764      0.004658     -0.000980      0.000000
     26 O1    c      -0.008669     -0.004250     -0.001355      0.000000
     27 O1    c      -0.004757     -0.000520      0.002033      0.000000
     28 O1    c      -0.000361     -0.001391     -0.000966      0.000000
     29 O1    c      -0.004148     -0.002505      0.001941      0.000000
     30 O1    c       0.005086      0.003786      0.002199      0.000000
     31 O1    c      -0.004203     -0.002212      0.000600      0.000000
     32 O1    c       0.004290      0.003311      0.001257      0.000000
     33 O1    c      -0.003535      0.000824      0.002047      0.000000
     34 O1    c       0.001706     -0.000667      0.001727      0.000000
     35 O1    c       0.001936      0.000313      0.000702      0.000000
     36 O1    c       0.001881      0.000008      0.001638      0.000000
     37 O3    c       0.007473     -0.001132      0.001542      0.000000
     38 O1    c       0.003698      0.001558     -0.000497      0.000000
     39 O1    c       0.015719      0.004018     -0.003800      0.000000
     40 O1    c      -0.004440     -0.004194     -0.000537      0.000000
     41 O1    c      -0.001946     -0.000002      0.002071      0.000000
     42 O3    c      -0.000395      0.000787      0.000508      0.000000
     43 O1    c      -0.000005     -0.000698      0.004484      0.000000
     44 O3    c       0.005817      0.001995      0.001692      0.000000
     45 O1    c      -0.003461     -0.006756      0.000366      0.000000
     46 O3    c      -0.002177      0.002051      0.000772      0.000000
     47 O1    c      -0.015093      0.000703     -0.001619      0.000000
     48 O3    c       0.002002     -0.000005     -0.001566      0.000000
     49 O1    c      -0.000885      0.000531      0.001906      0.000000
     50 O1    c       0.000266     -0.000737      0.002045      0.000000
     51 O1    c       0.001094      0.001572     -0.000729      0.000000
     52 O1    c      -0.001874     -0.000641     -0.001649      0.000000
     53 O1    c       0.001811     -0.002141     -0.000091      0.000000
     54 O1    c      -0.003939      0.001961     -0.000249      0.000000
     55 O1    c      -0.005433     -0.003289     -0.000273      0.000000
     56 O1    c       0.003175      0.002970      0.000418      0.000000
     57 O1    c       0.000211      0.000711      0.001545      0.000000
     58 O1    c       0.001681     -0.000121     -0.000066      0.000000
     59 O3    c      -0.000885     -0.000338     -0.000050      0.000000
     60 O1    c      -0.001912      0.000475      0.001414      0.000000
     61 O1    c      -0.000260     -0.000406     -0.000087      0.000000
     62 O1    c      -0.001563     -0.000234     -0.001856      0.000000
     63 O1    c      -0.001338      0.000007     -0.000307      0.000000
     64 O1    c       0.004686     -0.000359     -0.002314      0.000000
     65 O1    c      -0.000997     -0.001202      0.001263      0.000000
     66 O3    c       0.000153     -0.000194      0.000687      0.000000
     67 O1    c       0.001496      0.002299     -0.002671      0.000000
     68 O1    c      -0.001067     -0.001392     -0.001326      0.000000
     69 O3    c      -0.001477     -0.002405     -0.000079      0.000000
     70 O1    c      -0.001121      0.002728     -0.000197      0.000000
     71 O1    c      -0.006335     -0.002914      0.000734      0.000000
     72 O1    c       0.008744      0.003311      0.000770      0.000000
     73 O1    s      -0.004472     -0.001878      0.000282      0.000000
     74 O1    s       0.001712      0.001474      0.000568      0.000000
     75 O1    s       0.005452      0.000331     -0.002126      0.000000
     76 O1    s      -0.000615      0.000177      0.000945      0.000000
     77 O1    s       0.003205      0.001170     -0.001967      0.000000
     78 O1    s      -0.000731     -0.001199     -0.002479      0.000000
     79 O1    s       0.001447     -0.000639      0.000991      0.000000
     80 O1    s      -0.002586     -0.000357      0.001310      0.000000
     81 O1    s      -0.001666     -0.000330      0.001064      0.000000
     82 O1    s      -0.001727      0.000561      0.000509      0.000000
     83 O1    s      -0.004451      0.000420      0.001021      0.000000
     84 O1    s       0.002951     -0.000131      0.000707      0.000000
     85 O3    s      -0.003240      0.001851      0.002166      0.000000
     86 O1    s      -0.004414     -0.002418      0.000365      0.000000
     87 O1    s      -0.003166     -0.000275      0.002944      0.000000
     88 O1    s       0.001040      0.001997      0.000823      0.000000
     89 O1    s       0.001983      0.000236     -0.001571      0.000000
     90 O3    s      -0.004944     -0.000258     -0.002488      0.000000
     91 O1    s      -0.001387     -0.000245     -0.003538      0.000000
     92 O3    s      -0.004672     -0.001177     -0.002765      0.000000
     93 O1    s       0.003435      0.000807      0.001983      0.000000
     94 O3    s       0.000715     -0.000133      0.001196      0.000000
     95 O1    s       0.001540      0.000999     -0.000391      0.000000
     96 O3    s       0.002918      0.000042     -0.001879      0.000000
     97 O1    s       0.001513     -0.000585     -0.000462      0.000000
     98 O1    s      -0.001085      0.000939     -0.000141      0.000000
     99 O1    s      -0.001138     -0.000702     -0.000104      0.000000
    100 O1    s       0.001587     -0.000535      0.000874      0.000000
    101 O1    s      -0.002395      0.001240      0.000806      0.000000
    102 O1    s       0.003219     -0.001088      0.000770      0.000000
    103 O1    s       0.002866      0.002866     -0.000388      0.000000
    104 O1    s      -0.000070     -0.002248     -0.001480      0.000000
    105 O1    s      -0.000843     -0.000829     -0.001863      0.000000
    106 O1    s       0.000872      0.000620     -0.000369      0.000000
    107 O3    s       0.002988     -0.000136     -0.000556      0.000000
    108 O1    s      -0.002738      0.000392     -0.001301      0.000000
    109 O1    s       0.001807      0.000658     -0.000778      0.000000
    110 O1    s      -0.000371      0.000769      0.000435      0.000000
    111 O1    s      -0.002033      0.000179     -0.000624      0.000000
    112 O1    s       0.000935     -0.000114      0.000696      0.000000
    113 O1    s       0.000623      0.000290      0.000042      0.000000
    114 O3    s       0.000506      0.000055      0.000181      0.000000
    115 O1    s      -0.000966     -0.000372      0.000936      0.000000
    116 O1    s       0.000955      0.000048      0.000632      0.000000
    117 O3    s       0.000177      0.001504      0.000465      0.000000
    118 O1    s       0.002410     -0.001578      0.001070      0.000000
    119 O1    s       0.001179      0.001413     -0.001368      0.000000
    120 O1    s      -0.003011     -0.001426     -0.001628      0.000000
--------------------------------------------------------------------------------
  Maximum abs         0.015719      0.006756      0.004484      0.000000
--------------------------------------------------------------------------------


  Born effective charge tensors : 

-------------------------------------------------------------------------------
  Atom             x           y             z
-------------------------------------------------------------------------------
    1 Ge    x       4.0883     -0.2665     -0.3994
            y       0.1721      3.9139      0.0933
            z      -0.1898     -0.0025      4.5749
-------------------------------------------------------------------------------
    2 Ge    x       4.1508     -0.2758      0.4522
            y       0.1574      3.9163     -0.0887
            z       0.2016     -0.0199      4.4640
-------------------------------------------------------------------------------
    3 Ge    x       4.0645     -0.2573      0.0432
            y       0.1092      3.9307      0.0227
            z      -0.8359      0.1829      4.2048
-------------------------------------------------------------------------------
    4 Ge    x       4.1368     -0.2454     -0.0656
            y       0.0789      3.9289      0.0040
            z       0.7927     -0.1423      4.2135
-------------------------------------------------------------------------------
    5 Ge    x       4.2892     -0.2498     -0.4164
            y       0.1705      3.9447      0.0737
            z      -0.3326      0.0027      3.9663
-------------------------------------------------------------------------------
    6 Ge    x       4.1109     -0.1106      0.4046
            y       0.1990      3.9467     -0.1068
            z       0.3289      0.0497      3.9298
-------------------------------------------------------------------------------
    7 Ge    x       4.3592     -0.1848      0.0559
            y       0.0654      3.9257      0.0028
            z      -0.6309      0.1672      3.6678
-------------------------------------------------------------------------------
    8 Ge    x       3.9767      0.2304     -0.2409
            y       0.2147      4.2013     -0.0700
            z       0.0260     -0.2037      3.6125
-------------------------------------------------------------------------------
    9 Ge    x       3.9989      0.2401      0.2561
            y       0.2115      4.2033      0.0785
            z      -0.0070      0.2136      3.5909
-------------------------------------------------------------------------------
   10 Ge    x       3.8718     -0.0853     -0.2577
            y      -0.4548      4.2167      0.0968
            z      -0.0919      0.1933      3.4918
-------------------------------------------------------------------------------
   11 Ge    x       3.9080     -0.0870      0.2313
            y      -0.4509      4.2102     -0.1059
            z       0.0800     -0.1952      3.5675
-------------------------------------------------------------------------------
   12 Ge    x       4.0033      0.2730     -0.2679
            y       0.2801      4.1747     -0.0779
            z       0.0123     -0.1429      3.5625
-------------------------------------------------------------------------------
   13 Ge    x       4.0202      0.2460      0.3046
            y       0.2862      4.1388      0.0825
            z       0.0513      0.1437      3.5784
-------------------------------------------------------------------------------
   14 Ge    x       3.9375     -0.0655     -0.1773
            y      -0.4720      4.1869      0.0733
            z      -0.0804      0.2265      3.6051
-------------------------------------------------------------------------------
   15 Ge    x       3.9630     -0.0705      0.1897
            y      -0.4610      4.1855     -0.0761
            z       0.1050     -0.2148      3.5949
-------------------------------------------------------------------------------
   16 Ge    x       3.9207      0.2715     -0.3422
            y       0.2380      4.1847     -0.0752
            z      -0.0393     -0.1786      3.5190
-------------------------------------------------------------------------------
   17 Ge    x       4.0215      0.2520      0.2786
            y       0.2842      4.1726      0.1473
            z      -0.0028      0.2088      3.4552
-------------------------------------------------------------------------------
   18 Ge    x       4.0603     -0.0833     -0.2853
            y      -0.4214      4.2026      0.1043
            z      -0.0853      0.1973      3.4313
-------------------------------------------------------------------------------
   19 Ge    x       3.9266     -0.0388      0.2362
            y      -0.3913      4.2459     -0.0680
            z       0.0170     -0.1665      3.3565
-------------------------------------------------------------------------------
   20 Ge    x       4.1304      0.2703     -0.3286
            y       0.3087      4.1406     -0.0261
            z      -0.0467     -0.1138      3.4543
-------------------------------------------------------------------------------
   21 Ge    x       4.0613      0.2283      0.2765
            y       0.2560      4.1504      0.0011
            z      -0.0111      0.0912      3.3966
-------------------------------------------------------------------------------
   22 Ge    x       4.0518     -0.0903     -0.2525
            y      -0.4478      4.1943      0.0892
            z      -0.1422      0.1996      3.4811
-------------------------------------------------------------------------------
   23 Si    x       3.9236     -0.1644     -0.0748
            y       0.0958      3.7020      0.0333
            z       0.6167     -0.1203      3.3657
-------------------------------------------------------------------------------
   24 Si    x       3.7234     -0.0753      0.2662
            y      -0.4215      3.9239     -0.0845
            z       0.1001     -0.2169      3.2054
-------------------------------------------------------------------------------
   25 O1    x      -2.1757     -0.8760      0.4908
            y      -0.9224     -2.2886      0.4948
            z       0.4536      0.5339     -1.6712
-------------------------------------------------------------------------------
   26 O1    x      -2.2106     -0.8950     -0.5230
            y      -0.9297     -2.3008     -0.5105
            z      -0.4808     -0.5455     -1.6563
-------------------------------------------------------------------------------
   27 O1    x      -1.9704      0.8929      0.3487
            y       0.8352     -2.5191     -0.3057
            z       0.4325     -0.3437     -1.6041
-------------------------------------------------------------------------------
   28 O1    x      -1.9548      0.8662     -0.3544
            y       0.8301     -2.5226      0.3069
            z      -0.4343      0.3467     -1.5874
-------------------------------------------------------------------------------
   29 O1    x      -2.1835     -0.8930      0.2847
            y      -0.9506     -2.2683      0.3546
            z       0.3621      0.3516     -1.6339
-------------------------------------------------------------------------------
   30 O1    x      -2.1871     -0.8891     -0.3162
            y      -0.9454     -2.2546     -0.3492
            z      -0.3999     -0.3663     -1.6275
-------------------------------------------------------------------------------
   31 O1    x      -1.9205      0.8214      0.4975
            y       0.7660     -2.5499     -0.5413
            z       0.4577     -0.5436     -1.6574
-------------------------------------------------------------------------------
   32 O1    x      -1.9602      0.8303     -0.5100
            y       0.7672     -2.5447      0.5357
            z      -0.4612      0.5332     -1.6304
-------------------------------------------------------------------------------
   33 O1    x      -2.0046      0.2321      0.9471
            y       0.0861     -1.2716     -0.1490
            z       1.1863     -0.2702     -3.2073
-------------------------------------------------------------------------------
   34 O1    x      -2.0550      0.2434     -0.9296
            y       0.0972     -1.2790      0.1505
            z      -1.1223      0.2722     -3.1026
-------------------------------------------------------------------------------
   35 O1    x      -2.0880      0.2325     -0.8538
            y       0.1268     -1.3308      0.1436
            z      -0.8764      0.1529     -2.8147
-------------------------------------------------------------------------------
   36 O1    x      -2.1093      0.2673      0.8049
            y       0.1420     -1.3193     -0.1750
            z       0.8169     -0.2102     -2.7282
-------------------------------------------------------------------------------
   37 O3    x      -2.0378      0.2166     -0.8413
            y       0.0949     -1.2760      0.1570
            z      -0.8055      0.2078     -2.4030
-------------------------------------------------------------------------------
   38 O1    x      -2.1489      0.2249      0.8557
            y       0.1060     -1.3423     -0.1766
            z       0.8258     -0.2347     -2.6088
-------------------------------------------------------------------------------
   39 O1    x      -2.2475     -0.8926      0.5441
            y      -0.9110     -2.3117      0.5407
            z       0.4613      0.5281     -1.5826
-------------------------------------------------------------------------------
   40 O1    x      -2.1397     -0.9161     -0.4763
            y      -0.9486     -2.4179     -0.5036
            z      -0.4078     -0.4990     -1.5758
-------------------------------------------------------------------------------
   41 O1    x      -2.0877      0.8911      0.3422
            y       0.8613     -2.4927     -0.2544
            z       0.3928     -0.2981     -1.4629
-------------------------------------------------------------------------------
   42 O3    x      -1.8599      0.8317     -0.2351
            y       0.7811     -2.4793      0.1781
            z      -0.2910      0.2179     -1.3160
-------------------------------------------------------------------------------
   43 O1    x      -2.2510     -0.9195      0.3075
            y      -0.9645     -2.2933      0.3203
            z       0.3726      0.3453     -1.4874
-------------------------------------------------------------------------------
   44 O3    x      -2.1123     -0.8889     -0.2230
            y      -0.9131     -2.2115     -0.2456
            z      -0.2861     -0.2577     -1.3409
-------------------------------------------------------------------------------
   45 O1    x      -2.0160      0.8259      0.5356
            y       0.7481     -2.5670     -0.5556
            z       0.4772     -0.5371     -1.5431
-------------------------------------------------------------------------------
   46 O3    x      -1.9623      0.8665     -0.5594
            y       0.7818     -2.3465      0.5562
            z      -0.4733      0.5373     -1.4776
-------------------------------------------------------------------------------
   47 O1    x      -2.1677      0.2505     -0.7280
            y       0.1515     -1.3821      0.1764
            z      -0.5163      0.1501     -2.2900
-------------------------------------------------------------------------------
   48 O3    x      -1.9595      0.1939      0.6746
            y       0.1119     -1.3077     -0.1441
            z       0.4617     -0.1225     -2.2038
-------------------------------------------------------------------------------
   49 O1    x      -1.3541      0.2075      0.0615
            y       0.3339     -3.1285      0.0316
            z       0.0202      0.0186     -1.4174
-------------------------------------------------------------------------------
   50 O1    x      -1.3671      0.2080     -0.0713
            y       0.3301     -3.1365     -0.0355
            z      -0.0324     -0.0225     -1.4006
-------------------------------------------------------------------------------
   51 O1    x      -1.3328      0.1793      0.0693
            y       0.2869     -3.1695      0.0034
            z       0.0144      0.0376     -1.4023
-------------------------------------------------------------------------------
   52 O1    x      -1.3530      0.2039     -0.0704
            y       0.2958     -3.1477     -0.0202
            z      -0.0260     -0.0263     -1.3872
-------------------------------------------------------------------------------
   53 O1    x      -3.0495     -0.2779      0.0458
            y      -0.2028     -1.5753      0.0249
            z       0.0196      0.0613     -1.2221
-------------------------------------------------------------------------------
   54 O1    x      -3.0476     -0.2848      0.0139
            y      -0.2059     -1.5759     -0.0138
            z       0.0181     -0.0523     -1.2221
-------------------------------------------------------------------------------
   55 O1    x      -2.9945     -0.2829     -0.0215
            y      -0.1849     -1.5913     -0.0296
            z      -0.0251     -0.0642     -1.2246
-------------------------------------------------------------------------------
   56 O1    x      -3.0167     -0.2880     -0.0282
            y      -0.1899     -1.6012      0.0060
            z      -0.0584      0.0351     -1.2102
-------------------------------------------------------------------------------
   57 O1    x      -1.4806     -0.1052     -0.1067
            y      -0.1136     -1.4280     -0.0427
            z      -0.0989     -0.0189     -2.7322
-------------------------------------------------------------------------------
   58 O1    x      -1.5098     -0.1078      0.0170
            y      -0.1133     -1.4227      0.0143
            z       0.0386     -0.0097     -2.7087
-------------------------------------------------------------------------------
   59 O3    x      -1.3535      0.0103      0.0728
            y       0.0770     -1.3645      0.0423
            z       0.0539      0.0363     -2.5633
-------------------------------------------------------------------------------
   60 O1    x      -1.4546      0.0161      0.0487
            y       0.0849     -1.4295      0.0212
            z       0.0439      0.0261     -2.7373
-------------------------------------------------------------------------------
   61 O1    x      -1.4745     -0.1274     -0.0074
            y      -0.1386     -1.4516      0.0735
            z      -0.0165      0.0492     -2.6760
-------------------------------------------------------------------------------
   62 O1    x      -1.5138     -0.1092     -0.0300
            y      -0.1236     -1.4145     -0.0236
            z      -0.0001      0.0015     -2.7169
-------------------------------------------------------------------------------
   63 O1    x      -1.4357      0.0060     -0.0677
            y       0.0808     -1.4463      0.0127
            z      -0.0414      0.0104     -2.7281
-------------------------------------------------------------------------------
   64 O1    x      -1.4542      0.0091     -0.0077
            y       0.0767     -1.4397     -0.0061
            z      -0.0229     -0.0161     -2.7385
-------------------------------------------------------------------------------
   65 O1    x      -1.4167      0.2383      0.1129
            y       0.3274     -3.1253      0.0027
            z       0.0636     -0.0051     -1.3458
-------------------------------------------------------------------------------
   66 O3    x      -1.3011      0.1785     -0.0567
            y       0.2699     -3.0200     -0.1603
            z      -0.0042     -0.1484     -1.2593
-------------------------------------------------------------------------------
   67 O1    x      -1.3889      0.1790      0.0837
            y       0.2487     -3.1328     -0.0204
            z       0.0243      0.0088     -1.3572
-------------------------------------------------------------------------------
   68 O1    x      -1.3813      0.1675     -0.1000
            y       0.2561     -3.2094      0.0004
            z      -0.0348     -0.0223     -1.3492
-------------------------------------------------------------------------------
   69 O3    x      -2.8703     -0.3647      0.0220
            y      -0.2943     -1.5147      0.0186
            z       0.0024      0.0470     -1.1271
-------------------------------------------------------------------------------
   70 O1    x      -3.0984     -0.2651     -0.0067
            y      -0.1602     -1.5843     -0.0288
            z       0.0323     -0.0553     -1.1855
-------------------------------------------------------------------------------
   71 O1    x      -3.1228     -0.2921      0.0535
            y      -0.2075     -1.5879     -0.0063
            z       0.0666     -0.0378     -1.1850
-------------------------------------------------------------------------------
   72 O1    x      -3.1172     -0.2763      0.0034
            y      -0.1427     -1.5670      0.0075
            z      -0.0186      0.0396     -1.1801
-------------------------------------------------------------------------------




  Elastic Constant Matrix: (Units=GPa)

-------------------------------------------------------------------------------
  Indices      1         2         3         4         5         6    
-------------------------------------------------------------------------------
       1     27.0117   12.0238    8.7762    0.3632   -0.0996   -6.6819
       2     12.0238   33.7172    6.5460    0.0246   -0.0323   -6.4392
       3      8.7762    6.5460   15.7635   -0.1350   -0.1568   -1.4098
       4      0.3632    0.0246   -0.1350    7.5798   -1.8696   -0.2808
       5     -0.0996   -0.0323   -0.1568   -1.8696   14.6419    0.3872
       6     -6.6819   -6.4392   -1.4098   -0.2808    0.3872   19.1389
-------------------------------------------------------------------------------


  Elastic Compliance Matrix: (Units=1/GPa)

-------------------------------------------------------------------------------
  Indices      1         2         3         4         5         6    
-------------------------------------------------------------------------------
       1    0.053182 -0.011954 -0.023529 -0.002599 -0.000587  0.012786
       2   -0.011954  0.036939 -0.007995  0.000541 -0.000220  0.007678
       3   -0.023529 -0.007995  0.079441  0.002665  0.001147 -0.005037
       4   -0.002599  0.000541  0.002665  0.136434  0.017404  0.001121
       5   -0.000587 -0.000220  0.001147  0.017404  0.070564 -0.001366
       6    0.012786  0.007678 -0.005037  0.001121 -0.001366  0.058970
-------------------------------------------------------------------------------

  Mechanical properties :

-------------------------------------------------------------------------------
  Convention :                    Reuss         Voigt         Hill
-------------------------------------------------------------------------------
  Bulk  Modulus (GPa)     =      12.10566      14.57604      13.34085
  Shear Modulus (GPa)     =       9.09054      11.54853      10.31954
-------------------------------------------------------------------------------
  Velocity S-wave (km/s)  =       1.79895       2.02763       1.91671
  Velocity P-wave (km/s)  =       2.93677       3.26662       3.10607
-------------------------------------------------------------------------------
  Compressibility (1/GPa) =    0.08260601
-------------------------------------------------------------------------------
  Stress axis :                     x             y             z
-------------------------------------------------------------------------------
  Youngs Moduli (GPa)     =      18.80320      27.07148      12.58798
-------------------------------------------------------------------------------
  Poissons Ratio (x)      =                     0.32361       0.29618
  Poissons Ratio (y)      =       0.22477                     0.10064
  Poissons Ratio (z)      =       0.44242       0.21644
-------------------------------------------------------------------------------


  Piezoelectric Strain Matrix: (Units=C/m**2)

-------------------------------------------------------------------------------
  Indices      1         2         3         4         5         6    
-------------------------------------------------------------------------------
       x     0.05582  -0.19649   0.09965  -0.18362  -0.56544   0.15262
       y     0.24498  -0.07119  -0.00462  -1.03309   0.29472  -0.06665
       z    -0.29741   0.34320   1.06278   0.00523  -0.07971   0.17266
-------------------------------------------------------------------------------


  Piezoelectric Stress Matrix: (Units=10**-11 C/N)

-------------------------------------------------------------------------------
  Indices      1         2         3         4         5         6    
-------------------------------------------------------------------------------
       x     0.57334  -0.75255   0.62670  -3.47072  -4.31788   0.82701
       y     1.56486  -0.66561  -0.76411 -13.65821   0.27747  -0.28815
       z    -4.26853   0.90820   8.77346   0.33103  -0.44515   0.37757
-------------------------------------------------------------------------------


  Static dielectric constant tensor : 

-------------------------------------------------------------------------------
              x         y         z
-------------------------------------------------------------------------------
       x     5.34689   0.04840  -0.04070
       y     0.04840   6.54676   0.02355
       z    -0.04070   0.02355   4.19141
--------------------------------------------------------------------------------

  High frequency dielectric constant tensor : 

-------------------------------------------------------------------------------
              x         y         z
-------------------------------------------------------------------------------
       x     1.53219  -0.00283   0.00085
       y    -0.00283   1.53834   0.00012
       z     0.00085   0.00012   1.49301
-------------------------------------------------------------------------------

  Static refractive indices : 

-------------------------------------------------------------------------------
    1 =    2.04688      2 =    2.31224      3 =    2.55908
-------------------------------------------------------------------------------

  High frequency refractive indices : 

-------------------------------------------------------------------------------
    1 =    1.22188      2 =    1.23738      3 =    1.24074
-------------------------------------------------------------------------------


  Time to end of optimisation =       6.9789 seconds


  Peak dynamic memory used =       5.01 MB 


  Timing analysis for GULP :

--------------------------------------------------------------------------------
  Task / Subroutine                                          Time (Seconds)
--------------------------------------------------------------------------------
  Calculation of reciprocal space energy and derivatives          0.4823
  Calculation of real space energy and derivatives                5.1151
  Calculation of three-body energy and derivatives                0.0404
  Calculation and manipulation of Hessian matrix                  1.5958
  Calculation of matrix inversion                                 0.0339
  Global summation overhead                                       0.0001
--------------------------------------------------------------------------------
  Total CPU time                                                  6.9790
--------------------------------------------------------------------------------


  Dump file written as c00023.vasp.grs
  CIF file written as c00023.vasp.cif


  Job Finished at 18:37.42 30th October    2025                               

