********************************************************************************
*                       GENERAL UTILITY LATTICE PROGRAM                        *
*                                 Julian Gale                                  *
*                       Curtin Institute for Computation                       *
*                    School of Molecular and Life Sciences                     *
*                    Curtin University, Western Australia                      *
********************************************************************************
* Version = 6.1.2 * Last modified =   3rd November 2022                        *
********************************************************************************
*  optimise     - perform optimisation run                                     *
*  conp         - constant pressure calculation                                *
*  property     - calculate properties for final geometry                      *
********************************************************************************

  Job Started  at 18:38.17 30th October    2025                               

  Number of CPUs =     1


  Total number of configurations input =      1

********************************************************************************
*  Input for Configuration =   1 : c00028.vasp                                 *
********************************************************************************

  Formula = Ge22Si2O48                                                  

  Number of irreducible atoms/shells =     120


  Total number atoms/shells =     120

  Dimensionality = 3               :  Bulk   



  Cartesian lattice vectors (Angstroms) :

       17.182800    0.000000    0.000000
        0.000000    7.513760    0.000000
        0.000000    0.000000   10.447700

  Cell parameters (Angstroms/Degrees):

  a =      17.1828    alpha =  90.0000
  b =       7.5138    beta  =  90.0000
  c =      10.4477    gamma =  90.0000

  Initial cell volume =        1348.875752 Angs**3

  Temperature of configuration =   0.00     K 

  Pressure of configuration =         0.000 GPa 

  Fractional coordinates of asymmetric unit :

--------------------------------------------------------------------------------
   No.  Atomic       x           y          z         Charge      Occupancy
        Label      (Frac)      (Frac)     (Frac)        (e)         (Frac)  
--------------------------------------------------------------------------------
      1 Ge    c    0.052090    0.000000    0.372270     4.00000    1.000000    
      2 Ge    c    0.447910 *  0.000000 *  0.372270 *   4.00000    1.000000    
      3 Ge    c    0.947910 *  0.000000 *  0.627730 *   4.00000    1.000000    
      4 Ge    c    0.552090 *  0.000000 *  0.627730 *   4.00000    1.000000    
      5 Ge    c    0.556730 *  0.000000 *  0.122130 *   4.00000    1.000000    
      6 Ge    c    0.943270 *  0.000000 *  0.122130 *   4.00000    1.000000    
      7 Ge    c    0.443270 *  0.000000 *  0.877870 *   4.00000    1.000000    
      8 Ge    c    0.160190 *  0.293910 *  0.273440 *   4.00000    1.000000    
      9 Ge    c    0.339810 *  0.706090 *  0.273440 *   4.00000    1.000000    
     10 Ge    c    0.839810 *  0.293910 *  0.726560 *   4.00000    1.000000    
     11 Ge    c    0.660190 *  0.706090 *  0.726560 *   4.00000    1.000000    
     12 Ge    c    0.839810 *  0.706090 *  0.726560 *   4.00000    1.000000    
     13 Ge    c    0.660190 *  0.293910 *  0.726560 *   4.00000    1.000000    
     14 Ge    c    0.339810 *  0.293910 *  0.273440 *   4.00000    1.000000    
     15 Ge    c    0.660660 *  0.294090 *  0.017440 *   4.00000    1.000000    
     16 Ge    c    0.839340 *  0.705910 *  0.017440 *   4.00000    1.000000    
     17 Ge    c    0.339340 *  0.294090 *  0.982560 *   4.00000    1.000000    
     18 Ge    c    0.160660 *  0.705910 *  0.982560 *   4.00000    1.000000    
     19 Ge    c    0.339340 *  0.705910 *  0.982560 *   4.00000    1.000000    
     20 Ge    c    0.160660 *  0.294090 *  0.982560 *   4.00000    1.000000    
     21 Ge    c    0.660660 *  0.705910 *  0.017440 *   4.00000    1.000000    
     22 Ge    c    0.839340 *  0.294090 *  0.017440 *   4.00000    1.000000    
     23 Si    c    0.056730 *  0.000000 *  0.877870 *   4.00000    1.000000    
     24 Si    c    0.160190 *  0.706090 *  0.273440 *   4.00000    1.000000    
     25 O1    c    0.106570 *  0.174340 *  0.366200 *   1.73396    1.000000    
     26 O1    c    0.393430 *  0.825660 *  0.366200 *   1.73396    1.000000    
     27 O1    c    0.893430 *  0.174340 *  0.633800 *   1.73396    1.000000    
     28 O1    c    0.606570 *  0.825660 *  0.633800 *   1.73396    1.000000    
     29 O1    c    0.893430 *  0.825660 *  0.633800 *   1.73396    1.000000    
     30 O1    c    0.606570 *  0.174340 *  0.633800 *   1.73396    1.000000    
     31 O3    c    0.106570 *  0.825660 *  0.366200 *   1.33043    1.000000    
     32 O1    c    0.393430 *  0.174340 *  0.366200 *   1.73396    1.000000    
     33 O1    c    0.000000 *  0.000000 *  0.500000 *   1.73396    1.000000    
     34 O1    c    0.500000 *  0.000000 *  0.500000 *   1.73396    1.000000    
     35 O1    c    0.994520 *  0.000000 *  0.250840 *   1.73396    1.000000    
     36 O1    c    0.505480 *  0.000000 *  0.250840 *   1.73396    1.000000    
     37 O3    c    0.005480 *  0.000000 *  0.749160 *   1.33043    1.000000    
     38 O1    c    0.494520 *  0.000000 *  0.749160 *   1.73396    1.000000    
     39 O1    c    0.610230 *  0.175520 *  0.115390 *   1.73396    1.000000    
     40 O1    c    0.889770 *  0.824480 *  0.115390 *   1.73396    1.000000    
     41 O1    c    0.389770 *  0.175520 *  0.884610 *   1.73396    1.000000    
     42 O3    c    0.110230 *  0.824480 *  0.884610 *   1.33043    1.000000    
     43 O1    c    0.389770 *  0.824480 *  0.884610 *   1.73396    1.000000    
     44 O3    c    0.110230 *  0.175520 *  0.884610 *   1.33043    1.000000    
     45 O1    c    0.610230 *  0.824480 *  0.115390 *   1.73396    1.000000    
     46 O1    c    0.889770 *  0.175520 *  0.115390 *   1.73396    1.000000    
     47 O1    c    0.500000 *  0.000000 *  0.000000 *   1.73396    1.000000    
     48 O3    c    0.000000 *  0.000000 *  0.000000 *   1.33043    1.000000    
     49 O3    c    0.151750 *  0.500000 *  0.313330 *   1.33043    1.000000    
     50 O1    c    0.348250 *  0.500000 *  0.313330 *   1.73396    1.000000    
     51 O1    c    0.848250 *  0.500000 *  0.686670 *   1.73396    1.000000    
     52 O1    c    0.651750 *  0.500000 *  0.686670 *   1.73396    1.000000    
     53 O1    c    0.250000 *  0.234950 *  0.285720 *   1.73396    1.000000    
     54 O3    c    0.250000 *  0.765050 *  0.285720 *   1.33043    1.000000    
     55 O1    c    0.750000 *  0.234950 *  0.714280 *   1.73396    1.000000    
     56 O1    c    0.750000 *  0.765050 *  0.714280 *   1.73396    1.000000    
     57 O1    c    0.131410 *  0.268650 *  0.127790 *   1.73396    1.000000    
     58 O1    c    0.368590 *  0.731350 *  0.127790 *   1.73396    1.000000    
     59 O1    c    0.868590 *  0.268650 *  0.872210 *   1.73396    1.000000    
     60 O1    c    0.631410 *  0.731350 *  0.872210 *   1.73396    1.000000    
     61 O1    c    0.868590 *  0.731350 *  0.872210 *   1.73396    1.000000    
     62 O1    c    0.631410 *  0.268650 *  0.872210 *   1.73396    1.000000    
     63 O3    c    0.131410 *  0.731350 *  0.127790 *   1.33043    1.000000    
     64 O1    c    0.368590 *  0.268650 *  0.127790 *   1.73396    1.000000    
     65 O1    c    0.653920 *  0.500000 *  0.058200 *   1.73396    1.000000    
     66 O1    c    0.846080 *  0.500000 *  0.058200 *   1.73396    1.000000    
     67 O1    c    0.346080 *  0.500000 *  0.941800 *   1.73396    1.000000    
     68 O1    c    0.153920 *  0.500000 *  0.941800 *   1.73396    1.000000    
     69 O1    c    0.750000 *  0.231060 *  0.027050 *   1.73396    1.000000    
     70 O1    c    0.750000 *  0.768940 *  0.027050 *   1.73396    1.000000    
     71 O1    c    0.250000 *  0.231060 *  0.972950 *   1.73396    1.000000    
     72 O1    c    0.250000 *  0.768940 *  0.972950 *   1.73396    1.000000    
     73 O1    s    0.106570 *  0.174340 *  0.366200 *  -3.73396    1.000000    
     74 O1    s    0.393430 *  0.825660 *  0.366200 *  -3.73396    1.000000    
     75 O1    s    0.893430 *  0.174340 *  0.633800 *  -3.73396    1.000000    
     76 O1    s    0.606570 *  0.825660 *  0.633800 *  -3.73396    1.000000    
     77 O1    s    0.893430 *  0.825660 *  0.633800 *  -3.73396    1.000000    
     78 O1    s    0.606570 *  0.174340 *  0.633800 *  -3.73396    1.000000    
     79 O3    s    0.106570 *  0.825660 *  0.366200 *  -3.33043    1.000000    
     80 O1    s    0.393430 *  0.174340 *  0.366200 *  -3.73396    1.000000    
     81 O1    s    0.000000 *  0.000000 *  0.500000 *  -3.73396    1.000000    
     82 O1    s    0.500000 *  0.000000 *  0.500000 *  -3.73396    1.000000    
     83 O1    s    0.994520 *  0.000000 *  0.250840 *  -3.73396    1.000000    
     84 O1    s    0.505480 *  0.000000 *  0.250840 *  -3.73396    1.000000    
     85 O3    s    0.005480 *  0.000000 *  0.749160 *  -3.33043    1.000000    
     86 O1    s    0.494520 *  0.000000 *  0.749160 *  -3.73396    1.000000    
     87 O1    s    0.610230 *  0.175520 *  0.115390 *  -3.73396    1.000000    
     88 O1    s    0.889770 *  0.824480 *  0.115390 *  -3.73396    1.000000    
     89 O1    s    0.389770 *  0.175520 *  0.884610 *  -3.73396    1.000000    
     90 O3    s    0.110230 *  0.824480 *  0.884610 *  -3.33043    1.000000    
     91 O1    s    0.389770 *  0.824480 *  0.884610 *  -3.73396    1.000000    
     92 O3    s    0.110230 *  0.175520 *  0.884610 *  -3.33043    1.000000    
     93 O1    s    0.610230 *  0.824480 *  0.115390 *  -3.73396    1.000000    
     94 O1    s    0.889770 *  0.175520 *  0.115390 *  -3.73396    1.000000    
     95 O1    s    0.500000 *  0.000000 *  0.000000 *  -3.73396    1.000000    
     96 O3    s    0.000000 *  0.000000 *  0.000000 *  -3.33043    1.000000    
     97 O3    s    0.151750 *  0.500000 *  0.313330 *  -3.33043    1.000000    
     98 O1    s    0.348250 *  0.500000 *  0.313330 *  -3.73396    1.000000    
     99 O1    s    0.848250 *  0.500000 *  0.686670 *  -3.73396    1.000000    
    100 O1    s    0.651750 *  0.500000 *  0.686670 *  -3.73396    1.000000    
    101 O1    s    0.250000 *  0.234950 *  0.285720 *  -3.73396    1.000000    
    102 O3    s    0.250000 *  0.765050 *  0.285720 *  -3.33043    1.000000    
    103 O1    s    0.750000 *  0.234950 *  0.714280 *  -3.73396    1.000000    
    104 O1    s    0.750000 *  0.765050 *  0.714280 *  -3.73396    1.000000    
    105 O1    s    0.131410 *  0.268650 *  0.127790 *  -3.73396    1.000000    
    106 O1    s    0.368590 *  0.731350 *  0.127790 *  -3.73396    1.000000    
    107 O1    s    0.868590 *  0.268650 *  0.872210 *  -3.73396    1.000000    
    108 O1    s    0.631410 *  0.731350 *  0.872210 *  -3.73396    1.000000    
    109 O1    s    0.868590 *  0.731350 *  0.872210 *  -3.73396    1.000000    
    110 O1    s    0.631410 *  0.268650 *  0.872210 *  -3.73396    1.000000    
    111 O3    s    0.131410 *  0.731350 *  0.127790 *  -3.33043    1.000000    
    112 O1    s    0.368590 *  0.268650 *  0.127790 *  -3.73396    1.000000    
    113 O1    s    0.653920 *  0.500000 *  0.058200 *  -3.73396    1.000000    
    114 O1    s    0.846080 *  0.500000 *  0.058200 *  -3.73396    1.000000    
    115 O1    s    0.346080 *  0.500000 *  0.941800 *  -3.73396    1.000000    
    116 O1    s    0.153920 *  0.500000 *  0.941800 *  -3.73396    1.000000    
    117 O1    s    0.750000 *  0.231060 *  0.027050 *  -3.73396    1.000000    
    118 O1    s    0.750000 *  0.768940 *  0.027050 *  -3.73396    1.000000    
    119 O1    s    0.250000 *  0.231060 *  0.972950 *  -3.73396    1.000000    
    120 O1    s    0.250000 *  0.768940 *  0.972950 *  -3.73396    1.000000    
--------------------------------------------------------------------------------



********************************************************************************
*  General input information                                                   *
********************************************************************************

  Species output for all configurations : 

--------------------------------------------------------------------------------
  Species    Type    Atomic    Atomic    Charge       Radii (Angs)     Library
                     Number     Mass       (e)     Cova   Ionic  VDW   Symbol
--------------------------------------------------------------------------------
    Ge       Core       32      72.61   4.000000   1.170  0.000  1.750 Ge       
    Si       Core       14      28.09   4.000000   1.200  0.000  2.100 Si       
    O1       Core        8      16.00   1.733957   0.730  0.000  1.360 O1       
    O2       Core        8      16.00   0.870733   0.730  0.000  0.000 O2       
    O3       Core        8      16.00   1.330431   0.730  0.000  1.360 O3       
    O1       Shell       8       0.00  -3.733957   0.730  0.000  0.000 O1       
    O2       Shell       8       0.00  -2.870733   0.730  0.000  0.000 O2       
    O3       Shell       8       0.00  -3.330431   0.730  0.000  0.000 O3       
--------------------------------------------------------------------------------


  Lattice summation method               =    Ewald          (3-D)
                                         =    Parry          (2-D)
                                         =    Saunders et al (1-D)
  Accuracy factor for lattice sums       =   12.000


  Analytic derivatives to be used

  Time limit = Infinity

  Maximum range for interatomic potentials =    100000.000000 Angstroms

  General interatomic potentials :

--------------------------------------------------------------------------------
Atom  Types   Potential      Parameter       Value         Units   Cutoffs(Ang)
  1     2                                                            Min /  Max 
--------------------------------------------------------------------------------
Si   c O1   s Buckingham    Buckingham A     1315.2478    eV        0.000 16.000
                            Buckingham rho  0.31775900    Ang       
                            Buckingham C     10.141118    eV*Ang^6  
--------------------------------------------------------------------------------
Si   c O2   s Buckingham    Buckingham A     1315.2478    eV        0.000 16.000
                            Buckingham rho  0.31775900    Ang       
                            Buckingham C     10.141118    eV*Ang^6  
--------------------------------------------------------------------------------
Si   c O3   s Buckingham    Buckingham A     1315.2478    eV        0.000 16.000
                            Buckingham rho  0.31775900    Ang       
                            Buckingham C     10.141118    eV*Ang^6  
--------------------------------------------------------------------------------
Ge   c O1   s Buckingham    Buckingham A     1497.3996    eV        0.000 16.000
                            Buckingham rho  0.32564600    Ang       
                            Buckingham C     16.808599    eV*Ang^6  
--------------------------------------------------------------------------------
Ge   c O2   s Buckingham    Buckingham A     1497.3996    eV        0.000 16.000
                            Buckingham rho  0.32564600    Ang       
                            Buckingham C     16.808599    eV*Ang^6  
--------------------------------------------------------------------------------
Ge   c O3   s Buckingham    Buckingham A     1497.3996    eV        0.000 16.000
                            Buckingham rho  0.32564600    Ang       
                            Buckingham C     16.808599    eV*Ang^6  
--------------------------------------------------------------------------------
O1   s O1   s Buckingham    Buckingham A     22764.000    eV        0.000 16.000
                            Buckingham rho  0.14900000    Ang       
                            Buckingham C     10.937044    eV*Ang^6  
--------------------------------------------------------------------------------
O1   s O2   s Buckingham    Buckingham A     22764.000    eV        0.000 16.000
                            Buckingham rho  0.14900000    Ang       
                            Buckingham C     10.937044    eV*Ang^6  
--------------------------------------------------------------------------------
O1   s O3   s Buckingham    Buckingham A     22764.000    eV        0.000 16.000
                            Buckingham rho  0.14900000    Ang       
                            Buckingham C     10.937044    eV*Ang^6  
--------------------------------------------------------------------------------
O2   s O2   s Buckingham    Buckingham A     22764.000    eV        0.000 16.000
                            Buckingham rho  0.14900000    Ang       
                            Buckingham C     10.937044    eV*Ang^6  
--------------------------------------------------------------------------------
O2   s O3   s Buckingham    Buckingham A     22764.000    eV        0.000 16.000
                            Buckingham rho  0.14900000    Ang       
                            Buckingham C     10.937044    eV*Ang^6  
--------------------------------------------------------------------------------
O3   s O3   s Buckingham    Buckingham A     22764.000    eV        0.000 16.000
                            Buckingham rho  0.14900000    Ang       
                            Buckingham C     10.937044    eV*Ang^6  
--------------------------------------------------------------------------------
O1   c O1   s Spring (c-s)  Spring k 2       180.31577    eV*Ang^-2 0.000  0.800
                            Spring k 4       0.0000000    eV*Ang^-4 
--------------------------------------------------------------------------------
O2   c O2   s Spring (c-s)  Spring k 2       75.969800    eV*Ang^-2 0.000  0.800
                            Spring k 4       0.0000000    eV*Ang^-4 
--------------------------------------------------------------------------------
O3   c O3   s Spring (c-s)  Spring k 2       128.14270    eV*Ang^-2 0.000  0.800
                            Spring k 4       0.0000000    eV*Ang^-4 
--------------------------------------------------------------------------------

  General Three-body potentials :

--------------------------------------------------------------------------------
  Atoms       Potential      Parameter       Value         Units   Cutoffs(Ang)
  1 / 2 / 3                                                          Min /  Max 
--------------------------------------------------------------------------------
Si    core    Harmonic      Three-body cnst  1.2614000    eV*rad^-2 0.000  1.900
O1    shel                  Three-body angl  109.47000    degrees   0.000  1.900
O1    shel                  Three-body k4    0.0000000    eV*rad^-4 0.000  3.500
                            Three-body k3    0.0000000    eV*rad^-3 
--------------------------------------------------------------------------------
Si    core    Harmonic      Three-body cnst  1.2614000    eV*rad^-2 0.000  1.900
O1    shel                  Three-body angl  109.47000    degrees   0.000  1.900
õ(1   shel                  Three-body k4    0.0000000    eV*rad^-4 0.000  3.500
                            Three-body k3    0.0000000    eV*rad^-3 
--------------------------------------------------------------------------------
Si    core    Harmonic      Three-body cnst  1.2614000    eV*rad^-2 0.000  1.900
õ(1   shel                  Three-body angl  109.47000    degrees   0.000  1.900
õ(1   shel                  Three-body k4    0.0000000    eV*rad^-4 0.000  3.500
                            Three-body k3    0.0000000    eV*rad^-3 
--------------------------------------------------------------------------------
Si    core    Harmonic      Three-body cnst  1.2614000    eV*rad^-2 0.000  1.900
O1    shel                  Three-body angl  109.47000    degrees   0.000  1.900
O2    shel                  Three-body k4    0.0000000    eV*rad^-4 0.000  3.500
                            Three-body k3    0.0000000    eV*rad^-3 
--------------------------------------------------------------------------------
Si    core    Harmonic      Three-body cnst  1.2614000    eV*rad^-2 0.000  1.900
O1    shel                  Three-body angl  109.47000    degrees   0.000  1.900
õ(2   shel                  Three-body k4    0.0000000    eV*rad^-4 0.000  3.500
                            Three-body k3    0.0000000    eV*rad^-3 
--------------------------------------------------------------------------------
Si    core    Harmonic      Three-body cnst  1.2614000    eV*rad^-2 0.000  1.900
O2    shel                  Three-body angl  109.47000    degrees   0.000  1.900
õ(1   shel                  Three-body k4    0.0000000    eV*rad^-4 0.000  3.500
                            Three-body k3    0.0000000    eV*rad^-3 
--------------------------------------------------------------------------------
Si    core    Harmonic      Three-body cnst  1.2614000    eV*rad^-2 0.000  1.900
õ(1   shel                  Three-body angl  109.47000    degrees   0.000  1.900
õ(2   shel                  Three-body k4    0.0000000    eV*rad^-4 0.000  3.500
                            Three-body k3    0.0000000    eV*rad^-3 
--------------------------------------------------------------------------------
Si    core    Harmonic      Three-body cnst  1.2614000    eV*rad^-2 0.000  1.900
O2    shel                  Three-body angl  109.47000    degrees   0.000  1.900
O2    shel                  Three-body k4    0.0000000    eV*rad^-4 0.000  3.500
                            Three-body k3    0.0000000    eV*rad^-3 
--------------------------------------------------------------------------------
Si    core    Harmonic      Three-body cnst  1.2614000    eV*rad^-2 0.000  1.900
O2    shel                  Three-body angl  109.47000    degrees   0.000  1.900
õ(2   shel                  Three-body k4    0.0000000    eV*rad^-4 0.000  3.500
                            Three-body k3    0.0000000    eV*rad^-3 
--------------------------------------------------------------------------------
Si    core    Harmonic      Three-body cnst  1.2614000    eV*rad^-2 0.000  1.900
õ(2   shel                  Three-body angl  109.47000    degrees   0.000  1.900
õ(2   shel                  Three-body k4    0.0000000    eV*rad^-4 0.000  3.500
                            Three-body k3    0.0000000    eV*rad^-3 
--------------------------------------------------------------------------------

********************************************************************************
*  Output for configuration   1 : c00028.vasp                                  *
********************************************************************************


  Components of energy : 

--------------------------------------------------------------------------------
  Interatomic potentials     =         912.60918061 eV    
  Three-body potentials      =           0.00000000 eV    
  Monopole - monopole (real) =       -2676.00317478 eV    
  Monopole - monopole (recip)=       -1115.35404472 eV    
  Monopole - monopole (total)=       -3791.35721950 eV    
--------------------------------------------------------------------------------
  Total lattice energy       =       -2878.74803890 eV    
--------------------------------------------------------------------------------
  Total lattice energy       =         -277755.1801 kJ/(mole unit cells)
--------------------------------------------------------------------------------


  Number of variables =      363

  Maximum number of calculations  =          1000
  Maximum Hessian update interval =            10
  Maximum step size               =   0.100000000
  Maximum parameter tolerance     =   0.000010000
  Maximum function  tolerance     =   0.000010000
  Maximum gradient  tolerance     =   0.001000000
  Maximum gradient  component     =   0.010000000

  Symmetry not applied to optimisation

  Cell parameters to be optimised using strains

  Newton-Raphson optimiser to be used

  BFGS hessian update to be used

  Lower half triangular hessian to be used

  Minimiser to switch to RFO
  When gradient norm is less than     0.050000

  Dumpfile to be written after every cycle

  Start of bulk optimisation :

  Cycle:      0 Energy:     -2878.748039  Gnorm:      6.013453  CPU:    0.104
  ** Hessian calculated **
  Cycle:      1 Energy:     -2924.626271  Gnorm:      1.455082  CPU:    0.236
  ** Hessian calculated **
  Cycle:      2 Energy:     -2929.921638  Gnorm:      0.782824  CPU:    0.436
  Cycle:      3 Energy:     -2930.783397  Gnorm:      0.309372  CPU:    0.530
  Cycle:      4 Energy:     -2931.065680  Gnorm:      0.247563  CPU:    0.635
  Cycle:      5 Energy:     -2931.417510  Gnorm:      0.209024  CPU:    0.739
  Cycle:      6 Energy:     -2931.800273  Gnorm:      0.181292  CPU:    0.843
  Cycle:      7 Energy:     -2932.015069  Gnorm:      0.134328  CPU:    0.930
  Cycle:      8 Energy:     -2932.091145  Gnorm:      0.094415  CPU:    1.041
  Cycle:      9 Energy:     -2932.127055  Gnorm:      0.070438  CPU:    1.143
  Cycle:     10 Energy:     -2932.152373  Gnorm:      0.064442  CPU:    1.246
  Cycle:     11 Energy:     -2932.178089  Gnorm:      0.066435  CPU:    1.349
  ** Hessian calculated **
  Cycle:     12 Energy:     -2932.184339  Gnorm:      0.065895  CPU:    1.539
  Cycle:     13 Energy:     -2932.193764  Gnorm:      0.065020  CPU:    1.682
  Cycle:     14 Energy:     -2932.203678  Gnorm:      0.063910  CPU:    1.803
  Cycle:     15 Energy:     -2932.207678  Gnorm:      0.063126  CPU:    1.902
  ** Hessian calculated **
  Cycle:     16 Energy:     -2932.242137  Gnorm:      0.060960  CPU:    2.084
  Cycle:     17 Energy:     -2932.300890  Gnorm:      0.056743  CPU:    2.199
  Cycle:     18 Energy:     -2932.310945  Gnorm:      0.055657  CPU:    2.283
  ** Hessian calculated **
  Cycle:     19 Energy:     -2932.442474  Gnorm:      0.045632  CPU:    2.472
  ** Hessian has wrong structure
  ** Imaginary eigenvectors =   5
  Cycle:     20 Energy:     -2932.501168  Gnorm:      0.105597  CPU:    2.699
  ** Hessian has wrong structure
  ** Imaginary eigenvectors =   3
  ** Hessian has wrong structure
  ** Imaginary eigenvectors =   2
  Cycle:     21 Energy:     -2932.529519  Gnorm:      0.112389  CPU:    3.113
  ** Hessian has wrong structure
  ** Imaginary eigenvectors =   2
  ** Hessian has required structure
  Cycle:     22 Energy:     -2932.933313  Gnorm:      0.111631  CPU:    3.527
  ** Hessian has required structure
  Cycle:     23 Energy:     -2933.124746  Gnorm:      0.059036  CPU:    3.662
  ** Hessian has required structure
  Cycle:     24 Energy:     -2933.222940  Gnorm:      0.042653  CPU:    3.795
  ** Hessian has required structure
  Cycle:     25 Energy:     -2933.261043  Gnorm:      0.039576  CPU:    3.936
  ** Hessian has required structure
  Cycle:     26 Energy:     -2933.284391  Gnorm:      0.030454  CPU:    4.071
  ** Hessian has required structure
  Cycle:     27 Energy:     -2933.292119  Gnorm:      0.026810  CPU:    4.221
  ** Hessian has required structure
  Cycle:     28 Energy:     -2933.296073  Gnorm:      0.014856  CPU:    4.354
  ** Hessian has required structure
  Cycle:     29 Energy:     -2933.297984  Gnorm:      0.009738  CPU:    4.505
  ** Hessian has required structure
  Cycle:     30 Energy:     -2933.298769  Gnorm:      0.007081  CPU:    4.647
  ** Hessian has required structure
  Cycle:     31 Energy:     -2933.299218  Gnorm:      0.004165  CPU:    4.786
  ** Hessian has required structure
  Cycle:     32 Energy:     -2933.299549  Gnorm:      0.002105  CPU:    5.017
  ** Hessian has required structure
  Cycle:     33 Energy:     -2933.299624  Gnorm:      0.001277  CPU:    5.153
  ** Hessian has required structure
  Cycle:     34 Energy:     -2933.299652  Gnorm:      0.000766  CPU:    5.287
  ** Hessian has required structure
  Cycle:     35 Energy:     -2933.299662  Gnorm:      0.000460  CPU:    5.425
  ** Hessian has required structure
  Cycle:     36 Energy:     -2933.299666  Gnorm:      0.000276  CPU:    5.571
  ** Hessian has required structure
  Cycle:     37 Energy:     -2933.299667  Gnorm:      0.000193  CPU:    5.701
  ** Hessian has required structure


  **** Optimisation achieved ****


  Final energy =   -2933.29967051 eV      
  Final Gnorm  =       0.00011594

  Components of energy : 

--------------------------------------------------------------------------------
  Interatomic potentials     =         770.06985034 eV    
  Three-body potentials      =           0.00000000 eV    
  Monopole - monopole (real) =       -1503.29487585 eV    
  Monopole - monopole (recip)=       -2200.07464499 eV    
  Monopole - monopole (total)=       -3703.36952085 eV    
--------------------------------------------------------------------------------
  Total lattice energy       =       -2933.29967051 eV    
--------------------------------------------------------------------------------
  Total lattice energy       =         -283018.5786 kJ/(mole unit cells)
--------------------------------------------------------------------------------

  Final fractional coordinates of atoms :

--------------------------------------------------------------------------------
   No.  Atomic        x           y          z          Radius
        Label       (Frac)      (Frac)     (Frac)       (Angs) 
--------------------------------------------------------------------------------
     1  Ge    c     0.052090    0.000000    0.372270    0.000000
     2  Ge    c     0.442097    0.023519    0.370170    0.000000
     3  Ge    c     0.948149    0.977376    0.625900    0.000000
     4  Ge    c     0.547823    0.009425    0.621011    0.000000
     5  Ge    c     0.550323    0.016620    0.123177    0.000000
     6  Ge    c     0.940449    0.981445    0.127863    0.000000
     7  Ge    c     0.442707    0.998003    0.874605    0.000000
     8  Ge    c     0.162074    0.295514    0.263664    0.000000
     9  Ge    c     0.325513    0.734397    0.249742    0.000000
    10  Ge    c     0.827707    0.263536    0.696872    0.000000
    11  Ge    c     0.667739    0.725709    0.694933    0.000000
    12  Ge    c     0.847656    0.666877    0.699634    0.000000
    13  Ge    c     0.648014    0.322651    0.692404    0.000000
    14  Ge    c     0.343121    0.332460    0.262532    0.000000
    15  Ge    c     0.643556    0.328042    0.005826    0.000000
    16  Ge    c     0.848073    0.666197    0.012613    0.000000
    17  Ge    c     0.338094    0.311417    0.948345    0.000000
    18  Ge    c     0.143688    0.681515    0.946505    0.000000
    19  Ge    c     0.323908    0.714835    0.936590    0.000000
    20  Ge    c     0.156365    0.276497    0.952679    0.000000
    21  Ge    c     0.667935    0.730541    0.007311    0.000000
    22  Ge    c     0.823605    0.263729    0.009704    0.000000
    23  Si    c     0.043733    0.991838    0.882203    0.000000
    24  Si    c     0.149113    0.692205    0.252426    0.000000
    25  O1    c     0.111400    0.168010    0.361611    0.000000
    26  O1    c     0.370439    0.886471    0.336245    0.000000
    27  O1    c     0.879381    0.127964    0.602833    0.000000
    28  O1    c     0.616793    0.858503    0.599173    0.000000
    29  O1    c     0.908831    0.781466    0.609347    0.000000
    30  O1    c     0.586796    0.205107    0.601191    0.000000
    31  O3    c     0.094081    0.808146    0.336130    0.000000
    32  O1    c     0.406815    0.224175    0.353696    0.000000
    33  O1    c     0.024303    0.997334    0.530539    0.000000
    34  O1    c     0.470342    0.987696    0.526092    0.000000
    35  O1    c     0.972003    0.017344    0.281735    0.000000
    36  O1    c     0.521567    0.997046    0.279911    0.000000
    37  O3    c     0.974920    0.009011    0.786129    0.000000
    38  O1    c     0.519178    0.986495    0.778560    0.000000
    39  O1    c     0.579130    0.219156    0.092740    0.000000
    40  O1    c     0.910019    0.777969    0.106102    0.000000
    41  O1    c     0.397251    0.189067    0.857907    0.000000
    42  O3    c     0.080526    0.805900    0.864378    0.000000
    43  O1    c     0.377512    0.842186    0.844027    0.000000
    44  O3    c     0.106506    0.134079    0.859660    0.000000
    45  O1    c     0.623406    0.878002    0.100921    0.000000
    46  O1    c     0.866926    0.117944    0.103880    0.000000
    47  O1    c     0.473295    0.971009    0.030488    0.000000
    48  O3    c     0.015382    0.020894    0.027817    0.000000
    49  O3    c     0.155662    0.506681    0.312144    0.000000
    50  O1    c     0.340628    0.538642    0.314730    0.000000
    51  O1    c     0.838520    0.466040    0.640420    0.000000
    52  O1    c     0.657287    0.522407    0.635454    0.000000
    53  O1    c     0.255383    0.243817    0.270780    0.000000
    54  O3    c     0.230239    0.779326    0.247843    0.000000
    55  O1    c     0.733543    0.219413    0.692953    0.000000
    56  O1    c     0.761766    0.769562    0.697383    0.000000
    57  O1    c     0.127723    0.273285    0.110442    0.000000
    58  O1    c     0.355297    0.728429    0.093509    0.000000
    59  O1    c     0.856690    0.254969    0.854913    0.000000
    60  O1    c     0.635826    0.738102    0.851228    0.000000
    61  O1    c     0.879251    0.658359    0.856171    0.000000
    62  O1    c     0.614771    0.334790    0.847752    0.000000
    63  O3    c     0.117853    0.676093    0.107265    0.000000
    64  O1    c     0.371224    0.321550    0.104151    0.000000
    65  O1    c     0.651904    0.530272    0.064544    0.000000
    66  O1    c     0.838670    0.465503    0.069246    0.000000
    67  O1    c     0.331846    0.508789    0.884266    0.000000
    68  O1    c     0.143960    0.476805    0.891627    0.000000
    69  O1    c     0.728981    0.226201    0.009462    0.000000
    70  O1    c     0.762370    0.767558    0.010685    0.000000
    71  O1    c     0.249790    0.224699    0.951361    0.000000
    72  O1    c     0.230615    0.769429    0.931347    0.000000
    73  O1    s     0.110765    0.164972    0.354783    0.000000
    74  O1    s     0.372329    0.884711    0.331830    0.000000
    75  O1    s     0.880508    0.127232    0.611656    0.000000
    76  O1    s     0.615581    0.859508    0.608010    0.000000
    77  O1    s     0.907200    0.787564    0.617299    0.000000
    78  O1    s     0.588473    0.199462    0.609376    0.000000
    79  O3    s     0.096303    0.811867    0.330512    0.000000
    80  O1    s     0.404583    0.217347    0.347965    0.000000
    81  O1    s     0.020248    0.995890    0.526344    0.000000
    82  O1    s     0.474278    0.992066    0.521953    0.000000
    83  O1    s     0.975680    0.013269    0.277001    0.000000
    84  O1    s     0.517724    0.000528    0.275111    0.000000
    85  O3    s     0.979939    0.004772    0.783946    0.000000
    86  O1    s     0.515182    0.989145    0.774823    0.000000
    87  O1    s     0.581931    0.212510    0.088351    0.000000
    88  O1    s     0.907589    0.784751    0.100653    0.000000
    89  O1    s     0.396035    0.184482    0.866071    0.000000
    90  O3    s     0.082191    0.813083    0.872568    0.000000
    91  O1    s     0.378097    0.843582    0.853351    0.000000
    92  O3    s     0.104590    0.132126    0.869166    0.000000
    93  O1    s     0.621280    0.877064    0.095246    0.000000
    94  O1    s     0.869157    0.118995    0.098242    0.000000
    95  O1    s     0.476821    0.976472    0.026075    0.000000
    96  O3    s     0.012214    0.015022    0.021935    0.000000
    97  O3    s     0.155514    0.508536    0.302768    0.000000
    98  O1    s     0.339698    0.537724    0.305999    0.000000
    99  O1    s     0.838437    0.466794    0.649039    0.000000
   100  O1    s     0.657327    0.521686    0.644112    0.000000
   101  O1    s     0.254777    0.254248    0.269642    0.000000
   102  O3    s     0.229921    0.767576    0.248405    0.000000
   103  O1    s     0.734312    0.230107    0.693216    0.000000
   104  O1    s     0.760907    0.758980    0.697373    0.000000
   105  O1    s     0.132467    0.275214    0.110384    0.000000
   106  O1    s     0.350719    0.727872    0.093913    0.000000
   107  O1    s     0.852068    0.256265    0.854854    0.000000
   108  O1    s     0.640514    0.736644    0.851384    0.000000
   109  O1    s     0.874633    0.659581    0.856194    0.000000
   110  O1    s     0.619309    0.333387    0.848056    0.000000
   111  O3    s     0.122810    0.678051    0.108635    0.000000
   112  O1    s     0.366749    0.321556    0.104304    0.000000
   113  O1    s     0.652429    0.529567    0.056027    0.000000
   114  O1    s     0.838300    0.466134    0.060699    0.000000
   115  O1    s     0.331730    0.509070    0.893019    0.000000
   116  O1    s     0.144825    0.477846    0.900161    0.000000
   117  O1    s     0.729723    0.236546    0.009200    0.000000
   118  O1    s     0.761542    0.757289    0.010561    0.000000
   119  O1    s     0.249225    0.234949    0.951247    0.000000
   120  O1    s     0.231032    0.758691    0.932895    0.000000
--------------------------------------------------------------------------------

  Final Cartesian lattice vectors (Angstroms) :

       17.827262    0.065612   -0.036335
        0.028709    7.916973   -0.048877
       -0.022266   -0.069117   10.385237


  Final cell parameters and derivatives :

--------------------------------------------------------------------------------
       a           17.827420 Angstrom     dE/de1(xx)    -0.001083 eV/strain
       b            7.917175 Angstrom     dE/de2(yy)     0.000100 eV/strain
       c           10.385491 Angstrom     dE/de3(zz)    -0.001892 eV/strain
       alpha       90.735477 Degrees      dE/de4(yz)    -0.000135 eV/strain
       beta        90.241019 Degrees      dE/de5(xz)     0.000158 eV/strain
       gamma       89.580647 Degrees      dE/de6(xy)    -0.000343 eV/strain
--------------------------------------------------------------------------------

  Primitive cell volume =          1465.664986 Angs**3

  Density of cell =      2.743618 g/cm**3

  Non-primitive cell volume =          1465.664986 Angs**3


  Final internal derivatives :

--------------------------------------------------------------------------------
   No.  Atomic          a             b             c           Radius
        Label          (eV)          (eV)          (eV)        (eV/Angs)
--------------------------------------------------------------------------------
      1 Ge    c       0.000000      0.000000      0.000000      0.000000
      2 Ge    c      -0.003017      0.003428     -0.000298      0.000000
      3 Ge    c       0.000269     -0.001202      0.004468      0.000000
      4 Ge    c      -0.008547     -0.000410      0.002659      0.000000
      5 Ge    c       0.002386     -0.000414      0.002423      0.000000
      6 Ge    c      -0.002105     -0.002768     -0.001382      0.000000
      7 Ge    c      -0.002605      0.000865      0.000726      0.000000
      8 Ge    c      -0.000038     -0.000329      0.000449      0.000000
      9 Ge    c      -0.001337      0.001014     -0.000402      0.000000
     10 Ge    c       0.001626     -0.000506      0.000891      0.000000
     11 Ge    c      -0.001041      0.000669      0.000323      0.000000
     12 Ge    c       0.002051      0.000791      0.000874      0.000000
     13 Ge    c       0.001529      0.000612      0.002823      0.000000
     14 Ge    c      -0.000493     -0.000473     -0.000240      0.000000
     15 Ge    c       0.003121      0.000505      0.000026      0.000000
     16 Ge    c       0.000825      0.000651      0.000308      0.000000
     17 Ge    c       0.000771     -0.000688     -0.000230      0.000000
     18 Ge    c       0.001305     -0.000962      0.001387      0.000000
     19 Ge    c       0.000553     -0.000058      0.001412      0.000000
     20 Ge    c       0.000092     -0.001061     -0.000071      0.000000
     21 Ge    c      -0.001332      0.000694      0.000579      0.000000
     22 Ge    c       0.000417     -0.000455     -0.000482      0.000000
     23 Si    c       0.000930      0.000157      0.002428      0.000000
     24 Si    c       0.007250     -0.001694     -0.001383      0.000000
     25 O1    c       0.000363     -0.000083     -0.000249      0.000000
     26 O1    c      -0.002737     -0.001951      0.000252      0.000000
     27 O1    c      -0.002075      0.001997      0.000978      0.000000
     28 O1    c       0.006217     -0.003740      0.000821      0.000000
     29 O1    c       0.000540      0.000675     -0.001075      0.000000
     30 O1    c      -0.002402     -0.000024     -0.005013      0.000000
     31 O3    c      -0.006833      0.002230      0.004297      0.000000
     32 O1    c       0.008819     -0.008209      0.000786      0.000000
     33 O1    c       0.008558     -0.000068     -0.004615      0.000000
     34 O1    c       0.004079      0.000020     -0.002244      0.000000
     35 O1    c      -0.001542      0.000440      0.002057      0.000000
     36 O1    c      -0.004243      0.000517      0.000510      0.000000
     37 O3    c      -0.009141      0.000829     -0.006326      0.000000
     38 O1    c       0.006080     -0.000649     -0.004812      0.000000
     39 O1    c      -0.003576     -0.000498      0.002040      0.000000
     40 O1    c       0.003591      0.003379     -0.000691      0.000000
     41 O1    c       0.001778     -0.002954      0.000750      0.000000
     42 O3    c      -0.004187      0.003497     -0.001806      0.000000
     43 O1    c       0.003293      0.001661      0.000730      0.000000
     44 O3    c       0.000963      0.000180     -0.000016      0.000000
     45 O1    c       0.002059     -0.000562     -0.002061      0.000000
     46 O1    c      -0.005858      0.002990     -0.000732      0.000000
     47 O1    c      -0.004954     -0.000500     -0.006024      0.000000
     48 O3    c       0.002289     -0.000201     -0.002973      0.000000
     49 O3    c      -0.000971      0.001823     -0.000494      0.000000
     50 O1    c       0.000111     -0.001285     -0.001449      0.000000
     51 O1    c       0.000182     -0.000554     -0.000338      0.000000
     52 O1    c      -0.000411      0.000591     -0.001499      0.000000
     53 O1    c       0.005852      0.000793      0.000251      0.000000
     54 O3    c      -0.004569     -0.001108     -0.000273      0.000000
     55 O1    c       0.001966     -0.001750      0.000197      0.000000
     56 O1    c      -0.001039      0.001483     -0.000173      0.000000
     57 O1    c       0.000304      0.000651      0.000598      0.000000
     58 O1    c      -0.001938     -0.000574     -0.000705      0.000000
     59 O1    c      -0.000345      0.000341     -0.000335      0.000000
     60 O1    c       0.000450      0.000004      0.000093      0.000000
     61 O1    c      -0.001688     -0.000759      0.000061      0.000000
     62 O1    c      -0.002084     -0.000456     -0.003391      0.000000
     63 O3    c      -0.003571      0.000516     -0.002552      0.000000
     64 O1    c      -0.001981      0.000939      0.000304      0.000000
     65 O1    c       0.000608     -0.001504      0.000234      0.000000
     66 O1    c      -0.000584      0.001223     -0.000199      0.000000
     67 O1    c      -0.001056     -0.000516      0.001286      0.000000
     68 O1    c       0.000441      0.002437     -0.000363      0.000000
     69 O1    c      -0.003511     -0.000278     -0.000230      0.000000
     70 O1    c       0.004231      0.000240      0.000202      0.000000
     71 O1    c       0.003009      0.000472     -0.000722      0.000000
     72 O1    c      -0.001197      0.000411     -0.000229      0.000000
     73 O1    s      -0.000348      0.000081     -0.000340      0.000000
     74 O1    s       0.004701      0.001060      0.000434      0.000000
     75 O1    s       0.000663     -0.000986     -0.001260      0.000000
     76 O1    s      -0.003030      0.001983     -0.001852      0.000000
     77 O1    s       0.001163     -0.000312      0.000741      0.000000
     78 O1    s      -0.001881      0.000205      0.001781      0.000000
     79 O3    s       0.003310     -0.000865      0.000289      0.000000
     80 O1    s      -0.004587      0.003841     -0.000510      0.000000
     81 O1    s      -0.004557     -0.000156      0.003646      0.000000
     82 O1    s      -0.001137      0.001528      0.000450      0.000000
     83 O1    s       0.001017     -0.000290     -0.001637      0.000000
     84 O1    s      -0.001050     -0.000026      0.000192      0.000000
     85 O3    s       0.006204     -0.001131      0.005050      0.000000
     86 O1    s      -0.007671      0.000553      0.004314      0.000000
     87 O1    s       0.001249      0.000475     -0.000365      0.000000
     88 O1    s      -0.001649     -0.002187     -0.000766      0.000000
     89 O1    s       0.001049      0.001049     -0.000322      0.000000
     90 O3    s      -0.001010     -0.001782      0.000106      0.000000
     91 O1    s      -0.000528     -0.000390     -0.000519      0.000000
     92 O3    s      -0.002004     -0.000272     -0.000575      0.000000
     93 O1    s      -0.002015     -0.000046      0.000767      0.000000
     94 O1    s       0.004392     -0.001591      0.000352      0.000000
     95 O1    s       0.000573      0.001140      0.003182      0.000000
     96 O3    s      -0.000196     -0.000698      0.001426      0.000000
     97 O3    s       0.002896     -0.001468     -0.000445      0.000000
     98 O1    s      -0.000583      0.000847      0.000392      0.000000
     99 O1    s      -0.000505      0.000200     -0.000119      0.000000
    100 O1    s       0.001124      0.000378      0.000930      0.000000
    101 O1    s      -0.002488      0.000086     -0.001032      0.000000
    102 O3    s       0.003930     -0.000313     -0.000577      0.000000
    103 O1    s       0.000005      0.001287     -0.000527      0.000000
    104 O1    s       0.000570     -0.001426      0.000179      0.000000
    105 O1    s       0.000207     -0.000040     -0.000509      0.000000
    106 O1    s       0.001625      0.000536      0.000283      0.000000
    107 O1    s       0.000118     -0.000338      0.000422      0.000000
    108 O1    s      -0.000480     -0.000566     -0.000185      0.000000
    109 O1    s       0.000655      0.000569      0.000412      0.000000
    110 O1    s      -0.000580      0.000481      0.001609      0.000000
    111 O3    s       0.001397     -0.000451      0.000585      0.000000
    112 O1    s      -0.001281     -0.001099     -0.000643      0.000000
    113 O1    s      -0.000548      0.001282      0.000177      0.000000
    114 O1    s       0.000876     -0.000479      0.000264      0.000000
    115 O1    s       0.002178      0.000194     -0.000104      0.000000
    116 O1    s      -0.000843     -0.001509      0.000531      0.000000
    117 O1    s       0.003231      0.000189      0.000398      0.000000
    118 O1    s      -0.001592     -0.000136     -0.000406      0.000000
    119 O1    s      -0.000565     -0.000082      0.001357      0.000000
    120 O1    s       0.001285     -0.000272      0.000168      0.000000
--------------------------------------------------------------------------------
  Maximum abs         0.009141      0.008209      0.006326      0.000000
--------------------------------------------------------------------------------


  Born effective charge tensors : 

-------------------------------------------------------------------------------
  Atom             x           y             z
-------------------------------------------------------------------------------
    1 Ge    x       4.0627      0.0186     -0.3899
            y       0.1916      3.9530      0.0557
            z      -0.1974     -0.0054      4.5403
-------------------------------------------------------------------------------
    2 Ge    x       4.2495     -0.1844      0.4352
            y       0.1667      3.9029      0.0009
            z       0.2326     -0.1576      4.4531
-------------------------------------------------------------------------------
    3 Ge    x       4.1456      0.1583      0.0590
            y      -0.1089      3.9135     -0.0412
            z      -0.8420     -0.0643      4.2099
-------------------------------------------------------------------------------
    4 Ge    x       4.1984      0.1327     -0.0791
            y      -0.1470      3.9054     -0.0361
            z       0.7778      0.0163      4.2134
-------------------------------------------------------------------------------
    5 Ge    x       4.3088      0.1740     -0.3735
            y      -0.2064      3.9208     -0.0344
            z      -0.3051     -0.0857      3.9646
-------------------------------------------------------------------------------
    6 Ge    x       4.1881      0.1748      0.4120
            y      -0.2223      3.9277      0.0195
            z       0.3425      0.1190      3.9134
-------------------------------------------------------------------------------
    7 Ge    x       4.3609     -0.0788      0.0400
            y       0.1081      3.9222      0.0338
            z      -0.6594     -0.0073      3.6778
-------------------------------------------------------------------------------
    8 Ge    x       3.9425      0.2014     -0.2114
            y       0.3649      4.1715     -0.1708
            z       0.0038     -0.2514      3.5908
-------------------------------------------------------------------------------
    9 Ge    x       3.8648      0.2738      0.2729
            y       0.3089      4.2207      0.0662
            z       0.0315      0.2218      3.6043
-------------------------------------------------------------------------------
   10 Ge    x       4.0415     -0.2556     -0.2849
            y      -0.3285      4.1757      0.0773
            z      -0.0110      0.1302      3.5664
-------------------------------------------------------------------------------
   11 Ge    x       4.0325     -0.2322      0.3113
            y      -0.3158      4.1652     -0.0852
            z       0.0394     -0.1385      3.5682
-------------------------------------------------------------------------------
   12 Ge    x       3.9568      0.1237     -0.2030
            y       0.4425      4.1841     -0.0842
            z      -0.0267     -0.1744      3.5767
-------------------------------------------------------------------------------
   13 Ge    x       3.9646      0.1148      0.2176
            y       0.4309      4.1819      0.0855
            z       0.0518      0.1793      3.5688
-------------------------------------------------------------------------------
   14 Ge    x       3.9959     -0.1177      0.2218
            y      -0.4399      4.1578     -0.0902
            z       0.0995     -0.1573      3.5974
-------------------------------------------------------------------------------
   15 Ge    x       4.0619      0.0934     -0.2932
            y       0.4280      4.1616     -0.0806
            z      -0.1258     -0.1823      3.5128
-------------------------------------------------------------------------------
   16 Ge    x       4.0405      0.1002      0.3079
            y       0.4366      4.1722      0.0846
            z       0.1068      0.1599      3.4907
-------------------------------------------------------------------------------
   17 Ge    x       4.0731     -0.1551     -0.2984
            y      -0.4046      4.1480      0.0620
            z      -0.0843      0.1488      3.4754
-------------------------------------------------------------------------------
   18 Ge    x       3.9361     -0.0721      0.2370
            y      -0.3735      4.1878     -0.0606
            z       0.0412     -0.1512      3.3272
-------------------------------------------------------------------------------
   19 Ge    x       4.1041      0.2098     -0.3355
            y       0.3245      4.1615     -0.0999
            z      -0.0769     -0.1374      3.4614
-------------------------------------------------------------------------------
   20 Ge    x       3.9872      0.1944      0.3088
            y       0.2491      4.2096      0.0469
            z      -0.0009      0.1049      3.4040
-------------------------------------------------------------------------------
   21 Ge    x       4.0425     -0.2288     -0.3222
            y      -0.2291      4.2181      0.0959
            z      -0.0243      0.1999      3.5306
-------------------------------------------------------------------------------
   22 Ge    x       4.0366     -0.2345      0.3157
            y      -0.2358      4.2269     -0.1113
            z       0.0148     -0.2072      3.5148
-------------------------------------------------------------------------------
   23 Si    x       3.8919     -0.1177     -0.0136
            y       0.1604      3.7026     -0.0287
            z       0.6554     -0.0356      3.4310
-------------------------------------------------------------------------------
   24 Si    x       3.6606     -0.1027     -0.2185
            y      -0.3975      3.8856      0.0530
            z      -0.0450      0.2080      3.3527
-------------------------------------------------------------------------------
   25 O1    x      -2.0376     -0.9343      0.5058
            y      -0.9926     -2.4940      0.5215
            z       0.4838      0.5478     -1.6921
-------------------------------------------------------------------------------
   26 O1    x      -2.2139     -0.9608     -0.5727
            y      -0.9998     -2.3972     -0.5731
            z      -0.5132     -0.5611     -1.6533
-------------------------------------------------------------------------------
   27 O1    x      -2.2024      0.9453      0.2827
            y       1.0017     -2.3108     -0.3220
            z       0.3565     -0.3278     -1.6247
-------------------------------------------------------------------------------
   28 O1    x      -2.1813      0.9223     -0.3155
            y       0.9925     -2.3119      0.3535
            z      -0.3881      0.3612     -1.6132
-------------------------------------------------------------------------------
   29 O1    x      -1.9909     -0.9172      0.3465
            y      -0.8694     -2.4849      0.3259
            z       0.4230      0.3561     -1.6098
-------------------------------------------------------------------------------
   30 O1    x      -1.9923     -0.8960     -0.3551
            y      -0.8512     -2.4739     -0.3014
            z      -0.4361     -0.3529     -1.6002
-------------------------------------------------------------------------------
   31 O3    x      -1.8882      0.8634      0.5457
            y       0.8192     -2.3046     -0.5733
            z       0.4806     -0.5880     -1.6249
-------------------------------------------------------------------------------
   32 O1    x      -1.9918      0.8582     -0.5133
            y       0.8330     -2.4962      0.4934
            z      -0.4736      0.4970     -1.6553
-------------------------------------------------------------------------------
   33 O1    x      -2.0689     -0.0849      0.9880
            y      -0.0691     -1.2620      0.0698
            z       1.2457      0.1230     -3.2161
-------------------------------------------------------------------------------
   34 O1    x      -2.1045      0.0104     -0.9535
            y      -0.0218     -1.2679      0.0546
            z      -1.1745      0.1065     -3.0802
-------------------------------------------------------------------------------
   35 O1    x      -2.1507     -0.0280     -0.8526
            y       0.0472     -1.2916     -0.0425
            z      -0.8602     -0.1147     -2.7409
-------------------------------------------------------------------------------
   36 O1    x      -2.1366      0.0277      0.8421
            y       0.0595     -1.2723     -0.0138
            z       0.8515      0.0327     -2.7550
-------------------------------------------------------------------------------
   37 O3    x      -2.0391      0.0266     -0.8746
            y       0.0338     -1.2509      0.0044
            z      -0.8511     -0.0134     -2.4676
-------------------------------------------------------------------------------
   38 O1    x      -2.1920     -0.0135      0.8907
            y       0.0161     -1.3067      0.0370
            z       0.8749      0.0545     -2.6193
-------------------------------------------------------------------------------
   39 O1    x      -2.0401     -0.8493      0.5512
            y      -0.7701     -2.4992      0.5492
            z       0.4761      0.5327     -1.5656
-------------------------------------------------------------------------------
   40 O1    x      -2.0084     -0.8591     -0.5215
            y      -0.7796     -2.5186     -0.5106
            z      -0.4375     -0.4801     -1.5458
-------------------------------------------------------------------------------
   41 O1    x      -2.0836      0.9227      0.3715
            y       0.8926     -2.4699     -0.3375
            z       0.4125     -0.3593     -1.4819
-------------------------------------------------------------------------------
   42 O3    x      -1.8841      0.8531     -0.2743
            y       0.8041     -2.4338      0.2406
            z      -0.3353      0.2868     -1.3461
-------------------------------------------------------------------------------
   43 O1    x      -2.2318     -0.9468      0.3066
            y      -0.9926     -2.3113      0.2911
            z       0.3710      0.3233     -1.5133
-------------------------------------------------------------------------------
   44 O3    x      -2.0692     -0.9061     -0.2235
            y      -0.9436     -2.2573     -0.2443
            z      -0.2704     -0.2476     -1.3608
-------------------------------------------------------------------------------
   45 O1    x      -2.2390      0.9455      0.5522
            y       0.9573     -2.3415     -0.5380
            z       0.4793     -0.5277     -1.5858
-------------------------------------------------------------------------------
   46 O1    x      -2.2335      0.9341     -0.5521
            y       0.9542     -2.3333      0.5593
            z      -0.4634      0.5264     -1.5907
-------------------------------------------------------------------------------
   47 O1    x      -2.1942     -0.1081     -0.7556
            y      -0.0939     -1.3483     -0.0422
            z      -0.5343     -0.0146     -2.2793
-------------------------------------------------------------------------------
   48 O3    x      -1.9306     -0.0446      0.6831
            y      -0.0507     -1.2831      0.0112
            z       0.4829     -0.0117     -2.2237
-------------------------------------------------------------------------------
   49 O3    x      -1.2408      0.1059      0.0424
            y       0.1397     -3.0535      0.1773
            z       0.0033      0.1619     -1.3051
-------------------------------------------------------------------------------
   50 O1    x      -1.3442      0.1489     -0.0984
            y       0.1948     -3.1838      0.0778
            z      -0.0616      0.0637     -1.3783
-------------------------------------------------------------------------------
   51 O1    x      -1.3344     -0.1494      0.0659
            y      -0.2224     -3.1942     -0.0176
            z       0.0229     -0.0118     -1.3765
-------------------------------------------------------------------------------
   52 O1    x      -1.3356     -0.1509     -0.0711
            y      -0.2209     -3.1849      0.0081
            z      -0.0270      0.0107     -1.3799
-------------------------------------------------------------------------------
   53 O1    x      -3.0748     -0.1315      0.0062
            y      -0.0602     -1.5476      0.0314
            z      -0.0068      0.0656     -1.2170
-------------------------------------------------------------------------------
   54 O3    x      -2.8773     -0.2470      0.0231
            y      -0.2079     -1.4615      0.0036
            z       0.0097     -0.0412     -1.1536
-------------------------------------------------------------------------------
   55 O1    x      -3.0750      0.2160     -0.0188
            y       0.1428     -1.5592     -0.0095
            z      -0.0518     -0.0377     -1.2167
-------------------------------------------------------------------------------
   56 O1    x      -3.0738      0.2093     -0.0339
            y       0.1369     -1.5575      0.0144
            z      -0.0041      0.0437     -1.2152
-------------------------------------------------------------------------------
   57 O1    x      -1.4346     -0.1044     -0.0914
            y      -0.1359     -1.4570     -0.1047
            z      -0.0836     -0.0781     -2.7192
-------------------------------------------------------------------------------
   58 O1    x      -1.4868     -0.0844      0.0692
            y      -0.1080     -1.4193     -0.0243
            z       0.0427     -0.0545     -2.7297
-------------------------------------------------------------------------------
   59 O1    x      -1.4739      0.1012      0.0172
            y       0.1129     -1.4267     -0.0044
            z       0.0181      0.0147     -2.7195
-------------------------------------------------------------------------------
   60 O1    x      -1.4797      0.0967      0.0176
            y       0.1123     -1.4256      0.0117
            z       0.0099     -0.0064     -2.7247
-------------------------------------------------------------------------------
   61 O1    x      -1.4807     -0.0492     -0.0228
            y      -0.1145     -1.4126      0.0061
            z      -0.0350      0.0160     -2.7265
-------------------------------------------------------------------------------
   62 O1    x      -1.4792     -0.0427      0.0534
            y      -0.1063     -1.4136     -0.0060
            z       0.0621     -0.0159     -2.7471
-------------------------------------------------------------------------------
   63 O3    x      -1.3773      0.0420     -0.1942
            y       0.1067     -1.3446     -0.0167
            z      -0.1517     -0.0317     -2.5933
-------------------------------------------------------------------------------
   64 O1    x      -1.4867      0.0687      0.0021
            y       0.1227     -1.4140     -0.0689
            z      -0.0051     -0.0723     -2.7388
-------------------------------------------------------------------------------
   65 O1    x      -1.3821     -0.1860      0.0935
            y      -0.2706     -3.1890     -0.0083
            z       0.0448      0.0017     -1.3435
-------------------------------------------------------------------------------
   66 O1    x      -1.3751     -0.1843     -0.0875
            y      -0.2735     -3.1946      0.0083
            z      -0.0363      0.0021     -1.3390
-------------------------------------------------------------------------------
   67 O1    x      -1.3563      0.1167      0.0838
            y       0.1543     -3.1884      0.0832
            z       0.0336      0.0485     -1.3428
-------------------------------------------------------------------------------
   68 O1    x      -1.3385      0.0677     -0.1124
            y       0.1449     -3.2868      0.0243
            z      -0.0506     -0.0059     -1.3490
-------------------------------------------------------------------------------
   69 O1    x      -3.1247      0.2420     -0.0153
            y       0.1752     -1.5501      0.0232
            z      -0.0063      0.0538     -1.1969
-------------------------------------------------------------------------------
   70 O1    x      -3.1247      0.2407     -0.0328
            y       0.1698     -1.5452     -0.0119
            z      -0.0260     -0.0421     -1.1959
-------------------------------------------------------------------------------
   71 O1    x      -3.1581     -0.1471      0.0169
            y      -0.1227     -1.5349     -0.0126
            z       0.0464     -0.0375     -1.1845
-------------------------------------------------------------------------------
   72 O1    x      -3.1286     -0.1298      0.0695
            y      -0.0497     -1.5101      0.0447
            z       0.0539      0.0707     -1.2077
-------------------------------------------------------------------------------




  Elastic Constant Matrix: (Units=GPa)

-------------------------------------------------------------------------------
  Indices      1         2         3         4         5         6    
-------------------------------------------------------------------------------
       1     39.0374   18.6183   14.3463   -1.4130   -1.8082    1.3144
       2     18.6183   32.0503   13.7747   -1.5862   -2.3745   -0.7310
       3     14.3463   13.7747   16.2330   -1.2606   -0.0364    0.1231
       4     -1.4130   -1.5862   -1.2606    7.3782    0.3060   -0.5457
       5     -1.8082   -2.3745   -0.0364    0.3060   15.5601   -2.1572
       6      1.3144   -0.7310    0.1231   -0.5457   -2.1572   16.4088
-------------------------------------------------------------------------------


  Elastic Compliance Matrix: (Units=1/GPa)

-------------------------------------------------------------------------------
  Indices      1         2         3         4         5         6    
-------------------------------------------------------------------------------
       1    0.041425 -0.012975 -0.025536  0.000435  0.002296 -0.003389
       2   -0.012975  0.054341 -0.034403  0.003372  0.007302  0.004791
       3   -0.025536 -0.034403  0.113931  0.007434 -0.008261 -0.001181
       4    0.000435  0.003372  0.007434  0.138005 -0.001515  0.004450
       5    0.002296  0.007302 -0.008261 -0.001515  0.066899  0.008948
       6   -0.003389  0.004791 -0.001181  0.004450  0.008948  0.062761
-------------------------------------------------------------------------------

  Mechanical properties :

-------------------------------------------------------------------------------
  Convention :                    Reuss         Voigt         Hill
-------------------------------------------------------------------------------
  Bulk  Modulus (GPa)     =      15.65673      20.08881      17.87277
  Shear Modulus (GPa)     =       7.75819      10.57485       9.16652
-------------------------------------------------------------------------------
  Velocity S-wave (km/s)  =       1.68158       1.96325       1.82785
  Velocity P-wave (km/s)  =       3.07846       3.53003       3.31195
-------------------------------------------------------------------------------
  Compressibility (1/GPa) =    0.06387030
-------------------------------------------------------------------------------
  Stress axis :                     x             y             z
-------------------------------------------------------------------------------
  Youngs Moduli (GPa)     =      24.13977      18.40220       8.77725
-------------------------------------------------------------------------------
  Poissons Ratio (x)      =                     0.23877       0.22413
  Poissons Ratio (y)      =       0.31322                     0.30196
  Poissons Ratio (z)      =       0.61643       0.63309
-------------------------------------------------------------------------------


  Piezoelectric Strain Matrix: (Units=C/m**2)

-------------------------------------------------------------------------------
  Indices      1         2         3         4         5         6    
-------------------------------------------------------------------------------
       x    -0.38589  -0.41719  -0.17991  -0.01145  -0.59455  -0.19971
       y    -0.01306  -0.18154  -0.16337  -0.80197   0.46036  -0.22641
       z    -1.00591  -0.99490   0.83067  -0.27645  -0.25694  -0.01763
-------------------------------------------------------------------------------


  Piezoelectric Stress Matrix: (Units=10**-11 C/N)

-------------------------------------------------------------------------------
  Indices      1         2         3         4         5         6    
-------------------------------------------------------------------------------
       x    -0.66716  -1.68113   0.87714  -0.44797  -4.39905  -1.83835
       y     0.74615  -0.45024  -2.15312 -11.42126   2.99806  -1.42914
       z    -5.06231  -7.24821  15.46405  -3.54574  -3.33643  -0.69741
-------------------------------------------------------------------------------


  Static dielectric constant tensor : 

-------------------------------------------------------------------------------
              x         y         z
-------------------------------------------------------------------------------
       x     5.31251   0.03156  -0.02710
       y     0.03156   6.28065  -0.05352
       z    -0.02710  -0.05352   4.18760
--------------------------------------------------------------------------------

  High frequency dielectric constant tensor : 

-------------------------------------------------------------------------------
              x         y         z
-------------------------------------------------------------------------------
       x     1.52106   0.00009   0.00067
       y     0.00009   1.52421  -0.00067
       z     0.00067  -0.00067   1.48279
-------------------------------------------------------------------------------

  Static refractive indices : 

-------------------------------------------------------------------------------
    1 =    2.04588      2 =    2.30479      3 =    2.50661
-------------------------------------------------------------------------------

  High frequency refractive indices : 

-------------------------------------------------------------------------------
    1 =    1.21769      2 =    1.23332      3 =    1.23459
-------------------------------------------------------------------------------


  Time to end of optimisation =       6.0329 seconds


  Peak dynamic memory used =       5.01 MB 


  Timing analysis for GULP :

--------------------------------------------------------------------------------
  Task / Subroutine                                          Time (Seconds)
--------------------------------------------------------------------------------
  Calculation of reciprocal space energy and derivatives          0.4337
  Calculation of real space energy and derivatives                4.3926
  Calculation of three-body energy and derivatives                0.0347
  Calculation and manipulation of Hessian matrix                  1.3717
  Calculation of matrix inversion                                 0.0347
--------------------------------------------------------------------------------
  Total CPU time                                                  6.0329
--------------------------------------------------------------------------------


  Dump file written as c00028.vasp.grs
  CIF file written as c00028.vasp.cif


  Job Finished at 18:38.23 30th October    2025                               

