********************************************************************************
*                       GENERAL UTILITY LATTICE PROGRAM                        *
*                                 Julian Gale                                  *
*                       Curtin Institute for Computation                       *
*                    School of Molecular and Life Sciences                     *
*                    Curtin University, Western Australia                      *
********************************************************************************
* Version = 6.1.2 * Last modified =   3rd November 2022                        *
********************************************************************************
*  optimise     - perform optimisation run                                     *
*  conp         - constant pressure calculation                                *
*  property     - calculate properties for final geometry                      *
********************************************************************************

  Job Started  at 18:37.18 30th October    2025                               

  Number of CPUs =     1


  Total number of configurations input =      1

********************************************************************************
*  Input for Configuration =   1 : c00021.vasp                                 *
********************************************************************************

  Formula = Ge22Si2O48                                                  

  Number of irreducible atoms/shells =     120


  Total number atoms/shells =     120

  Dimensionality = 3               :  Bulk   



  Cartesian lattice vectors (Angstroms) :

       17.182800    0.000000    0.000000
        0.000000    7.513760    0.000000
        0.000000    0.000000   10.447700

  Cell parameters (Angstroms/Degrees):

  a =      17.1828    alpha =  90.0000
  b =       7.5138    beta  =  90.0000
  c =      10.4477    gamma =  90.0000

  Initial cell volume =        1348.875752 Angs**3

  Temperature of configuration =   0.00     K 

  Pressure of configuration =         0.000 GPa 

  Fractional coordinates of asymmetric unit :

--------------------------------------------------------------------------------
   No.  Atomic       x           y          z         Charge      Occupancy
        Label      (Frac)      (Frac)     (Frac)        (e)         (Frac)  
--------------------------------------------------------------------------------
      1 Ge    c    0.052090    0.000000    0.372270     4.00000    1.000000    
      2 Ge    c    0.447910 *  0.000000 *  0.372270 *   4.00000    1.000000    
      3 Ge    c    0.947910 *  0.000000 *  0.627730 *   4.00000    1.000000    
      4 Ge    c    0.552090 *  0.000000 *  0.627730 *   4.00000    1.000000    
      5 Ge    c    0.556730 *  0.000000 *  0.122130 *   4.00000    1.000000    
      6 Ge    c    0.943270 *  0.000000 *  0.122130 *   4.00000    1.000000    
      7 Ge    c    0.443270 *  0.000000 *  0.877870 *   4.00000    1.000000    
      8 Ge    c    0.056730 *  0.000000 *  0.877870 *   4.00000    1.000000    
      9 Ge    c    0.160190 *  0.293910 *  0.273440 *   4.00000    1.000000    
     10 Ge    c    0.339810 *  0.706090 *  0.273440 *   4.00000    1.000000    
     11 Ge    c    0.839810 *  0.293910 *  0.726560 *   4.00000    1.000000    
     12 Ge    c    0.839810 *  0.706090 *  0.726560 *   4.00000    1.000000    
     13 Ge    c    0.160190 *  0.706090 *  0.273440 *   4.00000    1.000000    
     14 Ge    c    0.339810 *  0.293910 *  0.273440 *   4.00000    1.000000    
     15 Ge    c    0.660660 *  0.294090 *  0.017440 *   4.00000    1.000000    
     16 Ge    c    0.839340 *  0.705910 *  0.017440 *   4.00000    1.000000    
     17 Ge    c    0.339340 *  0.294090 *  0.982560 *   4.00000    1.000000    
     18 Ge    c    0.160660 *  0.705910 *  0.982560 *   4.00000    1.000000    
     19 Ge    c    0.339340 *  0.705910 *  0.982560 *   4.00000    1.000000    
     20 Ge    c    0.160660 *  0.294090 *  0.982560 *   4.00000    1.000000    
     21 Ge    c    0.660660 *  0.705910 *  0.017440 *   4.00000    1.000000    
     22 Ge    c    0.839340 *  0.294090 *  0.017440 *   4.00000    1.000000    
     23 Si    c    0.660190 *  0.706090 *  0.726560 *   4.00000    1.000000    
     24 Si    c    0.660190 *  0.293910 *  0.726560 *   4.00000    1.000000    
     25 O1    c    0.106570 *  0.174340 *  0.366200 *   1.73396    1.000000    
     26 O1    c    0.393430 *  0.825660 *  0.366200 *   1.73396    1.000000    
     27 O1    c    0.893430 *  0.174340 *  0.633800 *   1.73396    1.000000    
     28 O3    c    0.606570 *  0.825660 *  0.633800 *   1.33043    1.000000    
     29 O1    c    0.893430 *  0.825660 *  0.633800 *   1.73396    1.000000    
     30 O3    c    0.606570 *  0.174340 *  0.633800 *   1.33043    1.000000    
     31 O1    c    0.106570 *  0.825660 *  0.366200 *   1.73396    1.000000    
     32 O1    c    0.393430 *  0.174340 *  0.366200 *   1.73396    1.000000    
     33 O1    c    0.000000 *  0.000000 *  0.500000 *   1.73396    1.000000    
     34 O1    c    0.500000 *  0.000000 *  0.500000 *   1.73396    1.000000    
     35 O1    c    0.994520 *  0.000000 *  0.250840 *   1.73396    1.000000    
     36 O1    c    0.505480 *  0.000000 *  0.250840 *   1.73396    1.000000    
     37 O1    c    0.005480 *  0.000000 *  0.749160 *   1.73396    1.000000    
     38 O1    c    0.494520 *  0.000000 *  0.749160 *   1.73396    1.000000    
     39 O1    c    0.610230 *  0.175520 *  0.115390 *   1.73396    1.000000    
     40 O1    c    0.889770 *  0.824480 *  0.115390 *   1.73396    1.000000    
     41 O1    c    0.389770 *  0.175520 *  0.884610 *   1.73396    1.000000    
     42 O1    c    0.110230 *  0.824480 *  0.884610 *   1.73396    1.000000    
     43 O1    c    0.389770 *  0.824480 *  0.884610 *   1.73396    1.000000    
     44 O1    c    0.110230 *  0.175520 *  0.884610 *   1.73396    1.000000    
     45 O1    c    0.610230 *  0.824480 *  0.115390 *   1.73396    1.000000    
     46 O1    c    0.889770 *  0.175520 *  0.115390 *   1.73396    1.000000    
     47 O1    c    0.500000 *  0.000000 *  0.000000 *   1.73396    1.000000    
     48 O1    c    0.000000 *  0.000000 *  0.000000 *   1.73396    1.000000    
     49 O1    c    0.151750 *  0.500000 *  0.313330 *   1.73396    1.000000    
     50 O1    c    0.348250 *  0.500000 *  0.313330 *   1.73396    1.000000    
     51 O1    c    0.848250 *  0.500000 *  0.686670 *   1.73396    1.000000    
     52 O2    c    0.651750 *  0.500000 *  0.686670 *   0.87073    1.000000    
     53 O1    c    0.250000 *  0.234950 *  0.285720 *   1.73396    1.000000    
     54 O1    c    0.250000 *  0.765050 *  0.285720 *   1.73396    1.000000    
     55 O3    c    0.750000 *  0.234950 *  0.714280 *   1.33043    1.000000    
     56 O3    c    0.750000 *  0.765050 *  0.714280 *   1.33043    1.000000    
     57 O1    c    0.131410 *  0.268650 *  0.127790 *   1.73396    1.000000    
     58 O1    c    0.368590 *  0.731350 *  0.127790 *   1.73396    1.000000    
     59 O1    c    0.868590 *  0.268650 *  0.872210 *   1.73396    1.000000    
     60 O3    c    0.631410 *  0.731350 *  0.872210 *   1.33043    1.000000    
     61 O1    c    0.868590 *  0.731350 *  0.872210 *   1.73396    1.000000    
     62 O3    c    0.631410 *  0.268650 *  0.872210 *   1.33043    1.000000    
     63 O1    c    0.131410 *  0.731350 *  0.127790 *   1.73396    1.000000    
     64 O1    c    0.368590 *  0.268650 *  0.127790 *   1.73396    1.000000    
     65 O1    c    0.653920 *  0.500000 *  0.058200 *   1.73396    1.000000    
     66 O1    c    0.846080 *  0.500000 *  0.058200 *   1.73396    1.000000    
     67 O1    c    0.346080 *  0.500000 *  0.941800 *   1.73396    1.000000    
     68 O1    c    0.153920 *  0.500000 *  0.941800 *   1.73396    1.000000    
     69 O1    c    0.750000 *  0.231060 *  0.027050 *   1.73396    1.000000    
     70 O1    c    0.750000 *  0.768940 *  0.027050 *   1.73396    1.000000    
     71 O1    c    0.250000 *  0.231060 *  0.972950 *   1.73396    1.000000    
     72 O1    c    0.250000 *  0.768940 *  0.972950 *   1.73396    1.000000    
     73 O1    s    0.106570 *  0.174340 *  0.366200 *  -3.73396    1.000000    
     74 O1    s    0.393430 *  0.825660 *  0.366200 *  -3.73396    1.000000    
     75 O1    s    0.893430 *  0.174340 *  0.633800 *  -3.73396    1.000000    
     76 O3    s    0.606570 *  0.825660 *  0.633800 *  -3.33043    1.000000    
     77 O1    s    0.893430 *  0.825660 *  0.633800 *  -3.73396    1.000000    
     78 O3    s    0.606570 *  0.174340 *  0.633800 *  -3.33043    1.000000    
     79 O1    s    0.106570 *  0.825660 *  0.366200 *  -3.73396    1.000000    
     80 O1    s    0.393430 *  0.174340 *  0.366200 *  -3.73396    1.000000    
     81 O1    s    0.000000 *  0.000000 *  0.500000 *  -3.73396    1.000000    
     82 O1    s    0.500000 *  0.000000 *  0.500000 *  -3.73396    1.000000    
     83 O1    s    0.994520 *  0.000000 *  0.250840 *  -3.73396    1.000000    
     84 O1    s    0.505480 *  0.000000 *  0.250840 *  -3.73396    1.000000    
     85 O1    s    0.005480 *  0.000000 *  0.749160 *  -3.73396    1.000000    
     86 O1    s    0.494520 *  0.000000 *  0.749160 *  -3.73396    1.000000    
     87 O1    s    0.610230 *  0.175520 *  0.115390 *  -3.73396    1.000000    
     88 O1    s    0.889770 *  0.824480 *  0.115390 *  -3.73396    1.000000    
     89 O1    s    0.389770 *  0.175520 *  0.884610 *  -3.73396    1.000000    
     90 O1    s    0.110230 *  0.824480 *  0.884610 *  -3.73396    1.000000    
     91 O1    s    0.389770 *  0.824480 *  0.884610 *  -3.73396    1.000000    
     92 O1    s    0.110230 *  0.175520 *  0.884610 *  -3.73396    1.000000    
     93 O1    s    0.610230 *  0.824480 *  0.115390 *  -3.73396    1.000000    
     94 O1    s    0.889770 *  0.175520 *  0.115390 *  -3.73396    1.000000    
     95 O1    s    0.500000 *  0.000000 *  0.000000 *  -3.73396    1.000000    
     96 O1    s    0.000000 *  0.000000 *  0.000000 *  -3.73396    1.000000    
     97 O1    s    0.151750 *  0.500000 *  0.313330 *  -3.73396    1.000000    
     98 O1    s    0.348250 *  0.500000 *  0.313330 *  -3.73396    1.000000    
     99 O1    s    0.848250 *  0.500000 *  0.686670 *  -3.73396    1.000000    
    100 O2    s    0.651750 *  0.500000 *  0.686670 *  -2.87073    1.000000    
    101 O1    s    0.250000 *  0.234950 *  0.285720 *  -3.73396    1.000000    
    102 O1    s    0.250000 *  0.765050 *  0.285720 *  -3.73396    1.000000    
    103 O3    s    0.750000 *  0.234950 *  0.714280 *  -3.33043    1.000000    
    104 O3    s    0.750000 *  0.765050 *  0.714280 *  -3.33043    1.000000    
    105 O1    s    0.131410 *  0.268650 *  0.127790 *  -3.73396    1.000000    
    106 O1    s    0.368590 *  0.731350 *  0.127790 *  -3.73396    1.000000    
    107 O1    s    0.868590 *  0.268650 *  0.872210 *  -3.73396    1.000000    
    108 O3    s    0.631410 *  0.731350 *  0.872210 *  -3.33043    1.000000    
    109 O1    s    0.868590 *  0.731350 *  0.872210 *  -3.73396    1.000000    
    110 O3    s    0.631410 *  0.268650 *  0.872210 *  -3.33043    1.000000    
    111 O1    s    0.131410 *  0.731350 *  0.127790 *  -3.73396    1.000000    
    112 O1    s    0.368590 *  0.268650 *  0.127790 *  -3.73396    1.000000    
    113 O1    s    0.653920 *  0.500000 *  0.058200 *  -3.73396    1.000000    
    114 O1    s    0.846080 *  0.500000 *  0.058200 *  -3.73396    1.000000    
    115 O1    s    0.346080 *  0.500000 *  0.941800 *  -3.73396    1.000000    
    116 O1    s    0.153920 *  0.500000 *  0.941800 *  -3.73396    1.000000    
    117 O1    s    0.750000 *  0.231060 *  0.027050 *  -3.73396    1.000000    
    118 O1    s    0.750000 *  0.768940 *  0.027050 *  -3.73396    1.000000    
    119 O1    s    0.250000 *  0.231060 *  0.972950 *  -3.73396    1.000000    
    120 O1    s    0.250000 *  0.768940 *  0.972950 *  -3.73396    1.000000    
--------------------------------------------------------------------------------



********************************************************************************
*  General input information                                                   *
********************************************************************************

  Species output for all configurations : 

--------------------------------------------------------------------------------
  Species    Type    Atomic    Atomic    Charge       Radii (Angs)     Library
                     Number     Mass       (e)     Cova   Ionic  VDW   Symbol
--------------------------------------------------------------------------------
    Ge       Core       32      72.61   4.000000   1.170  0.000  1.750 Ge       
    Si       Core       14      28.09   4.000000   1.200  0.000  2.100 Si       
    O1       Core        8      16.00   1.733957   0.730  0.000  1.360 O1       
    O2       Core        8      16.00   0.870733   0.730  0.000  1.360 O2       
    O3       Core        8      16.00   1.330431   0.730  0.000  1.360 O3       
    O1       Shell       8       0.00  -3.733957   0.730  0.000  0.000 O1       
    O2       Shell       8       0.00  -2.870733   0.730  0.000  0.000 O2       
    O3       Shell       8       0.00  -3.330431   0.730  0.000  0.000 O3       
--------------------------------------------------------------------------------


  Lattice summation method               =    Ewald          (3-D)
                                         =    Parry          (2-D)
                                         =    Saunders et al (1-D)
  Accuracy factor for lattice sums       =   12.000


  Analytic derivatives to be used

  Time limit = Infinity

  Maximum range for interatomic potentials =    100000.000000 Angstroms

  General interatomic potentials :

--------------------------------------------------------------------------------
Atom  Types   Potential      Parameter       Value         Units   Cutoffs(Ang)
  1     2                                                            Min /  Max 
--------------------------------------------------------------------------------
Si   c O1   s Buckingham    Buckingham A     1315.2478    eV        0.000 16.000
                            Buckingham rho  0.31775900    Ang       
                            Buckingham C     10.141118    eV*Ang^6  
--------------------------------------------------------------------------------
Si   c O2   s Buckingham    Buckingham A     1315.2478    eV        0.000 16.000
                            Buckingham rho  0.31775900    Ang       
                            Buckingham C     10.141118    eV*Ang^6  
--------------------------------------------------------------------------------
Si   c O3   s Buckingham    Buckingham A     1315.2478    eV        0.000 16.000
                            Buckingham rho  0.31775900    Ang       
                            Buckingham C     10.141118    eV*Ang^6  
--------------------------------------------------------------------------------
Ge   c O1   s Buckingham    Buckingham A     1497.3996    eV        0.000 16.000
                            Buckingham rho  0.32564600    Ang       
                            Buckingham C     16.808599    eV*Ang^6  
--------------------------------------------------------------------------------
Ge   c O2   s Buckingham    Buckingham A     1497.3996    eV        0.000 16.000
                            Buckingham rho  0.32564600    Ang       
                            Buckingham C     16.808599    eV*Ang^6  
--------------------------------------------------------------------------------
Ge   c O3   s Buckingham    Buckingham A     1497.3996    eV        0.000 16.000
                            Buckingham rho  0.32564600    Ang       
                            Buckingham C     16.808599    eV*Ang^6  
--------------------------------------------------------------------------------
O1   s O1   s Buckingham    Buckingham A     22764.000    eV        0.000 16.000
                            Buckingham rho  0.14900000    Ang       
                            Buckingham C     10.937044    eV*Ang^6  
--------------------------------------------------------------------------------
O1   s O2   s Buckingham    Buckingham A     22764.000    eV        0.000 16.000
                            Buckingham rho  0.14900000    Ang       
                            Buckingham C     10.937044    eV*Ang^6  
--------------------------------------------------------------------------------
O1   s O3   s Buckingham    Buckingham A     22764.000    eV        0.000 16.000
                            Buckingham rho  0.14900000    Ang       
                            Buckingham C     10.937044    eV*Ang^6  
--------------------------------------------------------------------------------
O2   s O2   s Buckingham    Buckingham A     22764.000    eV        0.000 16.000
                            Buckingham rho  0.14900000    Ang       
                            Buckingham C     10.937044    eV*Ang^6  
--------------------------------------------------------------------------------
O2   s O3   s Buckingham    Buckingham A     22764.000    eV        0.000 16.000
                            Buckingham rho  0.14900000    Ang       
                            Buckingham C     10.937044    eV*Ang^6  
--------------------------------------------------------------------------------
O3   s O3   s Buckingham    Buckingham A     22764.000    eV        0.000 16.000
                            Buckingham rho  0.14900000    Ang       
                            Buckingham C     10.937044    eV*Ang^6  
--------------------------------------------------------------------------------
O1   c O1   s Spring (c-s)  Spring k 2       180.31577    eV*Ang^-2 0.000  0.800
                            Spring k 4       0.0000000    eV*Ang^-4 
--------------------------------------------------------------------------------
O2   c O2   s Spring (c-s)  Spring k 2       75.969800    eV*Ang^-2 0.000  0.800
                            Spring k 4       0.0000000    eV*Ang^-4 
--------------------------------------------------------------------------------
O3   c O3   s Spring (c-s)  Spring k 2       128.14270    eV*Ang^-2 0.000  0.800
                            Spring k 4       0.0000000    eV*Ang^-4 
--------------------------------------------------------------------------------

  General Three-body potentials :

--------------------------------------------------------------------------------
  Atoms       Potential      Parameter       Value         Units   Cutoffs(Ang)
  1 / 2 / 3                                                          Min /  Max 
--------------------------------------------------------------------------------
Si    core    Harmonic      Three-body cnst  1.2614000    eV*rad^-2 0.000  1.900
O1    shel                  Three-body angl  109.47000    degrees   0.000  1.900
O1    shel                  Three-body k4    0.0000000    eV*rad^-4 0.000  3.500
                            Three-body k3    0.0000000    eV*rad^-3 
--------------------------------------------------------------------------------
Si    core    Harmonic      Three-body cnst  1.2614000    eV*rad^-2 0.000  1.900
O1    shel                  Three-body angl  109.47000    degrees   0.000  1.900
õ(1   shel                  Three-body k4    0.0000000    eV*rad^-4 0.000  3.500
                            Three-body k3    0.0000000    eV*rad^-3 
--------------------------------------------------------------------------------
Si    core    Harmonic      Three-body cnst  1.2614000    eV*rad^-2 0.000  1.900
õ(1   shel                  Three-body angl  109.47000    degrees   0.000  1.900
õ(1   shel                  Three-body k4    0.0000000    eV*rad^-4 0.000  3.500
                            Three-body k3    0.0000000    eV*rad^-3 
--------------------------------------------------------------------------------
Si    core    Harmonic      Three-body cnst  1.2614000    eV*rad^-2 0.000  1.900
O1    shel                  Three-body angl  109.47000    degrees   0.000  1.900
O2    shel                  Three-body k4    0.0000000    eV*rad^-4 0.000  3.500
                            Three-body k3    0.0000000    eV*rad^-3 
--------------------------------------------------------------------------------
Si    core    Harmonic      Three-body cnst  1.2614000    eV*rad^-2 0.000  1.900
O1    shel                  Three-body angl  109.47000    degrees   0.000  1.900
õ(2   shel                  Three-body k4    0.0000000    eV*rad^-4 0.000  3.500
                            Three-body k3    0.0000000    eV*rad^-3 
--------------------------------------------------------------------------------
Si    core    Harmonic      Three-body cnst  1.2614000    eV*rad^-2 0.000  1.900
O2    shel                  Three-body angl  109.47000    degrees   0.000  1.900
õ(1   shel                  Three-body k4    0.0000000    eV*rad^-4 0.000  3.500
                            Three-body k3    0.0000000    eV*rad^-3 
--------------------------------------------------------------------------------
Si    core    Harmonic      Three-body cnst  1.2614000    eV*rad^-2 0.000  1.900
õ(1   shel                  Three-body angl  109.47000    degrees   0.000  1.900
õ(2   shel                  Three-body k4    0.0000000    eV*rad^-4 0.000  3.500
                            Three-body k3    0.0000000    eV*rad^-3 
--------------------------------------------------------------------------------
Si    core    Harmonic      Three-body cnst  1.2614000    eV*rad^-2 0.000  1.900
O2    shel                  Three-body angl  109.47000    degrees   0.000  1.900
O2    shel                  Three-body k4    0.0000000    eV*rad^-4 0.000  3.500
                            Three-body k3    0.0000000    eV*rad^-3 
--------------------------------------------------------------------------------
Si    core    Harmonic      Three-body cnst  1.2614000    eV*rad^-2 0.000  1.900
O2    shel                  Three-body angl  109.47000    degrees   0.000  1.900
õ(2   shel                  Three-body k4    0.0000000    eV*rad^-4 0.000  3.500
                            Three-body k3    0.0000000    eV*rad^-3 
--------------------------------------------------------------------------------
Si    core    Harmonic      Three-body cnst  1.2614000    eV*rad^-2 0.000  1.900
õ(2   shel                  Three-body angl  109.47000    degrees   0.000  1.900
õ(2   shel                  Three-body k4    0.0000000    eV*rad^-4 0.000  3.500
                            Three-body k3    0.0000000    eV*rad^-3 
--------------------------------------------------------------------------------

********************************************************************************
*  Output for configuration   1 : c00021.vasp                                  *
********************************************************************************


  Components of energy : 

--------------------------------------------------------------------------------
  Interatomic potentials     =         912.66702504 eV    
  Three-body potentials      =           0.00000000 eV    
  Monopole - monopole (real) =       -2676.00317478 eV    
  Monopole - monopole (recip)=       -1115.35404472 eV    
  Monopole - monopole (total)=       -3791.35721950 eV    
--------------------------------------------------------------------------------
  Total lattice energy       =       -2878.69019446 eV    
--------------------------------------------------------------------------------
  Total lattice energy       =         -277749.5990 kJ/(mole unit cells)
--------------------------------------------------------------------------------


  Number of variables =      363

  Maximum number of calculations  =          1000
  Maximum Hessian update interval =            10
  Maximum step size               =   0.100000000
  Maximum parameter tolerance     =   0.000010000
  Maximum function  tolerance     =   0.000010000
  Maximum gradient  tolerance     =   0.001000000
  Maximum gradient  component     =   0.010000000

  Symmetry not applied to optimisation

  Cell parameters to be optimised using strains

  Newton-Raphson optimiser to be used

  BFGS hessian update to be used

  Lower half triangular hessian to be used

  Minimiser to switch to RFO
  When gradient norm is less than     0.050000

  Dumpfile to be written after every cycle

  Start of bulk optimisation :

  Cycle:      0 Energy:     -2878.690194  Gnorm:      5.964263  CPU:    0.089
  ** Hessian calculated **
  Cycle:      1 Energy:     -2924.479363  Gnorm:      1.434479  CPU:    0.204
  ** Hessian calculated **
  Cycle:      2 Energy:     -2928.607743  Gnorm:      0.910089  CPU:    0.392
  ** Hessian calculated **
  Cycle:      3 Energy:     -2930.578023  Gnorm:      0.406101  CPU:    0.549
  Cycle:      4 Energy:     -2930.922695  Gnorm:      0.195827  CPU:    0.629
  Cycle:      5 Energy:     -2931.049944  Gnorm:      0.166693  CPU:    0.722
  Cycle:      6 Energy:     -2931.215599  Gnorm:      0.140654  CPU:    0.816
  Cycle:      7 Energy:     -2931.396107  Gnorm:      0.133256  CPU:    0.912
  Cycle:      8 Energy:     -2931.504914  Gnorm:      0.096661  CPU:    0.992
  Cycle:      9 Energy:     -2931.556268  Gnorm:      0.079896  CPU:    1.072
  Cycle:     10 Energy:     -2931.594580  Gnorm:      0.072269  CPU:    1.165
  Cycle:     11 Energy:     -2931.623687  Gnorm:      0.072145  CPU:    1.260
  Cycle:     12 Energy:     -2931.647932  Gnorm:      0.072843  CPU:    1.339
  ** Hessian calculated **
  Cycle:     13 Energy:     -2931.658052  Gnorm:      0.072533  CPU:    1.513
  Cycle:     14 Energy:     -2931.715417  Gnorm:      0.069612  CPU:    1.624
  Cycle:     15 Energy:     -2931.795672  Gnorm:      0.065171  CPU:    1.720
  Cycle:     16 Energy:     -2931.915597  Gnorm:      0.057118  CPU:    1.831
  Cycle:     17 Energy:     -2931.983055  Gnorm:      0.053562  CPU:    1.926
  Cycle:     18 Energy:     -2932.168472  Gnorm:      0.039588  CPU:    2.023
  ** Hessian has wrong structure
  ** Imaginary eigenvectors =   8
  Cycle:     19 Energy:     -2932.210816  Gnorm:      0.128971  CPU:    2.259
  ** Hessian has wrong structure
  ** Imaginary eigenvectors =   5
  ** Hessian has wrong structure
  ** Imaginary eigenvectors =   3
  Cycle:     20 Energy:     -2932.322502  Gnorm:      0.149178  CPU:    2.725
  ** Hessian has wrong structure
  ** Imaginary eigenvectors =   3
  ** Hessian has wrong structure
  ** Imaginary eigenvectors =   2
  Cycle:     21 Energy:     -2932.427338  Gnorm:      0.159817  CPU:    3.151
  ** Hessian has wrong structure
  ** Imaginary eigenvectors =   1
  ** Hessian has wrong structure
  ** Imaginary eigenvectors =   1
  Cycle:     22 Energy:     -2932.655616  Gnorm:      0.146621  CPU:    3.515
  ** Hessian has wrong structure
  ** Imaginary eigenvectors =   1
  Cycle:     23 Energy:     -2932.961383  Gnorm:      0.087684  CPU:    3.719
  ** Hessian has wrong structure
  ** Imaginary eigenvectors =   1
  ** Hessian has required structure
  Cycle:     24 Energy:     -2933.057832  Gnorm:      0.049899  CPU:    4.159
  ** Hessian has required structure
  Cycle:     25 Energy:     -2933.084806  Gnorm:      0.029003  CPU:    4.315
  ** Hessian has required structure
  Cycle:     26 Energy:     -2933.093814  Gnorm:      0.022797  CPU:    4.455
  ** Hessian has required structure
  Cycle:     27 Energy:     -2933.098883  Gnorm:      0.007325  CPU:    4.592
  ** Hessian has required structure
  Cycle:     28 Energy:     -2933.099840  Gnorm:      0.005447  CPU:    4.729
  ** Hessian has required structure
  Cycle:     29 Energy:     -2933.100253  Gnorm:      0.002434  CPU:    4.868
  ** Hessian has required structure
  Cycle:     30 Energy:     -2933.100412  Gnorm:      0.001477  CPU:    5.006
  ** Hessian has required structure
  Cycle:     31 Energy:     -2933.100474  Gnorm:      0.001058  CPU:    5.146
  ** Hessian has required structure
  Cycle:     32 Energy:     -2933.100496  Gnorm:      0.000817  CPU:    5.293
  ** Hessian has required structure
  Cycle:     33 Energy:     -2933.100503  Gnorm:      0.000705  CPU:    5.403
  ** Hessian has required structure
  Cycle:     34 Energy:     -2933.100508  Gnorm:      0.000493  CPU:    5.588
  ** Hessian has required structure
  Cycle:     35 Energy:     -2933.100509  Gnorm:      0.000438  CPU:    5.700
  ** Hessian has required structure
  Cycle:     36 Energy:     -2933.100509  Gnorm:      0.000424  CPU:    5.813
  ** Hessian has required structure
  Cycle:     37 Energy:     -2933.100509  Gnorm:      0.000417  CPU:    5.926
  ** Hessian has required structure
  Cycle:     38 Energy:     -2933.100509  Gnorm:      0.000416  CPU:    6.082
  ** Hessian has required structure
  Cycle:     39 Energy:     -2933.100509  Gnorm:      0.000416  CPU:    6.253
  ** Hessian has required structure
  Cycle:     40 Energy:     -2933.100509  Gnorm:      0.000416  CPU:    6.479
  ** Hessian calculated **
  Cycle:     41 Energy:     -2933.100509  Gnorm:      0.000197  CPU:    6.620
  ** Hessian has required structure
  Cycle:     42 Energy:     -2933.100509  Gnorm:      0.000315  CPU:    6.732
  ** Hessian has required structure
  Cycle:     43 Energy:     -2933.100509  Gnorm:      0.000332  CPU:    6.843
  ** Hessian has required structure
  Cycle:     44 Energy:     -2933.100510  Gnorm:      0.000345  CPU:    6.956
  ** Hessian has required structure
  Cycle:     45 Energy:     -2933.100510  Gnorm:      0.000254  CPU:    7.068
  ** Hessian has required structure
  Cycle:     46 Energy:     -2933.100510  Gnorm:      0.000267  CPU:    7.180
  ** Hessian has required structure
  Cycle:     47 Energy:     -2933.100510  Gnorm:      0.000267  CPU:    7.291
  ** Hessian has required structure
  Cycle:     48 Energy:     -2933.100510  Gnorm:      0.000263  CPU:    7.401
  ** Hessian has required structure
  Cycle:     49 Energy:     -2933.100510  Gnorm:      0.000231  CPU:    7.512
  ** Hessian has required structure
  Cycle:     50 Energy:     -2933.100510  Gnorm:      0.000249  CPU:    7.623
  ** Hessian has required structure
  Cycle:     51 Energy:     -2933.100510  Gnorm:      0.000246  CPU:    7.822
  ** Hessian has required structure
  Cycle:     52 Energy:     -2933.100510  Gnorm:      0.000245  CPU:    7.935
  ** Hessian has required structure
  Cycle:     53 Energy:     -2933.100510  Gnorm:      0.000244  CPU:    8.047
  ** Hessian has required structure
  Cycle:     54 Energy:     -2933.100510  Gnorm:      0.000244  CPU:    8.160
  ** Hessian has required structure
  Cycle:     55 Energy:     -2933.100510  Gnorm:      0.000244  CPU:    8.317
  ** Hessian has required structure
  Cycle:     56 Energy:     -2933.100510  Gnorm:      0.000244  CPU:    8.488
  ** Hessian has required structure
  Cycle:     57 Energy:     -2933.100510  Gnorm:      0.000244  CPU:    8.717
  ** Hessian calculated **


  **** Optimisation achieved ****


  Final energy =   -2933.10050989 eV      
  Final Gnorm  =       0.00009389

  Components of energy : 

--------------------------------------------------------------------------------
  Interatomic potentials     =         770.26058975 eV    
  Three-body potentials      =           0.00000000 eV    
  Monopole - monopole (real) =       -1498.87627512 eV    
  Monopole - monopole (recip)=       -2204.48482451 eV    
  Monopole - monopole (total)=       -3703.36109964 eV    
--------------------------------------------------------------------------------
  Total lattice energy       =       -2933.10050989 eV    
--------------------------------------------------------------------------------
  Total lattice energy       =         -282999.3627 kJ/(mole unit cells)
--------------------------------------------------------------------------------

  Final fractional coordinates of atoms :

--------------------------------------------------------------------------------
   No.  Atomic        x           y          z          Radius
        Label       (Frac)      (Frac)     (Frac)       (Angs) 
--------------------------------------------------------------------------------
     1  Ge    c     0.052090    0.000000    0.372270    0.000000
     2  Ge    c     0.449924    0.973514    0.413933    0.000000
     3  Ge    c     0.941952    0.012348    0.615116    0.000000
     4  Ge    c     0.556271    0.992050    0.670388    0.000000
     5  Ge    c     0.553119    0.973959    0.163282    0.000000
     6  Ge    c     0.949292    0.994421    0.114763    0.000000
     7  Ge    c     0.445885    0.980298    0.914598    0.000000
     8  Ge    c     0.052860    0.005728    0.864105    0.000000
     9  Ge    c     0.151381    0.313667    0.299909    0.000000
    10  Ge    c     0.350457    0.663415    0.300866    0.000000
    11  Ge    c     0.844513    0.324143    0.721677    0.000000
    12  Ge    c     0.827795    0.723300    0.737507    0.000000
    13  Ge    c     0.171499    0.718479    0.302177    0.000000
    14  Ge    c     0.329861    0.258349    0.296092    0.000000
    15  Ge    c     0.670314    0.256963    0.036800    0.000000
    16  Ge    c     0.828307    0.713219    0.052494    0.000000
    17  Ge    c     0.326061    0.262073    0.979970    0.000000
    18  Ge    c     0.170167    0.724204    0.986873    0.000000
    19  Ge    c     0.348538    0.664396    0.984920    0.000000
    20  Ge    c     0.147507    0.318496    0.983277    0.000000
    21  Ge    c     0.649641    0.666054    0.047913    0.000000
    22  Ge    c     0.848226    0.308594    0.039862    0.000000
    23  Si    c     0.650552    0.676046    0.741873    0.000000
    24  Si    c     0.667276    0.283543    0.728861    0.000000
    25  O1    c     0.091147    0.197071    0.392453    0.000000
    26  O1    c     0.414853    0.773478    0.390580    0.000000
    27  O1    c     0.904825    0.211724    0.628694    0.000000
    28  O3    c     0.599674    0.795708    0.652007    0.000000
    29  O1    c     0.870047    0.876605    0.648617    0.000000
    30  O3    c     0.618156    0.158045    0.640461    0.000000
    31  O1    c     0.120103    0.849721    0.398581    0.000000
    32  O1    c     0.379965    0.117674    0.387432    0.000000
    33  O1    c     0.972340    0.978613    0.459546    0.000000
    34  O1    c     0.479589    0.998501    0.572273    0.000000
    35  O1    c     0.025884    0.975880    0.211342    0.000000
    36  O1    c     0.528151    0.002488    0.321861    0.000000
    37  O1    c     0.021825    0.987187    0.706369    0.000000
    38  O1    c     0.523960    0.011432    0.825818    0.000000
    39  O1    c     0.622774    0.115079    0.127625    0.000000
    40  O1    c     0.881050    0.846192    0.145860    0.000000
    41  O1    c     0.376241    0.126706    0.886240    0.000000
    42  O1    c     0.125024    0.866710    0.889303    0.000000
    43  O1    c     0.408784    0.781494    0.893417    0.000000
    44  O1    c     0.082994    0.209220    0.893509    0.000000
    45  O1    c     0.585821    0.771239    0.138240    0.000000
    46  O1    c     0.911136    0.193549    0.128551    0.000000
    47  O1    c     0.473324    0.006122    0.074533    0.000000
    48  O1    c     0.977274    0.960419    0.957522    0.000000
    49  O1    c     0.160852    0.514125    0.358802    0.000000
    50  O1    c     0.341078    0.460321    0.356959    0.000000
    51  O1    c     0.844969    0.529534    0.669032    0.000000
    52  O2    c     0.654814    0.482073    0.689791    0.000000
    53  O1    c     0.236301    0.211360    0.298593    0.000000
    54  O1    c     0.265032    0.764550    0.305914    0.000000
    55  O3    c     0.754304    0.242648    0.714706    0.000000
    56  O3    c     0.732699    0.756500    0.745247    0.000000
    57  O1    c     0.118997    0.323288    0.141928    0.000000
    58  O1    c     0.380496    0.655694    0.143057    0.000000
    59  O1    c     0.875467    0.314650    0.879807    0.000000
    60  O3    c     0.618914    0.675995    0.887103    0.000000
    61  O1    c     0.859089    0.724385    0.894716    0.000000
    62  O3    c     0.641179    0.254573    0.875908    0.000000
    63  O1    c     0.139336    0.731234    0.144071    0.000000
    64  O1    c     0.358413    0.255196    0.137852    0.000000
    65  O1    c     0.656568    0.458882    0.095009    0.000000
    66  O1    c     0.840000    0.506797    0.103353    0.000000
    67  O1    c     0.337890    0.466016    0.922824    0.000000
    68  O1    c     0.156085    0.522057    0.927828    0.000000
    69  O1    c     0.763069    0.207941    0.042618    0.000000
    70  O1    c     0.735442    0.762148    0.061423    0.000000
    71  O1    c     0.232576    0.216887    0.976446    0.000000
    72  O1    c     0.263774    0.767099    0.988600    0.000000
    73  O1    s     0.092733    0.191246    0.384168    0.000000
    74  O1    s     0.412541    0.780066    0.385462    0.000000
    75  O1    s     0.902913    0.205446    0.634908    0.000000
    76  O3    s     0.601400    0.798664    0.662092    0.000000
    77  O1    s     0.872205    0.874761    0.653185    0.000000
    78  O3    s     0.618242    0.157727    0.651198    0.000000
    79  O1    s     0.118938    0.850937    0.389441    0.000000
    80  O1    s     0.381399    0.117680    0.382221    0.000000
    81  O1    s     0.976219    0.982768    0.464325    0.000000
    82  O1    s     0.483458    0.996096    0.568319    0.000000
    83  O1    s     0.021690    0.979178    0.215207    0.000000
    84  O1    s     0.524222    0.998180    0.316851    0.000000
    85  O1    s     0.018179    0.990463    0.711221    0.000000
    86  O1    s     0.520230    0.007428    0.821166    0.000000
    87  O1    s     0.621279    0.115783    0.122933    0.000000
    88  O1    s     0.881961    0.846704    0.136450    0.000000
    89  O1    s     0.377481    0.126421    0.895470    0.000000
    90  O1    s     0.123025    0.866201    0.895020    0.000000
    91  O1    s     0.407001    0.787326    0.901787    0.000000
    92  O1    s     0.085726    0.202600    0.898224    0.000000
    93  O1    s     0.588440    0.777793    0.133001    0.000000
    94  O1    s     0.909100    0.187831    0.120771    0.000000
    95  O1    s     0.477360    0.001760    0.069817    0.000000
    96  O1    s     0.980951    0.966394    0.961861    0.000000
    97  O1    s     0.160894    0.513476    0.350152    0.000000
    98  O1    s     0.340973    0.460989    0.348347    0.000000
    99  O1    s     0.843656    0.528381    0.678127    0.000000
   100  O2    s     0.655592    0.482023    0.698779    0.000000
   101  O1    s     0.237033    0.222219    0.298488    0.000000
   102  O1    s     0.264199    0.753886    0.305276    0.000000
   103  O3    s     0.752710    0.252881    0.716618    0.000000
   104  O3    s     0.732298    0.746046    0.744325    0.000000
   105  O1    s     0.123457    0.322209    0.141732    0.000000
   106  O1    s     0.375956    0.656923    0.143093    0.000000
   107  O1    s     0.871186    0.314869    0.879669    0.000000
   108  O3    s     0.624232    0.675316    0.885376    0.000000
   109  O1    s     0.854439    0.723467    0.894201    0.000000
   110  O3    s     0.645947    0.257474    0.874373    0.000000
   111  O1    s     0.143954    0.729787    0.143917    0.000000
   112  O1    s     0.353884    0.255956    0.138110    0.000000
   113  O1    s     0.657045    0.459883    0.087136    0.000000
   114  O1    s     0.839777    0.506648    0.094736    0.000000
   115  O1    s     0.337855    0.466617    0.931737    0.000000
   116  O1    s     0.156451    0.521318    0.936259    0.000000
   117  O1    s     0.762254    0.219044    0.041953    0.000000
   118  O1    s     0.736101    0.751340    0.059752    0.000000
   119  O1    s     0.233425    0.227624    0.977208    0.000000
   120  O1    s     0.262910    0.756412    0.988222    0.000000
--------------------------------------------------------------------------------

  Final Cartesian lattice vectors (Angstroms) :

       17.920103   -0.001524   -0.096373
       -0.000741    7.896545    0.008956
       -0.061322    0.012566   10.301801


  Final cell parameters and derivatives :

--------------------------------------------------------------------------------
       a           17.920363 Angstrom     dE/de1(xx)     0.000246 eV/strain
       b            7.896550 Angstrom     dE/de2(yy)     0.003280 eV/strain
       c           10.301992 Angstrom     dE/de3(zz)     0.000022 eV/strain
       alpha       89.865104 Degrees      dE/de4(yz)    -0.000452 eV/strain
       beta        90.649186 Degrees      dE/de5(xz)    -0.001438 eV/strain
       gamma       90.010598 Degrees      dE/de6(xy)     0.002164 eV/strain
--------------------------------------------------------------------------------

  Primitive cell volume =          1457.727319 Angs**3

  Density of cell =      2.758558 g/cm**3

  Non-primitive cell volume =          1457.727319 Angs**3


  Final internal derivatives :

--------------------------------------------------------------------------------
   No.  Atomic          a             b             c           Radius
        Label          (eV)          (eV)          (eV)        (eV/Angs)
--------------------------------------------------------------------------------
      1 Ge    c       0.000000      0.000000      0.000000      0.000000
      2 Ge    c      -0.001382     -0.000360      0.000125      0.000000
      3 Ge    c       0.008880      0.002183      0.001369      0.000000
      4 Ge    c      -0.000972      0.000668     -0.000575      0.000000
      5 Ge    c      -0.001431     -0.001473     -0.000771      0.000000
      6 Ge    c       0.002504     -0.000636      0.000767      0.000000
      7 Ge    c      -0.000837     -0.000379     -0.000663      0.000000
      8 Ge    c      -0.000336     -0.000016     -0.002482      0.000000
      9 Ge    c      -0.000188      0.000441      0.000662      0.000000
     10 Ge    c       0.000314     -0.000259      0.000836      0.000000
     11 Ge    c       0.003592     -0.000237     -0.001600      0.000000
     12 Ge    c      -0.005715      0.000058      0.001631      0.000000
     13 Ge    c       0.000863     -0.000289      0.001419      0.000000
     14 Ge    c       0.000674     -0.000184      0.002262      0.000000
     15 Ge    c       0.002973     -0.000971     -0.000494      0.000000
     16 Ge    c       0.001512     -0.000455      0.000707      0.000000
     17 Ge    c      -0.000309      0.000144     -0.001520      0.000000
     18 Ge    c      -0.001900     -0.000240     -0.000615      0.000000
     19 Ge    c       0.001978     -0.000378     -0.000353      0.000000
     20 Ge    c      -0.000066      0.000381     -0.000058      0.000000
     21 Ge    c      -0.004933     -0.000365      0.000769      0.000000
     22 Ge    c      -0.004143     -0.000019      0.000470      0.000000
     23 Si    c       0.002565      0.000604     -0.000591      0.000000
     24 Si    c      -0.002356      0.000423     -0.000120      0.000000
     25 O1    c       0.000670     -0.000725     -0.000066      0.000000
     26 O1    c      -0.000206      0.000467      0.000645      0.000000
     27 O1    c      -0.002158     -0.000289     -0.000519      0.000000
     28 O3    c       0.000602     -0.000457      0.000735      0.000000
     29 O1    c      -0.003027     -0.003011     -0.006332      0.000000
     30 O3    c       0.001060     -0.000901     -0.000392      0.000000
     31 O1    c       0.000992     -0.000097     -0.001835      0.000000
     32 O1    c      -0.002803      0.000276     -0.002342      0.000000
     33 O1    c       0.004015     -0.000770     -0.006782      0.000000
     34 O1    c       0.001273     -0.000100      0.002062      0.000000
     35 O1    c      -0.003735      0.000076     -0.004255      0.000000
     36 O1    c      -0.000472      0.000297      0.004501      0.000000
     37 O1    c      -0.005869     -0.001240     -0.000680      0.000000
     38 O1    c      -0.002121     -0.000079      0.001669      0.000000
     39 O1    c       0.002704      0.002995      0.002323      0.000000
     40 O1    c      -0.003819     -0.000121     -0.000660      0.000000
     41 O1    c      -0.002960      0.000545      0.001196      0.000000
     42 O1    c       0.002400     -0.000076      0.003198      0.000000
     43 O1    c      -0.003716     -0.000120      0.000140      0.000000
     44 O1    c      -0.000019      0.000462      0.000312      0.000000
     45 O1    c       0.001940      0.000237      0.000020      0.000000
     46 O1    c      -0.000370      0.001506     -0.000569      0.000000
     47 O1    c       0.004743      0.000975      0.002596      0.000000
     48 O1    c       0.001068     -0.000220     -0.001572      0.000000
     49 O1    c      -0.000341     -0.000478     -0.000461      0.000000
     50 O1    c       0.000254      0.000916     -0.001861      0.000000
     51 O1    c      -0.001347     -0.000702      0.000485      0.000000
     52 O2    c      -0.000679     -0.000777     -0.000521      0.000000
     53 O1    c       0.002027      0.000739     -0.001098      0.000000
     54 O1    c       0.001384     -0.000889     -0.000881      0.000000
     55 O3    c      -0.000377     -0.000501     -0.000203      0.000000
     56 O3    c       0.000890     -0.000084      0.000407      0.000000
     57 O1    c       0.000215     -0.000764      0.000626      0.000000
     58 O1    c      -0.000367      0.000192     -0.001193      0.000000
     59 O1    c      -0.001099      0.000099      0.000707      0.000000
     60 O3    c      -0.003831     -0.000696      0.000131      0.000000
     61 O1    c      -0.001940      0.000656      0.000723      0.000000
     62 O3    c      -0.001441     -0.000138      0.001402      0.000000
     63 O1    c       0.000213     -0.000282      0.000066      0.000000
     64 O1    c      -0.000599      0.000505     -0.000145      0.000000
     65 O1    c       0.003659      0.000626      0.000180      0.000000
     66 O1    c      -0.001531      0.000558      0.000876      0.000000
     67 O1    c       0.000215      0.000554      0.000113      0.000000
     68 O1    c      -0.000414     -0.000699      0.001214      0.000000
     69 O1    c      -0.003190     -0.000686     -0.000802      0.000000
     70 O1    c       0.000064     -0.000044     -0.000225      0.000000
     71 O1    c      -0.000438      0.000605      0.000619      0.000000
     72 O1    c       0.000168     -0.000773      0.000448      0.000000
     73 O1    s      -0.001116      0.000580     -0.000519      0.000000
     74 O1    s      -0.001667     -0.000649      0.001272      0.000000
     75 O1    s       0.001983      0.004886      0.001921      0.000000
     76 O3    s      -0.000641     -0.000043     -0.000699      0.000000
     77 O1    s       0.001394     -0.002223     -0.003069      0.000000
     78 O3    s      -0.000578      0.000866      0.000210      0.000000
     79 O1    s      -0.000480     -0.000100      0.000836      0.000000
     80 O1    s       0.000111     -0.000576      0.001598      0.000000
     81 O1    s      -0.007284      0.000227      0.005400      0.000000
     82 O1    s      -0.005391     -0.000255     -0.001871      0.000000
     83 O1    s       0.004893     -0.000060      0.002875      0.000000
     84 O1    s       0.003487     -0.000021     -0.004243      0.000000
     85 O1    s       0.000824      0.002107      0.000805      0.000000
     86 O1    s       0.002060      0.000129     -0.001910      0.000000
     87 O1    s      -0.002456     -0.000126      0.003045      0.000000
     88 O1    s       0.002019      0.000128      0.002501      0.000000
     89 O1    s       0.000725      0.000577     -0.001052      0.000000
     90 O1    s      -0.000463     -0.000559     -0.002054      0.000000
     91 O1    s       0.002913     -0.001485     -0.000383      0.000000
     92 O1    s       0.001496      0.000819     -0.001471      0.000000
     93 O1    s      -0.001341     -0.001855     -0.000608      0.000000
     94 O1    s      -0.000770     -0.000472      0.002841      0.000000
     95 O1    s      -0.003056     -0.000722     -0.001800      0.000000
     96 O1    s      -0.002000     -0.000651      0.000685      0.000000
     97 O1    s       0.000678      0.000533      0.000647      0.000000
     98 O1    s       0.000020     -0.000725      0.001455      0.000000
     99 O1    s      -0.001373     -0.000427     -0.000108      0.000000
    100 O2    s      -0.000815      0.000317     -0.001968      0.000000
    101 O1    s      -0.001053      0.000267      0.001780      0.000000
    102 O1    s      -0.001432     -0.000409      0.002118      0.000000
    103 O3    s       0.002577     -0.001598      0.000351      0.000000
    104 O3    s       0.002800     -0.000230      0.000477      0.000000
    105 O1    s      -0.000974     -0.000431     -0.000754      0.000000
    106 O1    s       0.001383      0.000108      0.000766      0.000000
    107 O1    s       0.002110     -0.000689     -0.001163      0.000000
    108 O3    s       0.002903      0.000924      0.000744      0.000000
    109 O1    s       0.001954      0.000615     -0.002145      0.000000
    110 O3    s       0.001096     -0.000788     -0.000486      0.000000
    111 O1    s      -0.000479      0.000207      0.000205      0.000000
    112 O1    s       0.002453     -0.000919     -0.000129      0.000000
    113 O1    s      -0.001816      0.000103      0.000539      0.000000
    114 O1    s       0.002765     -0.000628      0.001585      0.000000
    115 O1    s       0.000138     -0.000381      0.000101      0.000000
    116 O1    s       0.001299      0.000480     -0.000490      0.000000
    117 O1    s       0.000920      0.001386     -0.000312      0.000000
    118 O1    s      -0.003037      0.001488      0.000766      0.000000
    119 O1    s       0.000389      0.000691     -0.001303      0.000000
    120 O1    s      -0.000204      0.000436     -0.001119      0.000000
--------------------------------------------------------------------------------
  Maximum abs         0.008880      0.004886      0.006782      0.000000
--------------------------------------------------------------------------------


  Born effective charge tensors : 

-------------------------------------------------------------------------------
  Atom             x           y             z
-------------------------------------------------------------------------------
    1 Ge    x       4.2150      0.1224      0.0918
            y      -0.1471      3.8984      0.0031
            z      -0.7939     -0.0340      4.1637
-------------------------------------------------------------------------------
    2 Ge    x       4.2110      0.1609      0.4640
            y      -0.1679      3.9126      0.0434
            z       0.2419      0.1118      4.5351
-------------------------------------------------------------------------------
    3 Ge    x       4.3054     -0.2189     -0.4547
            y       0.1484      3.8956     -0.0319
            z      -0.2854      0.1308      4.4137
-------------------------------------------------------------------------------
    4 Ge    x       4.1061     -0.0639     -0.0924
            y       0.1249      3.9330     -0.0286
            z       0.8068     -0.0043      4.1496
-------------------------------------------------------------------------------
    5 Ge    x       4.2647     -0.1630     -0.4036
            y       0.1804      3.9226     -0.0180
            z      -0.3458      0.1180      4.0367
-------------------------------------------------------------------------------
    6 Ge    x       4.3077     -0.1223     -0.0262
            y       0.1480      3.9225     -0.0565
            z       0.6602     -0.0300      3.6868
-------------------------------------------------------------------------------
    7 Ge    x       4.3649      0.1446      0.0195
            y      -0.1345      3.9229     -0.0483
            z      -0.6742     -0.0715      3.6188
-------------------------------------------------------------------------------
    8 Ge    x       4.3028      0.1702      0.3668
            y      -0.1945      3.9157      0.0074
            z       0.3218      0.0596      3.9777
-------------------------------------------------------------------------------
    9 Ge    x       3.9596      0.1135     -0.2259
            y       0.4234      4.1784     -0.0820
            z      -0.0522     -0.1727      3.5871
-------------------------------------------------------------------------------
   10 Ge    x       3.9992      0.0982      0.2074
            y       0.4555      4.1581      0.0909
            z       0.0679      0.1911      3.6246
-------------------------------------------------------------------------------
   11 Ge    x       3.9427     -0.1732     -0.2201
            y      -0.4770      4.1254      0.0972
            z      -0.1138      0.1453      3.6032
-------------------------------------------------------------------------------
   12 Ge    x       3.8414      0.3081     -0.2886
            y       0.3057      4.2208     -0.0580
            z      -0.0476     -0.1990      3.6126
-------------------------------------------------------------------------------
   13 Ge    x       4.0456     -0.2248     -0.2864
            y      -0.3200      4.1642      0.0817
            z      -0.0241      0.1289      3.5674
-------------------------------------------------------------------------------
   14 Ge    x       4.0094     -0.2304      0.2810
            y      -0.3000      4.2073     -0.0802
            z       0.0396     -0.2103      3.6428
-------------------------------------------------------------------------------
   15 Ge    x       3.9518      0.2022     -0.3570
            y       0.2356      4.2390     -0.1484
            z      -0.0821     -0.2270      3.5053
-------------------------------------------------------------------------------
   16 Ge    x       4.0576      0.2174      0.3265
            y       0.3093      4.1744      0.1133
            z       0.0631      0.1537      3.4531
-------------------------------------------------------------------------------
   17 Ge    x       4.0958     -0.2251     -0.3219
            y      -0.2956      4.1691      0.0897
            z      -0.0406      0.1527      3.4677
-------------------------------------------------------------------------------
   18 Ge    x       4.0360     -0.2128      0.3475
            y      -0.2436      4.2076     -0.1021
            z       0.0400     -0.1986      3.5609
-------------------------------------------------------------------------------
   19 Ge    x       4.0286      0.1267     -0.2968
            y       0.4311      4.1636     -0.0558
            z      -0.0910     -0.1511      3.4688
-------------------------------------------------------------------------------
   20 Ge    x       4.0594      0.0970      0.2666
            y       0.4440      4.1576      0.0916
            z       0.1131      0.1774      3.5204
-------------------------------------------------------------------------------
   21 Ge    x       3.9756     -0.0991     -0.3296
            y      -0.4366      4.1605      0.1386
            z      -0.1411      0.1742      3.4619
-------------------------------------------------------------------------------
   22 Ge    x       4.0156     -0.1327      0.3120
            y      -0.4333      4.1414     -0.0545
            z       0.1338     -0.1333      3.4881
-------------------------------------------------------------------------------
   23 Si    x       3.5872     -0.1511      0.1980
            y      -0.3716      3.6847     -0.2240
            z      -0.0053     -0.2633      3.2173
-------------------------------------------------------------------------------
   24 Si    x       3.6557      0.2717      0.1628
            y       0.3662      3.7003      0.2036
            z      -0.0337      0.1913      3.1952
-------------------------------------------------------------------------------
   25 O1    x      -1.9854     -0.8864      0.3597
            y      -0.8458     -2.4704      0.3183
            z       0.4324      0.3517     -1.6063
-------------------------------------------------------------------------------
   26 O1    x      -2.0118     -0.8748     -0.5229
            y      -0.8353     -2.4808     -0.5076
            z      -0.4798     -0.5207     -1.6707
-------------------------------------------------------------------------------
   27 O1    x      -2.0109      0.8830      0.5146
            y       0.8609     -2.5138     -0.4922
            z       0.4872     -0.5041     -1.6577
-------------------------------------------------------------------------------
   28 O3    x      -1.8280      0.8824     -0.3741
            y       0.8217     -2.4172      0.4029
            z      -0.4262      0.4551     -1.5237
-------------------------------------------------------------------------------
   29 O1    x      -2.1794     -0.9244      0.5719
            y      -0.9901     -2.4042      0.5972
            z       0.5123      0.5654     -1.6654
-------------------------------------------------------------------------------
   30 O3    x      -1.9419     -0.8992     -0.3077
            y      -0.9457     -2.3309     -0.3514
            z      -0.4089     -0.4077     -1.5146
-------------------------------------------------------------------------------
   31 O1    x      -2.1914      0.9199      0.3014
            y       0.9965     -2.2940     -0.3275
            z       0.3792     -0.3363     -1.6132
-------------------------------------------------------------------------------
   32 O1    x      -2.2248      0.9509     -0.5660
            y       1.0021     -2.3442      0.5346
            z      -0.5265      0.5422     -1.6796
-------------------------------------------------------------------------------
   33 O1    x      -2.1725      0.0109      0.9380
            y      -0.0185     -1.2623     -0.0505
            z       1.2015     -0.0901     -3.0050
-------------------------------------------------------------------------------
   34 O1    x      -2.1509     -0.0456     -1.0065
            y      -0.0009     -1.2812     -0.0507
            z      -1.2475     -0.1032     -3.1358
-------------------------------------------------------------------------------
   35 O1    x      -2.1635      0.0257     -0.8586
            y       0.0347     -1.3117     -0.0132
            z      -0.8354     -0.0182     -2.6182
-------------------------------------------------------------------------------
   36 O1    x      -2.0708     -0.0280      0.8002
            y      -0.0538     -1.2804     -0.0100
            z       0.8308     -0.0631     -2.8142
-------------------------------------------------------------------------------
   37 O1    x      -2.1510      0.0326     -0.8280
            y       0.0536     -1.2702      0.0138
            z      -0.8602     -0.0176     -2.7492
-------------------------------------------------------------------------------
   38 O1    x      -2.2558     -0.0748      0.9149
            y      -0.0697     -1.3307      0.0279
            z       0.8932      0.0404     -2.5122
-------------------------------------------------------------------------------
   39 O1    x      -2.2087     -0.9397      0.6189
            y      -0.9816     -2.3618      0.6109
            z       0.5522      0.5750     -1.6578
-------------------------------------------------------------------------------
   40 O1    x      -2.2417     -0.9379     -0.2885
            y      -0.9913     -2.2867     -0.2829
            z      -0.3577     -0.3193     -1.5128
-------------------------------------------------------------------------------
   41 O1    x      -2.2495      0.9358      0.2992
            y       0.9867     -2.2935     -0.3092
            z       0.3569     -0.3284     -1.5011
-------------------------------------------------------------------------------
   42 O1    x      -2.2358      0.9313     -0.5758
            y       0.9520     -2.3225      0.5598
            z      -0.4911      0.5301     -1.6139
-------------------------------------------------------------------------------
   43 O1    x      -2.0362     -0.8832      0.3729
            y      -0.8237     -2.4860      0.3108
            z       0.4059      0.3352     -1.4752
-------------------------------------------------------------------------------
   44 O1    x      -2.0428     -0.8461     -0.5418
            y      -0.7774     -2.4877     -0.5364
            z      -0.4781     -0.5245     -1.5723
-------------------------------------------------------------------------------
   45 O1    x      -2.0369      0.8453      0.5632
            y       0.8016     -2.4638     -0.5286
            z       0.5084     -0.5298     -1.6166
-------------------------------------------------------------------------------
   46 O1    x      -2.0676      0.8971     -0.3891
            y       0.8508     -2.4768      0.3348
            z      -0.4292      0.3562     -1.4736
-------------------------------------------------------------------------------
   47 O1    x      -2.1936      0.0646     -0.7059
            y       0.0643     -1.3345      0.0151
            z      -0.4933     -0.0089     -2.2704
-------------------------------------------------------------------------------
   48 O1    x      -2.1683     -0.0913      0.7470
            y      -0.0857     -1.3525      0.0202
            z       0.5227     -0.0013     -2.2884
-------------------------------------------------------------------------------
   49 O1    x      -1.3358     -0.1531      0.0682
            y      -0.2196     -3.1938     -0.0246
            z       0.0254     -0.0182     -1.3762
-------------------------------------------------------------------------------
   50 O1    x      -1.3418     -0.1521     -0.0682
            y      -0.2250     -3.1986     -0.0176
            z      -0.0282     -0.0055     -1.3898
-------------------------------------------------------------------------------
   51 O1    x      -1.3497      0.1100      0.1163
            y       0.1746     -3.1617     -0.0832
            z       0.0760     -0.0537     -1.3822
-------------------------------------------------------------------------------
   52 O2    x      -1.1535      0.0950     -0.0539
            y       0.1339     -2.4912     -0.0574
            z      -0.0216     -0.0394     -1.1399
-------------------------------------------------------------------------------
   53 O1    x      -3.0767      0.2040      0.0256
            y       0.1395     -1.5636      0.0072
            z       0.0311      0.0442     -1.2230
-------------------------------------------------------------------------------
   54 O1    x      -3.0736      0.2043      0.0177
            y       0.1354     -1.5531     -0.0231
            z      -0.0095     -0.0512     -1.2233
-------------------------------------------------------------------------------
   55 O3    x      -2.9449     -0.0618      0.0648
            y       0.0158     -1.4242     -0.0320
            z       0.0997     -0.0506     -1.1424
-------------------------------------------------------------------------------
   56 O3    x      -2.8878     -0.2719      0.0263
            y      -0.2331     -1.4792      0.0027
            z       0.0280      0.0401     -1.1349
-------------------------------------------------------------------------------
   57 O1    x      -1.4792     -0.0479     -0.0539
            y      -0.1118     -1.4109      0.0157
            z      -0.0455      0.0217     -2.7572
-------------------------------------------------------------------------------
   58 O1    x      -1.4849     -0.0482      0.0185
            y      -0.1122     -1.4102      0.0113
            z       0.0371      0.0063     -2.7496
-------------------------------------------------------------------------------
   59 O1    x      -1.4885      0.0685     -0.0936
            y       0.1277     -1.4065      0.0662
            z      -0.0687      0.0560     -2.7560
-------------------------------------------------------------------------------
   60 O3    x      -1.3778      0.0753      0.1753
            y       0.1341     -1.3558     -0.0140
            z       0.1240      0.0190     -2.5587
-------------------------------------------------------------------------------
   61 O1    x      -1.4860     -0.0943     -0.1106
            y      -0.1158     -1.4215      0.0074
            z      -0.0475      0.0233     -2.7164
-------------------------------------------------------------------------------
   62 O3    x      -1.3309     -0.1147      0.0745
            y      -0.1274     -1.3996      0.1280
            z       0.0586      0.1206     -2.5716
-------------------------------------------------------------------------------
   63 O1    x      -1.4789      0.0961     -0.0015
            y       0.1152     -1.4259     -0.0016
            z      -0.0111      0.0170     -2.7355
-------------------------------------------------------------------------------
   64 O1    x      -1.4644      0.0883      0.0247
            y       0.1043     -1.4279      0.0029
            z       0.0162      0.0036     -2.7523
-------------------------------------------------------------------------------
   65 O1    x      -1.3364      0.1471      0.0944
            y       0.2331     -3.2417     -0.0560
            z       0.0443     -0.0459     -1.3623
-------------------------------------------------------------------------------
   66 O1    x      -1.3547      0.1581     -0.0855
            y       0.2223     -3.1825     -0.0878
            z      -0.0414     -0.0451     -1.3390
-------------------------------------------------------------------------------
   67 O1    x      -1.3708     -0.1710      0.0797
            y      -0.2462     -3.1660     -0.0429
            z       0.0308     -0.0208     -1.3443
-------------------------------------------------------------------------------
   68 O1    x      -1.3782     -0.1680     -0.0878
            y      -0.2483     -3.2043     -0.0107
            z      -0.0403     -0.0092     -1.3411
-------------------------------------------------------------------------------
   69 O1    x      -3.0583     -0.1820     -0.0239
            y      -0.1283     -1.5549      0.0252
            z      -0.0519      0.0537     -1.2050
-------------------------------------------------------------------------------
   70 O1    x      -3.0511     -0.1738     -0.0253
            y      -0.1208     -1.5334     -0.0497
            z      -0.0292     -0.0684     -1.2161
-------------------------------------------------------------------------------
   71 O1    x      -3.1034      0.2075      0.0248
            y       0.1371     -1.5521     -0.0274
            z      -0.0057     -0.0527     -1.1977
-------------------------------------------------------------------------------
   72 O1    x      -3.1119      0.2210      0.0155
            y       0.1596     -1.5590      0.0030
            z       0.0231      0.0372     -1.1960
-------------------------------------------------------------------------------




  Elastic Constant Matrix: (Units=GPa)

-------------------------------------------------------------------------------
  Indices      1         2         3         4         5         6    
-------------------------------------------------------------------------------
       1     39.7627   17.8921   12.9522    0.9746    0.1546   -0.0094
       2     17.8921   32.2155   12.9834    0.7998    1.6785   -1.1889
       3     12.9522   12.9834   13.4185    0.5165   -0.0946   -0.4196
       4      0.9746    0.7998    0.5165    7.5119   -0.2555   -0.0894
       5      0.1546    1.6785   -0.0946   -0.2555   16.1461    2.9062
       6     -0.0094   -1.1889   -0.4196   -0.0894    2.9062   17.0910
-------------------------------------------------------------------------------


  Elastic Compliance Matrix: (Units=1/GPa)

-------------------------------------------------------------------------------
  Indices      1         2         3         4         5         6    
-------------------------------------------------------------------------------
       1    0.038836 -0.010696 -0.027102 -0.002026  0.000826 -0.001539
       2   -0.010696  0.054568 -0.042335 -0.001688 -0.006539  0.003854
       3   -0.027102 -0.042335  0.141731 -0.001539  0.005544 -0.000431
       4   -0.002026 -0.001688 -0.001539  0.133750  0.002274  0.000157
       5    0.000826 -0.006539  0.005544  0.002274  0.064710 -0.011310
       6   -0.001539  0.003854 -0.000431  0.000157 -0.011310  0.060691
-------------------------------------------------------------------------------

  Mechanical properties :

-------------------------------------------------------------------------------
  Convention :                    Reuss         Voigt         Hill
-------------------------------------------------------------------------------
  Bulk  Modulus (GPa)     =      13.35651      19.22801      16.29226
  Shear Modulus (GPa)     =       7.35826      10.92106       9.13966
-------------------------------------------------------------------------------
  Velocity S-wave (km/s)  =       1.63323       1.98972       1.82022
  Velocity P-wave (km/s)  =       2.89800       3.49985       3.21305
-------------------------------------------------------------------------------
  Compressibility (1/GPa) =    0.07486989
-------------------------------------------------------------------------------
  Stress axis :                     x             y             z
-------------------------------------------------------------------------------
  Youngs Moduli (GPa)     =      25.74901      18.32578       7.05562
-------------------------------------------------------------------------------
  Poissons Ratio (x)      =                     0.19602       0.19122
  Poissons Ratio (y)      =       0.27542                     0.29870
  Poissons Ratio (z)      =       0.69785       0.77581
-------------------------------------------------------------------------------


  Piezoelectric Strain Matrix: (Units=C/m**2)

-------------------------------------------------------------------------------
  Indices      1         2         3         4         5         6    
-------------------------------------------------------------------------------
       x     0.06092   0.54187   0.02210   0.00637   0.07197  -0.00108
       y    -0.27749  -0.12825   0.01235   0.02363  -0.29491  -0.20007
       z     0.22534   0.00898  -0.09847  -0.16081  -0.43835   0.05279
-------------------------------------------------------------------------------


  Piezoelectric Stress Matrix: (Units=10**-11 C/N)

-------------------------------------------------------------------------------
  Indices      1         2         3         4         5         6    
-------------------------------------------------------------------------------
       x    -0.39810   2.74962  -2.10689  -0.00565   0.13135   0.11066
       y    -0.97231  -0.34358   1.31150   0.32188  -1.60894  -0.88757
       z     1.12064   0.55898  -2.26495  -2.28170  -2.97472   0.78665
-------------------------------------------------------------------------------


  Static dielectric constant tensor : 

-------------------------------------------------------------------------------
              x         y         z
-------------------------------------------------------------------------------
       x     5.36493  -0.00875   0.00114
       y    -0.00875   6.15442  -0.02143
       z     0.00114  -0.02143   4.25464
--------------------------------------------------------------------------------

  High frequency dielectric constant tensor : 

-------------------------------------------------------------------------------
              x         y         z
-------------------------------------------------------------------------------
       x     1.52482   0.00014  -0.00024
       y     0.00014   1.52769   0.00016
       z    -0.00024   0.00016   1.48562
-------------------------------------------------------------------------------

  Static refractive indices : 

-------------------------------------------------------------------------------
    1 =    2.06262      2 =    2.31621      3 =    2.48088
-------------------------------------------------------------------------------

  High frequency refractive indices : 

-------------------------------------------------------------------------------
    1 =    1.21886      2 =    1.23483      3 =    1.23600
-------------------------------------------------------------------------------


  Time to end of optimisation =       9.0163 seconds


  Peak dynamic memory used =       5.01 MB 


  Timing analysis for GULP :

--------------------------------------------------------------------------------
  Task / Subroutine                                          Time (Seconds)
--------------------------------------------------------------------------------
  Calculation of reciprocal space energy and derivatives          0.6431
  Calculation of real space energy and derivatives                6.1426
  Calculation of three-body energy and derivatives                0.0550
  Calculation and manipulation of Hessian matrix                  2.6345
  Calculation of matrix inversion                                 0.0374
  Global summation overhead                                       0.0001
--------------------------------------------------------------------------------
  Total CPU time                                                  9.0163
--------------------------------------------------------------------------------


  Dump file written as c00021.vasp.grs
  CIF file written as c00021.vasp.cif


  Job Finished at 18:37.27 30th October    2025                               

