********************************************************************************
*                       GENERAL UTILITY LATTICE PROGRAM                        *
*                                 Julian Gale                                  *
*                       Curtin Institute for Computation                       *
*                    School of Molecular and Life Sciences                     *
*                    Curtin University, Western Australia                      *
********************************************************************************
* Version = 6.1.2 * Last modified =   3rd November 2022                        *
********************************************************************************
*  optimise     - perform optimisation run                                     *
*  conp         - constant pressure calculation                                *
*  property     - calculate properties for final geometry                      *
********************************************************************************

  Job Started  at 18:34.14 30th October    2025                               

  Number of CPUs =     1


  Total number of configurations input =      1

********************************************************************************
*  Input for Configuration =   1 : c00004.vasp                                 *
********************************************************************************

  Formula = Ge22Si2O48                                                  

  Number of irreducible atoms/shells =     120


  Total number atoms/shells =     120

  Dimensionality = 3               :  Bulk   



  Cartesian lattice vectors (Angstroms) :

       17.182800    0.000000    0.000000
        0.000000    7.513760    0.000000
        0.000000    0.000000   10.447700

  Cell parameters (Angstroms/Degrees):

  a =      17.1828    alpha =  90.0000
  b =       7.5138    beta  =  90.0000
  c =      10.4477    gamma =  90.0000

  Initial cell volume =        1348.875752 Angs**3

  Temperature of configuration =   0.00     K 

  Pressure of configuration =         0.000 GPa 

  Fractional coordinates of asymmetric unit :

--------------------------------------------------------------------------------
   No.  Atomic       x           y          z         Charge      Occupancy
        Label      (Frac)      (Frac)     (Frac)        (e)         (Frac)  
--------------------------------------------------------------------------------
      1 Ge    c    0.052090    0.000000    0.372270     4.00000    1.000000    
      2 Ge    c    0.447910 *  0.000000 *  0.372270 *   4.00000    1.000000    
      3 Ge    c    0.947910 *  0.000000 *  0.627730 *   4.00000    1.000000    
      4 Ge    c    0.552090 *  0.000000 *  0.627730 *   4.00000    1.000000    
      5 Ge    c    0.556730 *  0.000000 *  0.122130 *   4.00000    1.000000    
      6 Ge    c    0.943270 *  0.000000 *  0.122130 *   4.00000    1.000000    
      7 Ge    c    0.443270 *  0.000000 *  0.877870 *   4.00000    1.000000    
      8 Ge    c    0.056730 *  0.000000 *  0.877870 *   4.00000    1.000000    
      9 Ge    c    0.160190 *  0.293910 *  0.273440 *   4.00000    1.000000    
     10 Ge    c    0.339810 *  0.706090 *  0.273440 *   4.00000    1.000000    
     11 Ge    c    0.839810 *  0.293910 *  0.726560 *   4.00000    1.000000    
     12 Ge    c    0.660190 *  0.706090 *  0.726560 *   4.00000    1.000000    
     13 Ge    c    0.839810 *  0.706090 *  0.726560 *   4.00000    1.000000    
     14 Ge    c    0.660190 *  0.293910 *  0.726560 *   4.00000    1.000000    
     15 Ge    c    0.160190 *  0.706090 *  0.273440 *   4.00000    1.000000    
     16 Ge    c    0.339810 *  0.293910 *  0.273440 *   4.00000    1.000000    
     17 Ge    c    0.660660 *  0.294090 *  0.017440 *   4.00000    1.000000    
     18 Ge    c    0.839340 *  0.705910 *  0.017440 *   4.00000    1.000000    
     19 Ge    c    0.339340 *  0.294090 *  0.982560 *   4.00000    1.000000    
     20 Ge    c    0.339340 *  0.705910 *  0.982560 *   4.00000    1.000000    
     21 Ge    c    0.160660 *  0.294090 *  0.982560 *   4.00000    1.000000    
     22 Ge    c    0.660660 *  0.705910 *  0.017440 *   4.00000    1.000000    
     23 Si    c    0.160660 *  0.705910 *  0.982560 *   4.00000    1.000000    
     24 Si    c    0.839340 *  0.294090 *  0.017440 *   4.00000    1.000000    
     25 O1    c    0.106570 *  0.174340 *  0.366200 *   1.73396    1.000000    
     26 O1    c    0.393430 *  0.825660 *  0.366200 *   1.73396    1.000000    
     27 O1    c    0.893430 *  0.174340 *  0.633800 *   1.73396    1.000000    
     28 O1    c    0.606570 *  0.825660 *  0.633800 *   1.73396    1.000000    
     29 O1    c    0.893430 *  0.825660 *  0.633800 *   1.73396    1.000000    
     30 O1    c    0.606570 *  0.174340 *  0.633800 *   1.73396    1.000000    
     31 O1    c    0.106570 *  0.825660 *  0.366200 *   1.73396    1.000000    
     32 O1    c    0.393430 *  0.174340 *  0.366200 *   1.73396    1.000000    
     33 O1    c    0.000000 *  0.000000 *  0.500000 *   1.73396    1.000000    
     34 O1    c    0.500000 *  0.000000 *  0.500000 *   1.73396    1.000000    
     35 O1    c    0.994520 *  0.000000 *  0.250840 *   1.73396    1.000000    
     36 O1    c    0.505480 *  0.000000 *  0.250840 *   1.73396    1.000000    
     37 O1    c    0.005480 *  0.000000 *  0.749160 *   1.73396    1.000000    
     38 O1    c    0.494520 *  0.000000 *  0.749160 *   1.73396    1.000000    
     39 O1    c    0.610230 *  0.175520 *  0.115390 *   1.73396    1.000000    
     40 O1    c    0.889770 *  0.824480 *  0.115390 *   1.73396    1.000000    
     41 O1    c    0.389770 *  0.175520 *  0.884610 *   1.73396    1.000000    
     42 O3    c    0.110230 *  0.824480 *  0.884610 *   1.33043    1.000000    
     43 O1    c    0.389770 *  0.824480 *  0.884610 *   1.73396    1.000000    
     44 O1    c    0.110230 *  0.175520 *  0.884610 *   1.73396    1.000000    
     45 O1    c    0.610230 *  0.824480 *  0.115390 *   1.73396    1.000000    
     46 O3    c    0.889770 *  0.175520 *  0.115390 *   1.33043    1.000000    
     47 O1    c    0.500000 *  0.000000 *  0.000000 *   1.73396    1.000000    
     48 O1    c    0.000000 *  0.000000 *  0.000000 *   1.73396    1.000000    
     49 O1    c    0.151750 *  0.500000 *  0.313330 *   1.73396    1.000000    
     50 O1    c    0.348250 *  0.500000 *  0.313330 *   1.73396    1.000000    
     51 O1    c    0.848250 *  0.500000 *  0.686670 *   1.73396    1.000000    
     52 O1    c    0.651750 *  0.500000 *  0.686670 *   1.73396    1.000000    
     53 O1    c    0.250000 *  0.234950 *  0.285720 *   1.73396    1.000000    
     54 O1    c    0.250000 *  0.765050 *  0.285720 *   1.73396    1.000000    
     55 O1    c    0.750000 *  0.234950 *  0.714280 *   1.73396    1.000000    
     56 O1    c    0.750000 *  0.765050 *  0.714280 *   1.73396    1.000000    
     57 O1    c    0.131410 *  0.268650 *  0.127790 *   1.73396    1.000000    
     58 O1    c    0.368590 *  0.731350 *  0.127790 *   1.73396    1.000000    
     59 O3    c    0.868590 *  0.268650 *  0.872210 *   1.33043    1.000000    
     60 O1    c    0.631410 *  0.731350 *  0.872210 *   1.73396    1.000000    
     61 O1    c    0.868590 *  0.731350 *  0.872210 *   1.73396    1.000000    
     62 O1    c    0.631410 *  0.268650 *  0.872210 *   1.73396    1.000000    
     63 O3    c    0.131410 *  0.731350 *  0.127790 *   1.33043    1.000000    
     64 O1    c    0.368590 *  0.268650 *  0.127790 *   1.73396    1.000000    
     65 O1    c    0.653920 *  0.500000 *  0.058200 *   1.73396    1.000000    
     66 O3    c    0.846080 *  0.500000 *  0.058200 *   1.33043    1.000000    
     67 O1    c    0.346080 *  0.500000 *  0.941800 *   1.73396    1.000000    
     68 O3    c    0.153920 *  0.500000 *  0.941800 *   1.33043    1.000000    
     69 O3    c    0.750000 *  0.231060 *  0.027050 *   1.33043    1.000000    
     70 O1    c    0.750000 *  0.768940 *  0.027050 *   1.73396    1.000000    
     71 O1    c    0.250000 *  0.231060 *  0.972950 *   1.73396    1.000000    
     72 O3    c    0.250000 *  0.768940 *  0.972950 *   1.33043    1.000000    
     73 O1    s    0.106570 *  0.174340 *  0.366200 *  -3.73396    1.000000    
     74 O1    s    0.393430 *  0.825660 *  0.366200 *  -3.73396    1.000000    
     75 O1    s    0.893430 *  0.174340 *  0.633800 *  -3.73396    1.000000    
     76 O1    s    0.606570 *  0.825660 *  0.633800 *  -3.73396    1.000000    
     77 O1    s    0.893430 *  0.825660 *  0.633800 *  -3.73396    1.000000    
     78 O1    s    0.606570 *  0.174340 *  0.633800 *  -3.73396    1.000000    
     79 O1    s    0.106570 *  0.825660 *  0.366200 *  -3.73396    1.000000    
     80 O1    s    0.393430 *  0.174340 *  0.366200 *  -3.73396    1.000000    
     81 O1    s    0.000000 *  0.000000 *  0.500000 *  -3.73396    1.000000    
     82 O1    s    0.500000 *  0.000000 *  0.500000 *  -3.73396    1.000000    
     83 O1    s    0.994520 *  0.000000 *  0.250840 *  -3.73396    1.000000    
     84 O1    s    0.505480 *  0.000000 *  0.250840 *  -3.73396    1.000000    
     85 O1    s    0.005480 *  0.000000 *  0.749160 *  -3.73396    1.000000    
     86 O1    s    0.494520 *  0.000000 *  0.749160 *  -3.73396    1.000000    
     87 O1    s    0.610230 *  0.175520 *  0.115390 *  -3.73396    1.000000    
     88 O1    s    0.889770 *  0.824480 *  0.115390 *  -3.73396    1.000000    
     89 O1    s    0.389770 *  0.175520 *  0.884610 *  -3.73396    1.000000    
     90 O3    s    0.110230 *  0.824480 *  0.884610 *  -3.33043    1.000000    
     91 O1    s    0.389770 *  0.824480 *  0.884610 *  -3.73396    1.000000    
     92 O1    s    0.110230 *  0.175520 *  0.884610 *  -3.73396    1.000000    
     93 O1    s    0.610230 *  0.824480 *  0.115390 *  -3.73396    1.000000    
     94 O3    s    0.889770 *  0.175520 *  0.115390 *  -3.33043    1.000000    
     95 O1    s    0.500000 *  0.000000 *  0.000000 *  -3.73396    1.000000    
     96 O1    s    0.000000 *  0.000000 *  0.000000 *  -3.73396    1.000000    
     97 O1    s    0.151750 *  0.500000 *  0.313330 *  -3.73396    1.000000    
     98 O1    s    0.348250 *  0.500000 *  0.313330 *  -3.73396    1.000000    
     99 O1    s    0.848250 *  0.500000 *  0.686670 *  -3.73396    1.000000    
    100 O1    s    0.651750 *  0.500000 *  0.686670 *  -3.73396    1.000000    
    101 O1    s    0.250000 *  0.234950 *  0.285720 *  -3.73396    1.000000    
    102 O1    s    0.250000 *  0.765050 *  0.285720 *  -3.73396    1.000000    
    103 O1    s    0.750000 *  0.234950 *  0.714280 *  -3.73396    1.000000    
    104 O1    s    0.750000 *  0.765050 *  0.714280 *  -3.73396    1.000000    
    105 O1    s    0.131410 *  0.268650 *  0.127790 *  -3.73396    1.000000    
    106 O1    s    0.368590 *  0.731350 *  0.127790 *  -3.73396    1.000000    
    107 O3    s    0.868590 *  0.268650 *  0.872210 *  -3.33043    1.000000    
    108 O1    s    0.631410 *  0.731350 *  0.872210 *  -3.73396    1.000000    
    109 O1    s    0.868590 *  0.731350 *  0.872210 *  -3.73396    1.000000    
    110 O1    s    0.631410 *  0.268650 *  0.872210 *  -3.73396    1.000000    
    111 O3    s    0.131410 *  0.731350 *  0.127790 *  -3.33043    1.000000    
    112 O1    s    0.368590 *  0.268650 *  0.127790 *  -3.73396    1.000000    
    113 O1    s    0.653920 *  0.500000 *  0.058200 *  -3.73396    1.000000    
    114 O3    s    0.846080 *  0.500000 *  0.058200 *  -3.33043    1.000000    
    115 O1    s    0.346080 *  0.500000 *  0.941800 *  -3.73396    1.000000    
    116 O3    s    0.153920 *  0.500000 *  0.941800 *  -3.33043    1.000000    
    117 O3    s    0.750000 *  0.231060 *  0.027050 *  -3.33043    1.000000    
    118 O1    s    0.750000 *  0.768940 *  0.027050 *  -3.73396    1.000000    
    119 O1    s    0.250000 *  0.231060 *  0.972950 *  -3.73396    1.000000    
    120 O3    s    0.250000 *  0.768940 *  0.972950 *  -3.33043    1.000000    
--------------------------------------------------------------------------------



********************************************************************************
*  General input information                                                   *
********************************************************************************

  Species output for all configurations : 

--------------------------------------------------------------------------------
  Species    Type    Atomic    Atomic    Charge       Radii (Angs)     Library
                     Number     Mass       (e)     Cova   Ionic  VDW   Symbol
--------------------------------------------------------------------------------
    Ge       Core       32      72.61   4.000000   1.170  0.000  1.750 Ge       
    Si       Core       14      28.09   4.000000   1.200  0.000  2.100 Si       
    O1       Core        8      16.00   1.733957   0.730  0.000  1.360 O1       
    O2       Core        8      16.00   0.870733   0.730  0.000  0.000 O2       
    O3       Core        8      16.00   1.330431   0.730  0.000  1.360 O3       
    O1       Shell       8       0.00  -3.733957   0.730  0.000  0.000 O1       
    O2       Shell       8       0.00  -2.870733   0.730  0.000  0.000 O2       
    O3       Shell       8       0.00  -3.330431   0.730  0.000  0.000 O3       
--------------------------------------------------------------------------------


  Lattice summation method               =    Ewald          (3-D)
                                         =    Parry          (2-D)
                                         =    Saunders et al (1-D)
  Accuracy factor for lattice sums       =   12.000


  Analytic derivatives to be used

  Time limit = Infinity

  Maximum range for interatomic potentials =    100000.000000 Angstroms

  General interatomic potentials :

--------------------------------------------------------------------------------
Atom  Types   Potential      Parameter       Value         Units   Cutoffs(Ang)
  1     2                                                            Min /  Max 
--------------------------------------------------------------------------------
Si   c O1   s Buckingham    Buckingham A     1315.2478    eV        0.000 16.000
                            Buckingham rho  0.31775900    Ang       
                            Buckingham C     10.141118    eV*Ang^6  
--------------------------------------------------------------------------------
Si   c O2   s Buckingham    Buckingham A     1315.2478    eV        0.000 16.000
                            Buckingham rho  0.31775900    Ang       
                            Buckingham C     10.141118    eV*Ang^6  
--------------------------------------------------------------------------------
Si   c O3   s Buckingham    Buckingham A     1315.2478    eV        0.000 16.000
                            Buckingham rho  0.31775900    Ang       
                            Buckingham C     10.141118    eV*Ang^6  
--------------------------------------------------------------------------------
Ge   c O1   s Buckingham    Buckingham A     1497.3996    eV        0.000 16.000
                            Buckingham rho  0.32564600    Ang       
                            Buckingham C     16.808599    eV*Ang^6  
--------------------------------------------------------------------------------
Ge   c O2   s Buckingham    Buckingham A     1497.3996    eV        0.000 16.000
                            Buckingham rho  0.32564600    Ang       
                            Buckingham C     16.808599    eV*Ang^6  
--------------------------------------------------------------------------------
Ge   c O3   s Buckingham    Buckingham A     1497.3996    eV        0.000 16.000
                            Buckingham rho  0.32564600    Ang       
                            Buckingham C     16.808599    eV*Ang^6  
--------------------------------------------------------------------------------
O1   s O1   s Buckingham    Buckingham A     22764.000    eV        0.000 16.000
                            Buckingham rho  0.14900000    Ang       
                            Buckingham C     10.937044    eV*Ang^6  
--------------------------------------------------------------------------------
O1   s O2   s Buckingham    Buckingham A     22764.000    eV        0.000 16.000
                            Buckingham rho  0.14900000    Ang       
                            Buckingham C     10.937044    eV*Ang^6  
--------------------------------------------------------------------------------
O1   s O3   s Buckingham    Buckingham A     22764.000    eV        0.000 16.000
                            Buckingham rho  0.14900000    Ang       
                            Buckingham C     10.937044    eV*Ang^6  
--------------------------------------------------------------------------------
O2   s O2   s Buckingham    Buckingham A     22764.000    eV        0.000 16.000
                            Buckingham rho  0.14900000    Ang       
                            Buckingham C     10.937044    eV*Ang^6  
--------------------------------------------------------------------------------
O2   s O3   s Buckingham    Buckingham A     22764.000    eV        0.000 16.000
                            Buckingham rho  0.14900000    Ang       
                            Buckingham C     10.937044    eV*Ang^6  
--------------------------------------------------------------------------------
O3   s O3   s Buckingham    Buckingham A     22764.000    eV        0.000 16.000
                            Buckingham rho  0.14900000    Ang       
                            Buckingham C     10.937044    eV*Ang^6  
--------------------------------------------------------------------------------
O1   c O1   s Spring (c-s)  Spring k 2       180.31577    eV*Ang^-2 0.000  0.800
                            Spring k 4       0.0000000    eV*Ang^-4 
--------------------------------------------------------------------------------
O2   c O2   s Spring (c-s)  Spring k 2       75.969800    eV*Ang^-2 0.000  0.800
                            Spring k 4       0.0000000    eV*Ang^-4 
--------------------------------------------------------------------------------
O3   c O3   s Spring (c-s)  Spring k 2       128.14270    eV*Ang^-2 0.000  0.800
                            Spring k 4       0.0000000    eV*Ang^-4 
--------------------------------------------------------------------------------

  General Three-body potentials :

--------------------------------------------------------------------------------
  Atoms       Potential      Parameter       Value         Units   Cutoffs(Ang)
  1 / 2 / 3                                                          Min /  Max 
--------------------------------------------------------------------------------
Si    core    Harmonic      Three-body cnst  1.2614000    eV*rad^-2 0.000  1.900
O1    shel                  Three-body angl  109.47000    degrees   0.000  1.900
O1    shel                  Three-body k4    0.0000000    eV*rad^-4 0.000  3.500
                            Three-body k3    0.0000000    eV*rad^-3 
--------------------------------------------------------------------------------
Si    core    Harmonic      Three-body cnst  1.2614000    eV*rad^-2 0.000  1.900
O1    shel                  Three-body angl  109.47000    degrees   0.000  1.900
õ(1   shel                  Three-body k4    0.0000000    eV*rad^-4 0.000  3.500
                            Three-body k3    0.0000000    eV*rad^-3 
--------------------------------------------------------------------------------
Si    core    Harmonic      Three-body cnst  1.2614000    eV*rad^-2 0.000  1.900
õ(1   shel                  Three-body angl  109.47000    degrees   0.000  1.900
õ(1   shel                  Three-body k4    0.0000000    eV*rad^-4 0.000  3.500
                            Three-body k3    0.0000000    eV*rad^-3 
--------------------------------------------------------------------------------
Si    core    Harmonic      Three-body cnst  1.2614000    eV*rad^-2 0.000  1.900
O1    shel                  Three-body angl  109.47000    degrees   0.000  1.900
O2    shel                  Three-body k4    0.0000000    eV*rad^-4 0.000  3.500
                            Three-body k3    0.0000000    eV*rad^-3 
--------------------------------------------------------------------------------
Si    core    Harmonic      Three-body cnst  1.2614000    eV*rad^-2 0.000  1.900
O1    shel                  Three-body angl  109.47000    degrees   0.000  1.900
õ(2   shel                  Three-body k4    0.0000000    eV*rad^-4 0.000  3.500
                            Three-body k3    0.0000000    eV*rad^-3 
--------------------------------------------------------------------------------
Si    core    Harmonic      Three-body cnst  1.2614000    eV*rad^-2 0.000  1.900
O2    shel                  Three-body angl  109.47000    degrees   0.000  1.900
õ(1   shel                  Three-body k4    0.0000000    eV*rad^-4 0.000  3.500
                            Three-body k3    0.0000000    eV*rad^-3 
--------------------------------------------------------------------------------
Si    core    Harmonic      Three-body cnst  1.2614000    eV*rad^-2 0.000  1.900
õ(1   shel                  Three-body angl  109.47000    degrees   0.000  1.900
õ(2   shel                  Three-body k4    0.0000000    eV*rad^-4 0.000  3.500
                            Three-body k3    0.0000000    eV*rad^-3 
--------------------------------------------------------------------------------
Si    core    Harmonic      Three-body cnst  1.2614000    eV*rad^-2 0.000  1.900
O2    shel                  Three-body angl  109.47000    degrees   0.000  1.900
O2    shel                  Three-body k4    0.0000000    eV*rad^-4 0.000  3.500
                            Three-body k3    0.0000000    eV*rad^-3 
--------------------------------------------------------------------------------
Si    core    Harmonic      Three-body cnst  1.2614000    eV*rad^-2 0.000  1.900
O2    shel                  Three-body angl  109.47000    degrees   0.000  1.900
õ(2   shel                  Three-body k4    0.0000000    eV*rad^-4 0.000  3.500
                            Three-body k3    0.0000000    eV*rad^-3 
--------------------------------------------------------------------------------
Si    core    Harmonic      Three-body cnst  1.2614000    eV*rad^-2 0.000  1.900
õ(2   shel                  Three-body angl  109.47000    degrees   0.000  1.900
õ(2   shel                  Three-body k4    0.0000000    eV*rad^-4 0.000  3.500
                            Three-body k3    0.0000000    eV*rad^-3 
--------------------------------------------------------------------------------

********************************************************************************
*  Output for configuration   1 : c00004.vasp                                  *
********************************************************************************


  Components of energy : 

--------------------------------------------------------------------------------
  Interatomic potentials     =         912.61361553 eV    
  Three-body potentials      =           0.00000000 eV    
  Monopole - monopole (real) =       -2676.00317478 eV    
  Monopole - monopole (recip)=       -1115.35404472 eV    
  Monopole - monopole (total)=       -3791.35721950 eV    
--------------------------------------------------------------------------------
  Total lattice energy       =       -2878.74360397 eV    
--------------------------------------------------------------------------------
  Total lattice energy       =         -277754.7522 kJ/(mole unit cells)
--------------------------------------------------------------------------------


  Number of variables =      363

  Maximum number of calculations  =          1000
  Maximum Hessian update interval =            10
  Maximum step size               =   0.100000000
  Maximum parameter tolerance     =   0.000010000
  Maximum function  tolerance     =   0.000010000
  Maximum gradient  tolerance     =   0.001000000
  Maximum gradient  component     =   0.010000000

  Symmetry not applied to optimisation

  Cell parameters to be optimised using strains

  Newton-Raphson optimiser to be used

  BFGS hessian update to be used

  Lower half triangular hessian to be used

  Minimiser to switch to RFO
  When gradient norm is less than     0.050000

  Dumpfile to be written after every cycle

  Start of bulk optimisation :

  Cycle:      0 Energy:     -2878.743604  Gnorm:      5.963218  CPU:    0.089
  ** Hessian calculated **
  Cycle:      1 Energy:     -2924.632268  Gnorm:      1.447677  CPU:    0.206
  ** Hessian calculated **
  Cycle:      2 Energy:     -2930.512844  Gnorm:      0.601834  CPU:    0.412
  ** Hessian calculated **
  Cycle:      3 Energy:     -2931.406541  Gnorm:      0.271928  CPU:    0.572
  Cycle:      4 Energy:     -2931.574579  Gnorm:      0.126967  CPU:    0.654
  Cycle:      5 Energy:     -2931.640625  Gnorm:      0.104670  CPU:    0.751
  Cycle:      6 Energy:     -2931.720420  Gnorm:      0.091221  CPU:    0.847
  Cycle:      7 Energy:     -2931.798863  Gnorm:      0.093182  CPU:    0.943
  Cycle:      8 Energy:     -2931.842532  Gnorm:      0.075236  CPU:    1.024
  Cycle:      9 Energy:     -2931.873921  Gnorm:      0.072117  CPU:    1.121
  Cycle:     10 Energy:     -2931.897221  Gnorm:      0.063017  CPU:    1.217
  Cycle:     11 Energy:     -2931.921623  Gnorm:      0.062314  CPU:    1.313
  Cycle:     12 Energy:     -2931.950446  Gnorm:      0.066242  CPU:    1.409
  ** Hessian calculated **
  Cycle:     13 Energy:     -2931.964387  Gnorm:      0.065735  CPU:    1.584
  Cycle:     14 Energy:     -2931.987590  Gnorm:      0.064836  CPU:    1.694
  Cycle:     15 Energy:     -2932.020202  Gnorm:      0.063395  CPU:    1.804
  Cycle:     16 Energy:     -2932.050973  Gnorm:      0.061715  CPU:    1.899
  Cycle:     17 Energy:     -2932.076269  Gnorm:      0.059945  CPU:    2.009
  ** Hessian calculated **
  Cycle:     18 Energy:     -2932.083851  Gnorm:      0.052838  CPU:    2.183
  Cycle:     19 Energy:     -2932.093571  Gnorm:      0.048844  CPU:    2.279
  ** Hessian has required structure
  Cycle:     20 Energy:     -2932.103457  Gnorm:      0.091182  CPU:    2.411
  ** Hessian has required structure
  Cycle:     21 Energy:     -2932.116432  Gnorm:      0.099128  CPU:    2.542
  ** Hessian has required structure
  Cycle:     22 Energy:     -2932.130904  Gnorm:      0.094546  CPU:    2.673
  ** Hessian has required structure
  Cycle:     23 Energy:     -2932.136423  Gnorm:      0.100823  CPU:    2.788
  ** Hessian has required structure
  Cycle:     24 Energy:     -2932.141542  Gnorm:      0.115376  CPU:    2.904
  ** Hessian has required structure
  Cycle:     25 Energy:     -2932.151822  Gnorm:      0.139517  CPU:    3.020
  ** Hessian has required structure
  Cycle:     26 Energy:     -2932.157576  Gnorm:      0.109474  CPU:    3.135
  ** Hessian has required structure
  Cycle:     27 Energy:     -2932.162393  Gnorm:      0.111219  CPU:    3.251
  ** Hessian has wrong structure
  ** Imaginary eigenvectors =   7
  Cycle:     28 Energy:     -2932.213861  Gnorm:      0.111430  CPU:    3.617
  ** Hessian has wrong structure
  ** Imaginary eigenvectors =   6
  Cycle:     29 Energy:     -2932.283623  Gnorm:      0.131725  CPU:    3.953
  ** Hessian has wrong structure
  ** Imaginary eigenvectors =   3
  ** Hessian has wrong structure
  ** Imaginary eigenvectors =   3
  Cycle:     30 Energy:     -2932.399928  Gnorm:      0.147263  CPU:    4.395
  ** Hessian has wrong structure
  ** Imaginary eigenvectors =   2
  ** Hessian has wrong structure
  ** Imaginary eigenvectors =   1
  Cycle:     31 Energy:     -2932.677628  Gnorm:      0.162800  CPU:    4.740
  ** Hessian has wrong structure
  ** Imaginary eigenvectors =   1
  Cycle:     32 Energy:     -2933.025573  Gnorm:      0.124905  CPU:    4.945
  ** Hessian has required structure
  Cycle:     33 Energy:     -2933.291302  Gnorm:      0.072388  CPU:    5.165
  ** Hessian has required structure
  Cycle:     34 Energy:     -2933.399655  Gnorm:      0.042459  CPU:    5.311
  ** Hessian has required structure
  Cycle:     35 Energy:     -2933.447372  Gnorm:      0.041493  CPU:    5.444
  ** Hessian has required structure
  Cycle:     36 Energy:     -2933.481628  Gnorm:      0.023600  CPU:    5.580
  ** Hessian has required structure
  Cycle:     37 Energy:     -2933.495024  Gnorm:      0.024540  CPU:    5.713
  ** Hessian has required structure
  Cycle:     38 Energy:     -2933.501053  Gnorm:      0.015491  CPU:    5.831
  ** Hessian has required structure
  Cycle:     39 Energy:     -2933.504173  Gnorm:      0.009584  CPU:    5.962
  ** Hessian has required structure
  Cycle:     40 Energy:     -2933.505340  Gnorm:      0.007485  CPU:    6.094
  ** Hessian has required structure
  Cycle:     41 Energy:     -2933.505956  Gnorm:      0.003796  CPU:    6.226
  ** Hessian has required structure
  Cycle:     42 Energy:     -2933.506261  Gnorm:      0.002505  CPU:    6.357
  ** Hessian has required structure
  Cycle:     43 Energy:     -2933.506438  Gnorm:      0.001268  CPU:    6.576
  ** Hessian has required structure
  Cycle:     44 Energy:     -2933.506482  Gnorm:      0.000647  CPU:    6.719
  ** Hessian has required structure
  Cycle:     45 Energy:     -2933.506496  Gnorm:      0.000327  CPU:    6.864
  ** Hessian has required structure
  Cycle:     46 Energy:     -2933.506497  Gnorm:      0.000262  CPU:    6.978
  ** Hessian has required structure
  Cycle:     47 Energy:     -2933.506498  Gnorm:      0.000203  CPU:    7.092
  ** Hessian has required structure
  Cycle:     48 Energy:     -2933.506499  Gnorm:      0.000154  CPU:    7.207
  ** Hessian has required structure
  Cycle:     49 Energy:     -2933.506499  Gnorm:      0.000129  CPU:    7.322
  ** Hessian has required structure
  Cycle:     50 Energy:     -2933.506499  Gnorm:      0.000123  CPU:    7.438
  ** Hessian has required structure
  Cycle:     51 Energy:     -2933.506158  Gnorm:      0.006344  CPU:    7.614
  ** Hessian has required structure
  Cycle:     52 Energy:     -2933.506354  Gnorm:      0.004128  CPU:    7.833
  ** Hessian has required structure
  Cycle:     53 Energy:     -2933.506461  Gnorm:      0.002064  CPU:    7.978
  ** Hessian has required structure
  Cycle:     54 Energy:     -2933.506485  Gnorm:      0.001238  CPU:    8.107
  ** Hessian has required structure
  Cycle:     55 Energy:     -2933.506498  Gnorm:      0.000495  CPU:    8.266
  ** Hessian has required structure
  Cycle:     56 Energy:     -2933.506499  Gnorm:      0.000347  CPU:    8.382
  ** Hessian has required structure
  Cycle:     57 Energy:     -2933.506499  Gnorm:      0.000243  CPU:    8.497
  ** Hessian has required structure
  Cycle:     58 Energy:     -2933.506499  Gnorm:      0.000218  CPU:    8.612
  ** Hessian has required structure
  Cycle:     59 Energy:     -2933.506242  Gnorm:      0.005584  CPU:    8.772
  ** Hessian has required structure
  Cycle:     60 Energy:     -2933.506259  Gnorm:      0.005406  CPU:    8.989
  ** Hessian has required structure
  Cycle:     61 Energy:     -2933.506285  Gnorm:      0.005105  CPU:    9.148
  ** Hessian has required structure
  Cycle:     62 Energy:     -2933.506323  Gnorm:      0.004635  CPU:    9.306
  ** Hessian has required structure
  Cycle:     63 Energy:     -2933.506365  Gnorm:      0.004041  CPU:    9.450
  ** Hessian has required structure
  Cycle:     64 Energy:     -2933.506414  Gnorm:      0.003205  CPU:    9.593
  ** Hessian has required structure
  Cycle:     65 Energy:     -2933.506470  Gnorm:      0.001979  CPU:    9.737
  ** Hessian has required structure
  Cycle:     66 Energy:     -2933.506494  Gnorm:      0.000989  CPU:    9.880
  ** Hessian has required structure
  Cycle:     67 Energy:     -2933.506497  Gnorm:      0.000752  CPU:    9.995
  ** Hessian has required structure
  Cycle:     68 Energy:     -2933.506499  Gnorm:      0.000608  CPU:   10.108
  ** Hessian has required structure
  Cycle:     69 Energy:     -2933.506499  Gnorm:      0.000572  CPU:   10.222
  ** Hessian has required structure
  Cycle:     70 Energy:     -2933.506499  Gnorm:      0.000572  CPU:   10.453
  ** Hessian calculated **


  **** Optimisation achieved ****


  Final energy =   -2933.50649916 eV      
  Final Gnorm  =       0.00057244

  Components of energy : 

--------------------------------------------------------------------------------
  Interatomic potentials     =         773.18234496 eV    
  Three-body potentials      =           0.00000000 eV    
  Monopole - monopole (real) =       -1490.26086499 eV    
  Monopole - monopole (recip)=       -2216.42797913 eV    
  Monopole - monopole (total)=       -3706.68884412 eV    
--------------------------------------------------------------------------------
  Total lattice energy       =       -2933.50649916 eV    
--------------------------------------------------------------------------------
  Total lattice energy       =         -283038.5344 kJ/(mole unit cells)
--------------------------------------------------------------------------------

  Final fractional coordinates of atoms :

--------------------------------------------------------------------------------
   No.  Atomic        x           y          z          Radius
        Label       (Frac)      (Frac)     (Frac)       (Angs) 
--------------------------------------------------------------------------------
     1  Ge    c     0.052090    0.000000    0.372270    0.000000
     2  Ge    c     0.450302    0.049969    0.416264    0.000000
     3  Ge    c     0.952092    0.044027    0.629730    0.000000
     4  Ge    c     0.554020    0.992142    0.667906    0.000000
     5  Ge    c     0.558471    0.993829    0.172283    0.000000
     6  Ge    c     0.949809    0.055167    0.114855    0.000000
     7  Ge    c     0.453679    0.066401    0.922529    0.000000
     8  Ge    c     0.060935    0.004082    0.871945    0.000000
     9  Ge    c     0.176432    0.280594    0.297522    0.000000
    10  Ge    c     0.328731    0.765885    0.305555    0.000000
    11  Ge    c     0.857371    0.355322    0.747223    0.000000
    12  Ge    c     0.650633    0.675327    0.737554    0.000000
    13  Ge    c     0.830476    0.758246    0.739909    0.000000
    14  Ge    c     0.678282    0.272618    0.741833    0.000000
    15  Ge    c     0.149597    0.685018    0.303099    0.000000
    16  Ge    c     0.356457    0.363723    0.296173    0.000000
    17  Ge    c     0.677002    0.279276    0.055609    0.000000
    18  Ge    c     0.830151    0.758765    0.052232    0.000000
    19  Ge    c     0.355913    0.380951    0.979957    0.000000
    20  Ge    c     0.329562    0.779059    0.992450    0.000000
    21  Ge    c     0.175996    0.300076    0.984423    0.000000
    22  Ge    c     0.649198    0.680064    0.052628    0.000000
    23  Si    c     0.152963    0.697665    0.996241    0.000000
    24  Si    c     0.852833    0.365628    0.054168    0.000000
    25  O1    c     0.128082    0.138330    0.393568    0.000000
    26  O1    c     0.375328    0.910704    0.400278    0.000000
    27  O1    c     0.927118    0.247151    0.671709    0.000000
    28  O1    c     0.586091    0.788663    0.649120    0.000000
    29  O1    c     0.876915    0.904715    0.644442    0.000000
    30  O1    c     0.629072    0.133000    0.646442    0.000000
    31  O1    c     0.082914    0.793869    0.387036    0.000000
    32  O1    c     0.424074    0.253694    0.378806    0.000000
    33  O1    c     0.977583    0.042769    0.468801    0.000000
    34  O1    c     0.477763    0.040962    0.576288    0.000000
    35  O1    c     0.025111    0.030085    0.213198    0.000000
    36  O1    c     0.528873    0.993224    0.330336    0.000000
    37  O1    c     0.031274    0.986279    0.714250    0.000000
    38  O1    c     0.527038    0.011072    0.828395    0.000000
    39  O1    c     0.636660    0.125861    0.152091    0.000000
    40  O1    c     0.881577    0.898849    0.143812    0.000000
    41  O1    c     0.421398    0.269334    0.895069    0.000000
    42  O3    c     0.093329    0.804837    0.915427    0.000000
    43  O1    c     0.376126    0.930621    0.903771    0.000000
    44  O1    c     0.128353    0.163829    0.883571    0.000000
    45  O1    c     0.582193    0.788621    0.135100    0.000000
    46  O3    c     0.911164    0.255932    0.136364    0.000000
    47  O1    c     0.483717    0.061308    0.081458    0.000000
    48  O1    c     0.981097    0.049278    0.957637    0.000000
    49  O1    c     0.160783    0.482292    0.357804    0.000000
    50  O1    c     0.343546    0.561417    0.361347    0.000000
    51  O1    c     0.845998    0.555472    0.683411    0.000000
    52  O1    c     0.663748    0.475460    0.680341    0.000000
    53  O1    c     0.272147    0.248295    0.299320    0.000000
    54  O1    c     0.233360    0.800375    0.310085    0.000000
    55  O1    c     0.773890    0.238482    0.737635    0.000000
    56  O1    c     0.734838    0.790583    0.738389    0.000000
    57  O1    c     0.145045    0.267556    0.139661    0.000000
    58  O1    c     0.361592    0.788279    0.149576    0.000000
    59  O3    c     0.881202    0.390700    0.907118    0.000000
    60  O1    c     0.620758    0.657093    0.895214    0.000000
    61  O1    c     0.862067    0.781492    0.896147    0.000000
    62  O1    c     0.645497    0.258600    0.898915    0.000000
    63  O3    c     0.123129    0.671585    0.141568    0.000000
    64  O1    c     0.383592    0.396197    0.139253    0.000000
    65  O1    c     0.657265    0.477605    0.114751    0.000000
    66  O3    c     0.841698    0.551738    0.112224    0.000000
    67  O1    c     0.347524    0.584382    0.923549    0.000000
    68  O3    c     0.164324    0.511920    0.936154    0.000000
    69  O3    c     0.774076    0.257764    0.049449    0.000000
    70  O1    c     0.734559    0.791172    0.057545    0.000000
    71  O1    c     0.271318    0.267483    0.976894    0.000000
    72  O3    c     0.232434    0.803848    0.997394    0.000000
    73  O1    s     0.126256    0.139189    0.384660    0.000000
    74  O1    s     0.377502    0.910180    0.394085    0.000000
    75  O1    s     0.923548    0.240497    0.674469    0.000000
    76  O1    s     0.588441    0.795310    0.656917    0.000000
    77  O1    s     0.879116    0.904092    0.650774    0.000000
    78  O1    s     0.627333    0.133384    0.655318    0.000000
    79  O1    s     0.085666    0.800671    0.379714    0.000000
    80  O1    s     0.420919    0.246655    0.375364    0.000000
    81  O1    s     0.981664    0.039468    0.472850    0.000000
    82  O1    s     0.481806    0.037776    0.571933    0.000000
    83  O1    s     0.020974    0.029892    0.216726    0.000000
    84  O1    s     0.525280    0.997468    0.325033    0.000000
    85  O1    s     0.027614    0.991867    0.719519    0.000000
    86  O1    s     0.523042    0.014161    0.824703    0.000000
    87  O1    s     0.634000    0.128061    0.146029    0.000000
    88  O1    s     0.882564    0.899370    0.134692    0.000000
    89  O1    s     0.418882    0.263020    0.903281    0.000000
    90  O3    s     0.096792    0.809827    0.920152    0.000000
    91  O1    s     0.378006    0.928352    0.912137    0.000000
    92  O1    s     0.126924    0.162254    0.890482    0.000000
    93  O1    s     0.585598    0.795536    0.131496    0.000000
    94  O3    s     0.908327    0.251748    0.126747    0.000000
    95  O1    s     0.487148    0.056614    0.076959    0.000000
    96  O1    s     0.984755    0.046326    0.962695    0.000000
    97  O1    s     0.161020    0.483878    0.349219    0.000000
    98  O1    s     0.343438    0.561518    0.352480    0.000000
    99  O1    s     0.845733    0.555096    0.692253    0.000000
   100  O1    s     0.663759    0.476623    0.689162    0.000000
   101  O1    s     0.271101    0.258951    0.298952    0.000000
   102  O1    s     0.234352    0.789359    0.309214    0.000000
   103  O1    s     0.772874    0.249452    0.738646    0.000000
   104  O1    s     0.735869    0.779872    0.738462    0.000000
   105  O1    s     0.149624    0.270912    0.139343    0.000000
   106  O1    s     0.356896    0.786015    0.149530    0.000000
   107  O3    s     0.876660    0.385604    0.908472    0.000000
   108  O1    s     0.625108    0.660163    0.895333    0.000000
   109  O1    s     0.857399    0.778149    0.896194    0.000000
   110  O1    s     0.650116    0.261087    0.899098    0.000000
   111  O3    s     0.128019    0.675109    0.139907    0.000000
   112  O1    s     0.379482    0.392610    0.139557    0.000000
   113  O1    s     0.658112    0.478034    0.105798    0.000000
   114  O3    s     0.841930    0.548869    0.102142    0.000000
   115  O1    s     0.346878    0.582722    0.932851    0.000000
   116  O3    s     0.164102    0.513937    0.945498    0.000000
   117  O3    s     0.773791    0.269411    0.050332    0.000000
   118  O1    s     0.735550    0.780765    0.056795    0.000000
   119  O1    s     0.270276    0.278176    0.977713    0.000000
   120  O3    s     0.232662    0.792227    0.996904    0.000000
--------------------------------------------------------------------------------

  Final Cartesian lattice vectors (Angstroms) :

       17.668179   -0.184106   -0.004854
       -0.080718    7.842492    0.032125
       -0.003300    0.047042   10.346546


  Final cell parameters and derivatives :

--------------------------------------------------------------------------------
       a           17.669139 Angstrom     dE/de1(xx)    -0.054419 eV/strain
       b            7.842973 Angstrom     dE/de2(yy)     0.035705 eV/strain
       c           10.346654 Angstrom     dE/de3(zz)    -0.066901 eV/strain
       alpha       89.504637 Degrees      dE/de4(yz)    -0.002023 eV/strain
       beta        90.036726 Degrees      dE/de5(xz)     0.013439 eV/strain
       gamma       91.186761 Degrees      dE/de6(xy)    -0.038795 eV/strain
--------------------------------------------------------------------------------

  Primitive cell volume =          1433.463352 Angs**3

  Density of cell =      2.805252 g/cm**3

  Non-primitive cell volume =          1433.463352 Angs**3


  Final internal derivatives :

--------------------------------------------------------------------------------
   No.  Atomic          a             b             c           Radius
        Label          (eV)          (eV)          (eV)        (eV/Angs)
--------------------------------------------------------------------------------
      1 Ge    c       0.000000      0.000000      0.000000      0.000000
      2 Ge    c       0.017232     -0.017811      0.003362      0.000000
      3 Ge    c       0.005633     -0.015090     -0.015851      0.000000
      4 Ge    c      -0.012280      0.019059      0.009777      0.000000
      5 Ge    c      -0.004350      0.014920      0.016010      0.000000
      6 Ge    c       0.020314     -0.016658     -0.009709      0.000000
      7 Ge    c       0.018161     -0.018725     -0.002080      0.000000
      8 Ge    c      -0.022992      0.015122     -0.004318      0.000000
      9 Ge    c       0.001375     -0.013922     -0.006150      0.000000
     10 Ge    c      -0.005438      0.013733     -0.012915      0.000000
     11 Ge    c      -0.015149     -0.010021      0.011929      0.000000
     12 Ge    c       0.021424      0.006249      0.019068      0.000000
     13 Ge    c      -0.002967      0.014419      0.007029      0.000000
     14 Ge    c       0.004117     -0.013081      0.012306      0.000000
     15 Ge    c       0.017008      0.010297     -0.011044      0.000000
     16 Ge    c      -0.020445     -0.005920     -0.019588      0.000000
     17 Ge    c       0.006189     -0.013971     -0.008033      0.000000
     18 Ge    c      -0.004017      0.013014     -0.012677      0.000000
     19 Ge    c      -0.017912     -0.009597      0.011443      0.000000
     20 Ge    c      -0.002528      0.013446      0.007941      0.000000
     21 Ge    c       0.005839     -0.013276      0.012046      0.000000
     22 Ge    c       0.014546      0.009911     -0.012335      0.000000
     23 Si    c       0.020029      0.005542      0.019707      0.000000
     24 Si    c      -0.023333     -0.004968     -0.018183      0.000000
     25 O1    c      -0.007645      0.001575     -0.011166      0.000000
     26 O1    c       0.015569      0.003437     -0.001939      0.000000
     27 O1    c      -0.009502      0.016973      0.005481      0.000000
     28 O1    c       0.000526     -0.014636     -0.011475      0.000000
     29 O1    c       0.013560      0.000180      0.007486      0.000000
     30 O1    c      -0.016395     -0.004188      0.005641      0.000000
     31 O1    c       0.016502     -0.021840      0.002800      0.000000
     32 O1    c       0.003369      0.015087      0.000829      0.000000
     33 O1    c       0.016182     -0.003684      0.013248      0.000000
     34 O1    c      -0.008119     -0.000047     -0.013281      0.000000
     35 O1    c      -0.000313     -0.000276      0.008786      0.000000
     36 O1    c      -0.007004      0.003744     -0.018084      0.000000
     37 O1    c       0.011666      0.001490      0.014851      0.000000
     38 O1    c      -0.012978      0.002697     -0.013219      0.000000
     39 O1    c      -0.020651     -0.001344     -0.004732      0.000000
     40 O1    c       0.009013      0.003919     -0.006180      0.000000
     41 O1    c      -0.016336      0.021336     -0.005292      0.000000
     42 O3    c      -0.002322     -0.010010     -0.001620      0.000000
     43 O1    c       0.011220     -0.001013      0.008850      0.000000
     44 O1    c      -0.006165     -0.002533      0.003817      0.000000
     45 O1    c       0.010526     -0.018453     -0.005711      0.000000
     46 O3    c       0.000408      0.009159      0.010537      0.000000
     47 O1    c      -0.012326      0.000309     -0.014741      0.000000
     48 O1    c       0.011150     -0.003186      0.015926      0.000000
     49 O1    c       0.000525     -0.004043      0.015069      0.000000
     50 O1    c       0.000482     -0.003834      0.016124      0.000000
     51 O1    c       0.000085      0.001666     -0.015578      0.000000
     52 O1    c       0.000592      0.001062     -0.016387      0.000000
     53 O1    c       0.012755      0.011516      0.001022      0.000000
     54 O1    c      -0.011335     -0.012082      0.000435      0.000000
     55 O1    c       0.011022      0.011645     -0.000288      0.000000
     56 O1    c      -0.011839     -0.011655     -0.001735      0.000000
     57 O1    c       0.021268      0.004072     -0.010467      0.000000
     58 O1    c      -0.021455     -0.002580      0.010405      0.000000
     59 O3    c      -0.014557     -0.003328      0.008118      0.000000
     60 O1    c       0.018994      0.002080     -0.008722      0.000000
     61 O1    c      -0.021796     -0.003747      0.009736      0.000000
     62 O1    c       0.021038      0.002375     -0.009233      0.000000
     63 O3    c       0.016464      0.002187     -0.009526      0.000000
     64 O1    c      -0.017192     -0.003193      0.009188      0.000000
     65 O1    c      -0.004077     -0.001178      0.015382      0.000000
     66 O3    c      -0.001602     -0.000305      0.012972      0.000000
     67 O1    c       0.002296      0.004423     -0.015186      0.000000
     68 O3    c       0.001258      0.001864     -0.012072      0.000000
     69 O3    c       0.007194      0.009252      0.002253      0.000000
     70 O1    c      -0.011817     -0.011642      0.000731      0.000000
     71 O1    c       0.010836      0.012216     -0.000676      0.000000
     72 O3    c      -0.009370     -0.009248     -0.001639      0.000000
     73 O1    s       0.003977     -0.001415      0.001117      0.000000
     74 O1    s      -0.006234     -0.001263     -0.002486      0.000000
     75 O1    s      -0.001260     -0.010586     -0.000968      0.000000
     76 O1    s       0.003649      0.009492      0.011013      0.000000
     77 O1    s      -0.007225      0.000889     -0.001614      0.000000
     78 O1    s       0.006173      0.001709      0.003616      0.000000
     79 O1    s      -0.003085      0.013667     -0.005845      0.000000
     80 O1    s      -0.007280     -0.009278     -0.002414      0.000000
     81 O1    s      -0.006708      0.002785     -0.008454      0.000000
     82 O1    s       0.009927      0.000266      0.005222      0.000000
     83 O1    s      -0.003870     -0.000620     -0.003421      0.000000
     84 O1    s       0.001572     -0.002947      0.010650      0.000000
     85 O1    s      -0.011365     -0.001292     -0.005314      0.000000
     86 O1    s       0.006214     -0.002282      0.008133      0.000000
     87 O1    s       0.011592     -0.000198     -0.000084      0.000000
     88 O1    s      -0.002128     -0.002252     -0.002912      0.000000
     89 O1    s       0.003140     -0.013784      0.007736      0.000000
     90 O3    s       0.006196      0.005668      0.003548      0.000000
     91 O1    s      -0.006150      0.001030     -0.000031      0.000000
     92 O1    s       0.000337      0.001212      0.001657      0.000000
     93 O1    s       0.000807      0.011755      0.001092      0.000000
     94 O3    s      -0.003792     -0.005952     -0.010483      0.000000
     95 O1    s       0.010025      0.000259      0.005931      0.000000
     96 O1    s      -0.004768      0.002863     -0.008946      0.000000
     97 O1    s      -0.001573      0.002440     -0.011719      0.000000
     98 O1    s       0.002736      0.001268     -0.014253      0.000000
     99 O1    s       0.001629     -0.001720      0.012466      0.000000
    100 O1    s      -0.002954     -0.000205      0.014143      0.000000
    101 O1    s      -0.003152     -0.008354     -0.003402      0.000000
    102 O1    s       0.002635      0.009802     -0.003579      0.000000
    103 O1    s      -0.003235     -0.009028      0.003701      0.000000
    104 O1    s       0.001804      0.008794      0.004062      0.000000
    105 O1    s      -0.005826     -0.003014      0.005367      0.000000
    106 O1    s       0.004931      0.001939     -0.005667      0.000000
    107 O3    s      -0.001940      0.000304     -0.002104      0.000000
    108 O1    s      -0.002275      0.000472      0.004004      0.000000
    109 O1    s       0.005702      0.002905     -0.004755      0.000000
    110 O1    s      -0.004456     -0.001675      0.004592      0.000000
    111 O3    s       0.000296      0.000380      0.003206      0.000000
    112 O1    s       0.001417      0.000406     -0.004295      0.000000
    113 O1    s       0.002762      0.001220     -0.012259      0.000000
    114 O3    s       0.004046     -0.000498     -0.011916      0.000000
    115 O1    s      -0.002107     -0.002590      0.012291      0.000000
    116 O3    s      -0.004042     -0.000017      0.010894      0.000000
    117 O3    s       0.002305     -0.005834     -0.004299      0.000000
    118 O1    s       0.003644      0.009335     -0.003812      0.000000
    119 O1    s      -0.002473     -0.010161      0.003623      0.000000
    120 O3    s      -0.000381      0.005772      0.003718      0.000000
--------------------------------------------------------------------------------
  Maximum abs         0.023333      0.021840      0.019707      0.000000
--------------------------------------------------------------------------------


  Born effective charge tensors : 

-------------------------------------------------------------------------------
  Atom             x           y             z
-------------------------------------------------------------------------------
    1 Ge    x       4.1146     -0.2887      0.0638
            y       0.1237      3.9169     -0.0020
            z      -0.7881      0.1547      4.2874
-------------------------------------------------------------------------------
    2 Ge    x       4.1470     -0.2369      0.4443
            y       0.1486      3.9252     -0.1187
            z       0.2229      0.0021      4.4658
-------------------------------------------------------------------------------
    3 Ge    x       4.1242     -0.2249     -0.4313
            y       0.1920      3.9046      0.1418
            z      -0.1844      0.0031      4.5280
-------------------------------------------------------------------------------
    4 Ge    x       4.1504     -0.2674     -0.0677
            y       0.0866      3.9222      0.0276
            z       0.7833     -0.1626      4.2005
-------------------------------------------------------------------------------
    5 Ge    x       4.2714     -0.2340     -0.4082
            y       0.1641      3.9492      0.0832
            z      -0.3306     -0.0174      3.9705
-------------------------------------------------------------------------------
    6 Ge    x       4.2846     -0.1450     -0.0569
            y       0.1156      3.9222     -0.0217
            z       0.6616     -0.1391      3.6440
-------------------------------------------------------------------------------
    7 Ge    x       4.3469     -0.2350      0.0405
            y       0.0967      3.9369     -0.0068
            z      -0.6355      0.2025      3.6650
-------------------------------------------------------------------------------
    8 Ge    x       4.2627     -0.1202      0.3824
            y       0.1469      3.9499     -0.0856
            z       0.3141      0.0670      3.9229
-------------------------------------------------------------------------------
    9 Ge    x       4.0009      0.2549     -0.2716
            y       0.2512      4.1760     -0.0887
            z      -0.0057     -0.1554      3.5703
-------------------------------------------------------------------------------
   10 Ge    x       3.9841      0.2297      0.2903
            y       0.2455      4.1834      0.0941
            z       0.0316      0.1890      3.6096
-------------------------------------------------------------------------------
   11 Ge    x       3.9194     -0.0805     -0.2303
            y      -0.4726      4.1856      0.0612
            z      -0.1316      0.2310      3.4969
-------------------------------------------------------------------------------
   12 Ge    x       3.9120     -0.0893      0.2152
            y      -0.4575      4.2165     -0.1053
            z       0.0749     -0.1923      3.5583
-------------------------------------------------------------------------------
   13 Ge    x       3.9638      0.2472     -0.2724
            y       0.2421      4.2129     -0.0923
            z      -0.0055     -0.1920      3.6023
-------------------------------------------------------------------------------
   14 Ge    x       4.0212      0.2412      0.2924
            y       0.2653      4.1363      0.0785
            z       0.0348      0.1491      3.5756
-------------------------------------------------------------------------------
   15 Ge    x       3.8843     -0.0801     -0.2541
            y      -0.4530      4.2072      0.0884
            z      -0.1071      0.1911      3.4956
-------------------------------------------------------------------------------
   16 Ge    x       3.9454     -0.0692      0.1968
            y      -0.4634      4.1849     -0.0923
            z       0.1078     -0.2303      3.6011
-------------------------------------------------------------------------------
   17 Ge    x       3.9087      0.2802     -0.3579
            y       0.2611      4.1801     -0.0706
            z      -0.0496     -0.1616      3.5183
-------------------------------------------------------------------------------
   18 Ge    x       4.0582      0.2757      0.2694
            y       0.3336      4.1443      0.1016
            z       0.0048      0.1814      3.3929
-------------------------------------------------------------------------------
   19 Ge    x       4.0264     -0.0986     -0.2591
            y      -0.4449      4.2159      0.0944
            z      -0.1066      0.1825      3.4157
-------------------------------------------------------------------------------
   20 Ge    x       3.9623      0.3012     -0.3396
            y       0.3132      4.1425     -0.0264
            z      -0.0518     -0.1232      3.4550
-------------------------------------------------------------------------------
   21 Ge    x       4.0241      0.2439      0.2877
            y       0.3087      4.1623      0.1579
            z       0.0216      0.2123      3.4872
-------------------------------------------------------------------------------
   22 Ge    x       4.0393     -0.0823     -0.2577
            y      -0.4454      4.1898      0.0939
            z      -0.1527      0.2120      3.4855
-------------------------------------------------------------------------------
   23 Si    x       3.7222     -0.0748      0.2780
            y      -0.4233      3.9088     -0.0820
            z       0.1088     -0.2197      3.2342
-------------------------------------------------------------------------------
   24 Si    x       3.6857     -0.0799      0.2864
            y      -0.4071      3.9081     -0.0771
            z       0.0740     -0.1989      3.1541
-------------------------------------------------------------------------------
   25 O1    x      -2.1988     -0.8738      0.2992
            y      -0.9510     -2.2565      0.3587
            z       0.3759      0.3605     -1.6196
-------------------------------------------------------------------------------
   26 O1    x      -2.2015     -0.9019     -0.5238
            y      -0.9361     -2.2808     -0.4962
            z      -0.4888     -0.5380     -1.6772
-------------------------------------------------------------------------------
   27 O1    x      -1.9860      0.8520      0.5238
            y       0.7907     -2.5052     -0.5644
            z       0.4734     -0.5668     -1.6619
-------------------------------------------------------------------------------
   28 O1    x      -1.9489      0.8564     -0.3409
            y       0.8215     -2.5366      0.2861
            z      -0.4272      0.3336     -1.5771
-------------------------------------------------------------------------------
   29 O1    x      -2.1869     -0.8975      0.5051
            y      -0.9468     -2.2960      0.4895
            z       0.4723      0.5269     -1.6714
-------------------------------------------------------------------------------
   30 O1    x      -2.2064     -0.8806     -0.3154
            y      -0.9475     -2.2458     -0.3594
            z      -0.3985     -0.3704     -1.6147
-------------------------------------------------------------------------------
   31 O1    x      -1.9681      0.8688      0.3608
            y       0.8151     -2.5168     -0.3046
            z       0.4488     -0.3624     -1.5918
-------------------------------------------------------------------------------
   32 O1    x      -1.9625      0.8374     -0.5240
            y       0.7914     -2.5321      0.5629
            z      -0.4757      0.5498     -1.6509
-------------------------------------------------------------------------------
   33 O1    x      -2.0162      0.2199      0.9346
            y       0.0734     -1.2742     -0.1174
            z       1.1362     -0.2204     -3.1723
-------------------------------------------------------------------------------
   34 O1    x      -2.0658      0.2503     -0.9328
            y       0.1027     -1.2824      0.1388
            z      -1.1414      0.2575     -3.0898
-------------------------------------------------------------------------------
   35 O1    x      -2.1598      0.2076     -0.8949
            y       0.0857     -1.3481      0.1702
            z      -0.8647      0.2157     -2.6370
-------------------------------------------------------------------------------
   36 O1    x      -2.1038      0.2457      0.8055
            y       0.1313     -1.3146     -0.1512
            z       0.8169     -0.1782     -2.7342
-------------------------------------------------------------------------------
   37 O1    x      -2.1221      0.2122     -0.8192
            y       0.1200     -1.3233      0.0998
            z      -0.8369      0.0942     -2.7371
-------------------------------------------------------------------------------
   38 O1    x      -2.1224      0.2752      0.8432
            y       0.1387     -1.3650     -0.2131
            z       0.8151     -0.2821     -2.6058
-------------------------------------------------------------------------------
   39 O1    x      -2.2360     -0.8913      0.5373
            y      -0.9081     -2.3003      0.5327
            z       0.4547      0.5240     -1.5904
-------------------------------------------------------------------------------
   40 O1    x      -2.1644     -0.9163     -0.2843
            y      -0.9829     -2.4109     -0.3172
            z      -0.3578     -0.3442     -1.4793
-------------------------------------------------------------------------------
   41 O1    x      -2.0516      0.8593      0.3305
            y       0.8215     -2.5367     -0.2313
            z       0.3891     -0.2818     -1.4457
-------------------------------------------------------------------------------
   42 O3    x      -1.9649      0.8572     -0.5910
            y       0.7806     -2.3196      0.5835
            z      -0.5057      0.5733     -1.5135
-------------------------------------------------------------------------------
   43 O1    x      -2.2796     -0.9136      0.3108
            y      -0.9686     -2.3087      0.3539
            z       0.3667      0.3622     -1.4677
-------------------------------------------------------------------------------
   44 O1    x      -2.1357     -0.9168     -0.5167
            y      -0.9457     -2.4170     -0.5199
            z      -0.4546     -0.5199     -1.5967
-------------------------------------------------------------------------------
   45 O1    x      -2.0162      0.8243      0.5436
            y       0.7583     -2.5568     -0.5764
            z       0.4847     -0.5483     -1.5532
-------------------------------------------------------------------------------
   46 O3    x      -1.9767      0.8737     -0.3801
            y       0.8081     -2.3116      0.3082
            z      -0.4166      0.3703     -1.3867
-------------------------------------------------------------------------------
   47 O1    x      -2.1560      0.2635     -0.7251
            y       0.1576     -1.3930      0.1909
            z      -0.5080      0.1654     -2.2870
-------------------------------------------------------------------------------
   48 O1    x      -2.2498      0.2393      0.7655
            y       0.1658     -1.3793     -0.1646
            z       0.5133     -0.1243     -2.2239
-------------------------------------------------------------------------------
   49 O1    x      -1.3354      0.1779      0.0765
            y       0.3035     -3.1712     -0.0077
            z       0.0259      0.0228     -1.3986
-------------------------------------------------------------------------------
   50 O1    x      -1.3566      0.2090     -0.0623
            y       0.3065     -3.1404     -0.0692
            z      -0.0217     -0.0534     -1.4036
-------------------------------------------------------------------------------
   51 O1    x      -1.3397      0.1878      0.0659
            y       0.3010     -3.1531      0.0642
            z       0.0138      0.0749     -1.4202
-------------------------------------------------------------------------------
   52 O1    x      -1.3513      0.1979     -0.0748
            y       0.3077     -3.1425      0.0046
            z      -0.0308     -0.0083     -1.3888
-------------------------------------------------------------------------------
   53 O1    x      -3.0177     -0.2826     -0.0008
            y      -0.1927     -1.5944      0.0194
            z      -0.0327      0.0490     -1.2132
-------------------------------------------------------------------------------
   54 O1    x      -3.0088     -0.2746     -0.0271
            y      -0.1906     -1.5794     -0.0342
            z      -0.0324     -0.0698     -1.2338
-------------------------------------------------------------------------------
   55 O1    x      -2.9965     -0.2800     -0.0364
            y      -0.1927     -1.5863     -0.0377
            z      -0.0260     -0.0738     -1.2272
-------------------------------------------------------------------------------
   56 O1    x      -3.0230     -0.2806     -0.0139
            y      -0.1930     -1.5932      0.0143
            z      -0.0337      0.0453     -1.2173
-------------------------------------------------------------------------------
   57 O1    x      -1.4672     -0.1163     -0.0156
            y      -0.1298     -1.4551      0.0875
            z      -0.0252      0.0728     -2.6991
-------------------------------------------------------------------------------
   58 O1    x      -1.5183     -0.1093     -0.0097
            y      -0.1237     -1.4165      0.0291
            z       0.0241      0.0387     -2.7099
-------------------------------------------------------------------------------
   59 O3    x      -1.3543      0.0091      0.0949
            y       0.0775     -1.3753      0.0052
            z       0.0646     -0.0062     -2.5442
-------------------------------------------------------------------------------
   60 O1    x      -1.4478      0.0145      0.0408
            y       0.0829     -1.4330     -0.0057
            z       0.0315     -0.0153     -2.7406
-------------------------------------------------------------------------------
   61 O1    x      -1.4673     -0.1233     -0.0324
            y      -0.1305     -1.4552      0.0072
            z      -0.0288     -0.0041     -2.6912
-------------------------------------------------------------------------------
   62 O1    x      -1.5242     -0.1134     -0.0208
            y      -0.1284     -1.4156     -0.0499
            z       0.0197     -0.0357     -2.7094
-------------------------------------------------------------------------------
   63 O3    x      -1.3616      0.0080      0.0813
            y       0.0778     -1.3553      0.0545
            z       0.0747      0.0581     -2.5749
-------------------------------------------------------------------------------
   64 O1    x      -1.4397      0.0152      0.0319
            y       0.0843     -1.4430      0.0553
            z       0.0327      0.0551     -2.7425
-------------------------------------------------------------------------------
   65 O1    x      -1.4131      0.2357      0.1066
            y       0.3064     -3.1247      0.0202
            z       0.0574      0.0143     -1.3457
-------------------------------------------------------------------------------
   66 O3    x      -1.2941      0.1726     -0.0610
            y       0.2480     -2.9765     -0.1071
            z      -0.0016     -0.1299     -1.2621
-------------------------------------------------------------------------------
   67 O1    x      -1.4019      0.2149      0.1159
            y       0.2923     -3.0967     -0.0591
            z       0.0600     -0.0252     -1.3529
-------------------------------------------------------------------------------
   68 O3    x      -1.3049      0.1823     -0.0514
            y       0.2543     -3.0248     -0.1746
            z      -0.0016     -0.1610     -1.2604
-------------------------------------------------------------------------------
   69 O3    x      -2.8495     -0.3749      0.0011
            y      -0.2910     -1.5207      0.0003
            z      -0.0018      0.0360     -1.1257
-------------------------------------------------------------------------------
   70 O1    x      -3.0741     -0.2602      0.0103
            y      -0.1412     -1.5965     -0.0195
            z       0.0527     -0.0511     -1.1809
-------------------------------------------------------------------------------
   71 O1    x      -3.0763     -0.2689      0.0231
            y      -0.1501     -1.6006     -0.0188
            z       0.0389     -0.0524     -1.1833
-------------------------------------------------------------------------------
   72 O3    x      -2.8565     -0.3591      0.0057
            y      -0.2820     -1.5210      0.0090
            z      -0.0219      0.0373     -1.1264
-------------------------------------------------------------------------------




  Elastic Constant Matrix: (Units=GPa)

-------------------------------------------------------------------------------
  Indices      1         2         3         4         5         6    
-------------------------------------------------------------------------------
       1     27.3931   12.5948    8.4476   -0.0117    0.3987   -6.3969
       2     12.5948   33.5073    6.3522    0.0093   -0.1486   -5.9955
       3      8.4476    6.3522   14.0989   -0.0658   -0.0259   -0.9569
       4     -0.0117    0.0093   -0.0658    7.8843   -1.2727   -0.3071
       5      0.3987   -0.1486   -0.0259   -1.2727   15.4399    0.8087
       6     -6.3969   -5.9955   -0.9569   -0.3071    0.8087   18.9438
-------------------------------------------------------------------------------


  Elastic Compliance Matrix: (Units=1/GPa)

-------------------------------------------------------------------------------
  Indices      1         2         3         4         5         6    
-------------------------------------------------------------------------------
       1    0.053236 -0.012973 -0.025195  0.000022 -0.002205  0.012693
       2   -0.012973  0.037639 -0.008703  0.000193  0.000328  0.007081
       3   -0.025195 -0.008703  0.089490  0.000638  0.001124 -0.006780
       4    0.000022  0.000193  0.000638  0.128603  0.010512  0.001737
       5   -0.002205  0.000328  0.001124  0.010512  0.065865 -0.003225
       6    0.012693  0.007081 -0.006780  0.001737 -0.003225  0.059138
-------------------------------------------------------------------------------

  Mechanical properties :

-------------------------------------------------------------------------------
  Convention :                    Reuss         Voigt         Hill
-------------------------------------------------------------------------------
  Bulk  Modulus (GPa)     =      11.54430      14.42095      12.98263
  Shear Modulus (GPa)     =       8.98332      11.62725      10.30528
-------------------------------------------------------------------------------
  Velocity S-wave (km/s)  =       1.78950       2.03588       1.91666
  Velocity P-wave (km/s)  =       2.89569       3.26606       3.08643
-------------------------------------------------------------------------------
  Compressibility (1/GPa) =    0.08662281
-------------------------------------------------------------------------------
  Stress axis :                     x             y             z
-------------------------------------------------------------------------------
  Youngs Moduli (GPa)     =      18.78428      26.56831      11.17447
-------------------------------------------------------------------------------
  Poissons Ratio (x)      =                     0.34466       0.28154
  Poissons Ratio (y)      =       0.24368                     0.09725
  Poissons Ratio (z)      =       0.47327       0.23123
-------------------------------------------------------------------------------


  Piezoelectric Strain Matrix: (Units=C/m**2)

-------------------------------------------------------------------------------
  Indices      1         2         3         4         5         6    
-------------------------------------------------------------------------------
       x     0.09456   0.16694   0.25311  -0.05092  -0.05048   0.03476
       y     0.39194   0.70837   0.27363  -0.02673  -0.04588  -0.12361
       z     0.07270   0.08923   0.11290   0.23472  -0.23657  -0.11025
-------------------------------------------------------------------------------


  Piezoelectric Stress Matrix: (Units=10**-11 C/N)

-------------------------------------------------------------------------------
  Indices      1         2         3         4         5         6    
-------------------------------------------------------------------------------
       x    -0.29574   0.30738   1.84907  -0.68230  -0.38414   0.27965
       y     0.33135   1.83007   0.92161  -0.38146  -0.32285   0.09273
       z    -0.10043   0.06198   0.81263   2.75981  -1.27626  -0.45599
-------------------------------------------------------------------------------


  Static dielectric constant tensor : 

-------------------------------------------------------------------------------
              x         y         z
-------------------------------------------------------------------------------
       x     5.35674   0.03248   0.00739
       y     0.03248   6.50947   0.06517
       z     0.00739   0.06517   4.24134
--------------------------------------------------------------------------------

  High frequency dielectric constant tensor : 

-------------------------------------------------------------------------------
              x         y         z
-------------------------------------------------------------------------------
       x     1.53114  -0.00324   0.00051
       y    -0.00324   1.53781  -0.00003
       z     0.00051  -0.00003   1.49195
-------------------------------------------------------------------------------

  Static refractive indices : 

-------------------------------------------------------------------------------
    1 =    2.05899      2 =    2.31427      3 =    2.55191
-------------------------------------------------------------------------------

  High frequency refractive indices : 

-------------------------------------------------------------------------------
    1 =    1.22145      2 =    1.23686      3 =    1.24062
-------------------------------------------------------------------------------


  Time to end of optimisation =      10.7969 seconds


  Peak dynamic memory used =       5.01 MB 


  Timing analysis for GULP :

--------------------------------------------------------------------------------
  Task / Subroutine                                          Time (Seconds)
--------------------------------------------------------------------------------
  Calculation of reciprocal space energy and derivatives          0.6915
  Calculation of real space energy and derivatives                7.3659
  Calculation of three-body energy and derivatives                0.0609
  Calculation and manipulation of Hessian matrix                  3.0800
  Calculation of matrix inversion                                 0.0381
  Global summation overhead                                       0.0001
--------------------------------------------------------------------------------
  Total CPU time                                                 10.7969
--------------------------------------------------------------------------------


  Dump file written as c00004.vasp.grs
  CIF file written as c00004.vasp.cif


  Job Finished at 18:34.25 30th October    2025                               

