********************************************************************************
*                       GENERAL UTILITY LATTICE PROGRAM                        *
*                                 Julian Gale                                  *
*                       Curtin Institute for Computation                       *
*                    School of Molecular and Life Sciences                     *
*                    Curtin University, Western Australia                      *
********************************************************************************
* Version = 6.1.2 * Last modified =   3rd November 2022                        *
********************************************************************************
*  optimise     - perform optimisation run                                     *
*  conp         - constant pressure calculation                                *
*  property     - calculate properties for final geometry                      *
********************************************************************************

  Job Started  at 18:33.53 30th October    2025                               

  Number of CPUs =     1


  Total number of configurations input =      1

********************************************************************************
*  Input for Configuration =   1 : c00001.vasp                                 *
********************************************************************************

  Formula = Ge22Si2O48                                                  

  Number of irreducible atoms/shells =     120


  Total number atoms/shells =     120

  Dimensionality = 3               :  Bulk   



  Cartesian lattice vectors (Angstroms) :

       17.182800    0.000000    0.000000
        0.000000    7.513760    0.000000
        0.000000    0.000000   10.447700

  Cell parameters (Angstroms/Degrees):

  a =      17.1828    alpha =  90.0000
  b =       7.5138    beta  =  90.0000
  c =      10.4477    gamma =  90.0000

  Initial cell volume =        1348.875752 Angs**3

  Temperature of configuration =   0.00     K 

  Pressure of configuration =         0.000 GPa 

  Fractional coordinates of asymmetric unit :

--------------------------------------------------------------------------------
   No.  Atomic       x           y          z         Charge      Occupancy
        Label      (Frac)      (Frac)     (Frac)        (e)         (Frac)  
--------------------------------------------------------------------------------
      1 Ge    c    0.052090    0.000000    0.372270     4.00000    1.000000    
      2 Ge    c    0.447910 *  0.000000 *  0.372270 *   4.00000    1.000000    
      3 Ge    c    0.947910 *  0.000000 *  0.627730 *   4.00000    1.000000    
      4 Ge    c    0.552090 *  0.000000 *  0.627730 *   4.00000    1.000000    
      5 Ge    c    0.556730 *  0.000000 *  0.122130 *   4.00000    1.000000    
      6 Ge    c    0.943270 *  0.000000 *  0.122130 *   4.00000    1.000000    
      7 Ge    c    0.443270 *  0.000000 *  0.877870 *   4.00000    1.000000    
      8 Ge    c    0.056730 *  0.000000 *  0.877870 *   4.00000    1.000000    
      9 Ge    c    0.160190 *  0.293910 *  0.273440 *   4.00000    1.000000    
     10 Ge    c    0.339810 *  0.706090 *  0.273440 *   4.00000    1.000000    
     11 Ge    c    0.839810 *  0.293910 *  0.726560 *   4.00000    1.000000    
     12 Ge    c    0.660190 *  0.706090 *  0.726560 *   4.00000    1.000000    
     13 Ge    c    0.839810 *  0.706090 *  0.726560 *   4.00000    1.000000    
     14 Ge    c    0.660190 *  0.293910 *  0.726560 *   4.00000    1.000000    
     15 Ge    c    0.160190 *  0.706090 *  0.273440 *   4.00000    1.000000    
     16 Ge    c    0.339810 *  0.293910 *  0.273440 *   4.00000    1.000000    
     17 Ge    c    0.660660 *  0.294090 *  0.017440 *   4.00000    1.000000    
     18 Ge    c    0.839340 *  0.705910 *  0.017440 *   4.00000    1.000000    
     19 Ge    c    0.339340 *  0.294090 *  0.982560 *   4.00000    1.000000    
     20 Ge    c    0.160660 *  0.705910 *  0.982560 *   4.00000    1.000000    
     21 Ge    c    0.339340 *  0.705910 *  0.982560 *   4.00000    1.000000    
     22 Ge    c    0.160660 *  0.294090 *  0.982560 *   4.00000    1.000000    
     23 Si    c    0.660660 *  0.705910 *  0.017440 *   4.00000    1.000000    
     24 Si    c    0.839340 *  0.294090 *  0.017440 *   4.00000    1.000000    
     25 O1    c    0.106570 *  0.174340 *  0.366200 *   1.73396    1.000000    
     26 O1    c    0.393430 *  0.825660 *  0.366200 *   1.73396    1.000000    
     27 O1    c    0.893430 *  0.174340 *  0.633800 *   1.73396    1.000000    
     28 O1    c    0.606570 *  0.825660 *  0.633800 *   1.73396    1.000000    
     29 O1    c    0.893430 *  0.825660 *  0.633800 *   1.73396    1.000000    
     30 O1    c    0.606570 *  0.174340 *  0.633800 *   1.73396    1.000000    
     31 O1    c    0.106570 *  0.825660 *  0.366200 *   1.73396    1.000000    
     32 O1    c    0.393430 *  0.174340 *  0.366200 *   1.73396    1.000000    
     33 O1    c    0.000000 *  0.000000 *  0.500000 *   1.73396    1.000000    
     34 O1    c    0.500000 *  0.000000 *  0.500000 *   1.73396    1.000000    
     35 O1    c    0.994520 *  0.000000 *  0.250840 *   1.73396    1.000000    
     36 O1    c    0.505480 *  0.000000 *  0.250840 *   1.73396    1.000000    
     37 O1    c    0.005480 *  0.000000 *  0.749160 *   1.73396    1.000000    
     38 O1    c    0.494520 *  0.000000 *  0.749160 *   1.73396    1.000000    
     39 O1    c    0.610230 *  0.175520 *  0.115390 *   1.73396    1.000000    
     40 O1    c    0.889770 *  0.824480 *  0.115390 *   1.73396    1.000000    
     41 O1    c    0.389770 *  0.175520 *  0.884610 *   1.73396    1.000000    
     42 O1    c    0.110230 *  0.824480 *  0.884610 *   1.73396    1.000000    
     43 O1    c    0.389770 *  0.824480 *  0.884610 *   1.73396    1.000000    
     44 O1    c    0.110230 *  0.175520 *  0.884610 *   1.73396    1.000000    
     45 O3    c    0.610230 *  0.824480 *  0.115390 *   1.33043    1.000000    
     46 O3    c    0.889770 *  0.175520 *  0.115390 *   1.33043    1.000000    
     47 O1    c    0.500000 *  0.000000 *  0.000000 *   1.73396    1.000000    
     48 O1    c    0.000000 *  0.000000 *  0.000000 *   1.73396    1.000000    
     49 O1    c    0.151750 *  0.500000 *  0.313330 *   1.73396    1.000000    
     50 O1    c    0.348250 *  0.500000 *  0.313330 *   1.73396    1.000000    
     51 O1    c    0.848250 *  0.500000 *  0.686670 *   1.73396    1.000000    
     52 O1    c    0.651750 *  0.500000 *  0.686670 *   1.73396    1.000000    
     53 O1    c    0.250000 *  0.234950 *  0.285720 *   1.73396    1.000000    
     54 O1    c    0.250000 *  0.765050 *  0.285720 *   1.73396    1.000000    
     55 O1    c    0.750000 *  0.234950 *  0.714280 *   1.73396    1.000000    
     56 O1    c    0.750000 *  0.765050 *  0.714280 *   1.73396    1.000000    
     57 O1    c    0.131410 *  0.268650 *  0.127790 *   1.73396    1.000000    
     58 O1    c    0.368590 *  0.731350 *  0.127790 *   1.73396    1.000000    
     59 O3    c    0.868590 *  0.268650 *  0.872210 *   1.33043    1.000000    
     60 O3    c    0.631410 *  0.731350 *  0.872210 *   1.33043    1.000000    
     61 O1    c    0.868590 *  0.731350 *  0.872210 *   1.73396    1.000000    
     62 O1    c    0.631410 *  0.268650 *  0.872210 *   1.73396    1.000000    
     63 O1    c    0.131410 *  0.731350 *  0.127790 *   1.73396    1.000000    
     64 O1    c    0.368590 *  0.268650 *  0.127790 *   1.73396    1.000000    
     65 O3    c    0.653920 *  0.500000 *  0.058200 *   1.33043    1.000000    
     66 O3    c    0.846080 *  0.500000 *  0.058200 *   1.33043    1.000000    
     67 O1    c    0.346080 *  0.500000 *  0.941800 *   1.73396    1.000000    
     68 O1    c    0.153920 *  0.500000 *  0.941800 *   1.73396    1.000000    
     69 O3    c    0.750000 *  0.231060 *  0.027050 *   1.33043    1.000000    
     70 O3    c    0.750000 *  0.768940 *  0.027050 *   1.33043    1.000000    
     71 O1    c    0.250000 *  0.231060 *  0.972950 *   1.73396    1.000000    
     72 O1    c    0.250000 *  0.768940 *  0.972950 *   1.73396    1.000000    
     73 O1    s    0.106570 *  0.174340 *  0.366200 *  -3.73396    1.000000    
     74 O1    s    0.393430 *  0.825660 *  0.366200 *  -3.73396    1.000000    
     75 O1    s    0.893430 *  0.174340 *  0.633800 *  -3.73396    1.000000    
     76 O1    s    0.606570 *  0.825660 *  0.633800 *  -3.73396    1.000000    
     77 O1    s    0.893430 *  0.825660 *  0.633800 *  -3.73396    1.000000    
     78 O1    s    0.606570 *  0.174340 *  0.633800 *  -3.73396    1.000000    
     79 O1    s    0.106570 *  0.825660 *  0.366200 *  -3.73396    1.000000    
     80 O1    s    0.393430 *  0.174340 *  0.366200 *  -3.73396    1.000000    
     81 O1    s    0.000000 *  0.000000 *  0.500000 *  -3.73396    1.000000    
     82 O1    s    0.500000 *  0.000000 *  0.500000 *  -3.73396    1.000000    
     83 O1    s    0.994520 *  0.000000 *  0.250840 *  -3.73396    1.000000    
     84 O1    s    0.505480 *  0.000000 *  0.250840 *  -3.73396    1.000000    
     85 O1    s    0.005480 *  0.000000 *  0.749160 *  -3.73396    1.000000    
     86 O1    s    0.494520 *  0.000000 *  0.749160 *  -3.73396    1.000000    
     87 O1    s    0.610230 *  0.175520 *  0.115390 *  -3.73396    1.000000    
     88 O1    s    0.889770 *  0.824480 *  0.115390 *  -3.73396    1.000000    
     89 O1    s    0.389770 *  0.175520 *  0.884610 *  -3.73396    1.000000    
     90 O1    s    0.110230 *  0.824480 *  0.884610 *  -3.73396    1.000000    
     91 O1    s    0.389770 *  0.824480 *  0.884610 *  -3.73396    1.000000    
     92 O1    s    0.110230 *  0.175520 *  0.884610 *  -3.73396    1.000000    
     93 O3    s    0.610230 *  0.824480 *  0.115390 *  -3.33043    1.000000    
     94 O3    s    0.889770 *  0.175520 *  0.115390 *  -3.33043    1.000000    
     95 O1    s    0.500000 *  0.000000 *  0.000000 *  -3.73396    1.000000    
     96 O1    s    0.000000 *  0.000000 *  0.000000 *  -3.73396    1.000000    
     97 O1    s    0.151750 *  0.500000 *  0.313330 *  -3.73396    1.000000    
     98 O1    s    0.348250 *  0.500000 *  0.313330 *  -3.73396    1.000000    
     99 O1    s    0.848250 *  0.500000 *  0.686670 *  -3.73396    1.000000    
    100 O1    s    0.651750 *  0.500000 *  0.686670 *  -3.73396    1.000000    
    101 O1    s    0.250000 *  0.234950 *  0.285720 *  -3.73396    1.000000    
    102 O1    s    0.250000 *  0.765050 *  0.285720 *  -3.73396    1.000000    
    103 O1    s    0.750000 *  0.234950 *  0.714280 *  -3.73396    1.000000    
    104 O1    s    0.750000 *  0.765050 *  0.714280 *  -3.73396    1.000000    
    105 O1    s    0.131410 *  0.268650 *  0.127790 *  -3.73396    1.000000    
    106 O1    s    0.368590 *  0.731350 *  0.127790 *  -3.73396    1.000000    
    107 O3    s    0.868590 *  0.268650 *  0.872210 *  -3.33043    1.000000    
    108 O3    s    0.631410 *  0.731350 *  0.872210 *  -3.33043    1.000000    
    109 O1    s    0.868590 *  0.731350 *  0.872210 *  -3.73396    1.000000    
    110 O1    s    0.631410 *  0.268650 *  0.872210 *  -3.73396    1.000000    
    111 O1    s    0.131410 *  0.731350 *  0.127790 *  -3.73396    1.000000    
    112 O1    s    0.368590 *  0.268650 *  0.127790 *  -3.73396    1.000000    
    113 O3    s    0.653920 *  0.500000 *  0.058200 *  -3.33043    1.000000    
    114 O3    s    0.846080 *  0.500000 *  0.058200 *  -3.33043    1.000000    
    115 O1    s    0.346080 *  0.500000 *  0.941800 *  -3.73396    1.000000    
    116 O1    s    0.153920 *  0.500000 *  0.941800 *  -3.73396    1.000000    
    117 O3    s    0.750000 *  0.231060 *  0.027050 *  -3.33043    1.000000    
    118 O3    s    0.750000 *  0.768940 *  0.027050 *  -3.33043    1.000000    
    119 O1    s    0.250000 *  0.231060 *  0.972950 *  -3.73396    1.000000    
    120 O1    s    0.250000 *  0.768940 *  0.972950 *  -3.73396    1.000000    
--------------------------------------------------------------------------------



********************************************************************************
*  General input information                                                   *
********************************************************************************

  Species output for all configurations : 

--------------------------------------------------------------------------------
  Species    Type    Atomic    Atomic    Charge       Radii (Angs)     Library
                     Number     Mass       (e)     Cova   Ionic  VDW   Symbol
--------------------------------------------------------------------------------
    Ge       Core       32      72.61   4.000000   1.170  0.000  1.750 Ge       
    Si       Core       14      28.09   4.000000   1.200  0.000  2.100 Si       
    O1       Core        8      16.00   1.733957   0.730  0.000  1.360 O1       
    O2       Core        8      16.00   0.870733   0.730  0.000  0.000 O2       
    O3       Core        8      16.00   1.330431   0.730  0.000  1.360 O3       
    O1       Shell       8       0.00  -3.733957   0.730  0.000  0.000 O1       
    O2       Shell       8       0.00  -2.870733   0.730  0.000  0.000 O2       
    O3       Shell       8       0.00  -3.330431   0.730  0.000  0.000 O3       
--------------------------------------------------------------------------------


  Lattice summation method               =    Ewald          (3-D)
                                         =    Parry          (2-D)
                                         =    Saunders et al (1-D)
  Accuracy factor for lattice sums       =   12.000


  Analytic derivatives to be used

  Time limit = Infinity

  Maximum range for interatomic potentials =    100000.000000 Angstroms

  General interatomic potentials :

--------------------------------------------------------------------------------
Atom  Types   Potential      Parameter       Value         Units   Cutoffs(Ang)
  1     2                                                            Min /  Max 
--------------------------------------------------------------------------------
Si   c O1   s Buckingham    Buckingham A     1315.2478    eV        0.000 16.000
                            Buckingham rho  0.31775900    Ang       
                            Buckingham C     10.141118    eV*Ang^6  
--------------------------------------------------------------------------------
Si   c O2   s Buckingham    Buckingham A     1315.2478    eV        0.000 16.000
                            Buckingham rho  0.31775900    Ang       
                            Buckingham C     10.141118    eV*Ang^6  
--------------------------------------------------------------------------------
Si   c O3   s Buckingham    Buckingham A     1315.2478    eV        0.000 16.000
                            Buckingham rho  0.31775900    Ang       
                            Buckingham C     10.141118    eV*Ang^6  
--------------------------------------------------------------------------------
Ge   c O1   s Buckingham    Buckingham A     1497.3996    eV        0.000 16.000
                            Buckingham rho  0.32564600    Ang       
                            Buckingham C     16.808599    eV*Ang^6  
--------------------------------------------------------------------------------
Ge   c O2   s Buckingham    Buckingham A     1497.3996    eV        0.000 16.000
                            Buckingham rho  0.32564600    Ang       
                            Buckingham C     16.808599    eV*Ang^6  
--------------------------------------------------------------------------------
Ge   c O3   s Buckingham    Buckingham A     1497.3996    eV        0.000 16.000
                            Buckingham rho  0.32564600    Ang       
                            Buckingham C     16.808599    eV*Ang^6  
--------------------------------------------------------------------------------
O1   s O1   s Buckingham    Buckingham A     22764.000    eV        0.000 16.000
                            Buckingham rho  0.14900000    Ang       
                            Buckingham C     10.937044    eV*Ang^6  
--------------------------------------------------------------------------------
O1   s O2   s Buckingham    Buckingham A     22764.000    eV        0.000 16.000
                            Buckingham rho  0.14900000    Ang       
                            Buckingham C     10.937044    eV*Ang^6  
--------------------------------------------------------------------------------
O1   s O3   s Buckingham    Buckingham A     22764.000    eV        0.000 16.000
                            Buckingham rho  0.14900000    Ang       
                            Buckingham C     10.937044    eV*Ang^6  
--------------------------------------------------------------------------------
O2   s O2   s Buckingham    Buckingham A     22764.000    eV        0.000 16.000
                            Buckingham rho  0.14900000    Ang       
                            Buckingham C     10.937044    eV*Ang^6  
--------------------------------------------------------------------------------
O2   s O3   s Buckingham    Buckingham A     22764.000    eV        0.000 16.000
                            Buckingham rho  0.14900000    Ang       
                            Buckingham C     10.937044    eV*Ang^6  
--------------------------------------------------------------------------------
O3   s O3   s Buckingham    Buckingham A     22764.000    eV        0.000 16.000
                            Buckingham rho  0.14900000    Ang       
                            Buckingham C     10.937044    eV*Ang^6  
--------------------------------------------------------------------------------
O1   c O1   s Spring (c-s)  Spring k 2       180.31577    eV*Ang^-2 0.000  0.800
                            Spring k 4       0.0000000    eV*Ang^-4 
--------------------------------------------------------------------------------
O2   c O2   s Spring (c-s)  Spring k 2       75.969800    eV*Ang^-2 0.000  0.800
                            Spring k 4       0.0000000    eV*Ang^-4 
--------------------------------------------------------------------------------
O3   c O3   s Spring (c-s)  Spring k 2       128.14270    eV*Ang^-2 0.000  0.800
                            Spring k 4       0.0000000    eV*Ang^-4 
--------------------------------------------------------------------------------

  General Three-body potentials :

--------------------------------------------------------------------------------
  Atoms       Potential      Parameter       Value         Units   Cutoffs(Ang)
  1 / 2 / 3                                                          Min /  Max 
--------------------------------------------------------------------------------
Si    core    Harmonic      Three-body cnst  1.2614000    eV*rad^-2 0.000  1.900
O1    shel                  Three-body angl  109.47000    degrees   0.000  1.900
O1    shel                  Three-body k4    0.0000000    eV*rad^-4 0.000  3.500
                            Three-body k3    0.0000000    eV*rad^-3 
--------------------------------------------------------------------------------
Si    core    Harmonic      Three-body cnst  1.2614000    eV*rad^-2 0.000  1.900
O1    shel                  Three-body angl  109.47000    degrees   0.000  1.900
õ(1   shel                  Three-body k4    0.0000000    eV*rad^-4 0.000  3.500
                            Three-body k3    0.0000000    eV*rad^-3 
--------------------------------------------------------------------------------
Si    core    Harmonic      Three-body cnst  1.2614000    eV*rad^-2 0.000  1.900
õ(1   shel                  Three-body angl  109.47000    degrees   0.000  1.900
õ(1   shel                  Three-body k4    0.0000000    eV*rad^-4 0.000  3.500
                            Three-body k3    0.0000000    eV*rad^-3 
--------------------------------------------------------------------------------
Si    core    Harmonic      Three-body cnst  1.2614000    eV*rad^-2 0.000  1.900
O1    shel                  Three-body angl  109.47000    degrees   0.000  1.900
O2    shel                  Three-body k4    0.0000000    eV*rad^-4 0.000  3.500
                            Three-body k3    0.0000000    eV*rad^-3 
--------------------------------------------------------------------------------
Si    core    Harmonic      Three-body cnst  1.2614000    eV*rad^-2 0.000  1.900
O1    shel                  Three-body angl  109.47000    degrees   0.000  1.900
õ(2   shel                  Three-body k4    0.0000000    eV*rad^-4 0.000  3.500
                            Three-body k3    0.0000000    eV*rad^-3 
--------------------------------------------------------------------------------
Si    core    Harmonic      Three-body cnst  1.2614000    eV*rad^-2 0.000  1.900
O2    shel                  Three-body angl  109.47000    degrees   0.000  1.900
õ(1   shel                  Three-body k4    0.0000000    eV*rad^-4 0.000  3.500
                            Three-body k3    0.0000000    eV*rad^-3 
--------------------------------------------------------------------------------
Si    core    Harmonic      Three-body cnst  1.2614000    eV*rad^-2 0.000  1.900
õ(1   shel                  Three-body angl  109.47000    degrees   0.000  1.900
õ(2   shel                  Three-body k4    0.0000000    eV*rad^-4 0.000  3.500
                            Three-body k3    0.0000000    eV*rad^-3 
--------------------------------------------------------------------------------
Si    core    Harmonic      Three-body cnst  1.2614000    eV*rad^-2 0.000  1.900
O2    shel                  Three-body angl  109.47000    degrees   0.000  1.900
O2    shel                  Three-body k4    0.0000000    eV*rad^-4 0.000  3.500
                            Three-body k3    0.0000000    eV*rad^-3 
--------------------------------------------------------------------------------
Si    core    Harmonic      Three-body cnst  1.2614000    eV*rad^-2 0.000  1.900
O2    shel                  Three-body angl  109.47000    degrees   0.000  1.900
õ(2   shel                  Three-body k4    0.0000000    eV*rad^-4 0.000  3.500
                            Three-body k3    0.0000000    eV*rad^-3 
--------------------------------------------------------------------------------
Si    core    Harmonic      Three-body cnst  1.2614000    eV*rad^-2 0.000  1.900
õ(2   shel                  Three-body angl  109.47000    degrees   0.000  1.900
õ(2   shel                  Three-body k4    0.0000000    eV*rad^-4 0.000  3.500
                            Three-body k3    0.0000000    eV*rad^-3 
--------------------------------------------------------------------------------

********************************************************************************
*  Output for configuration   1 : c00001.vasp                                  *
********************************************************************************


  Components of energy : 

--------------------------------------------------------------------------------
  Interatomic potentials     =         912.61361553 eV    
  Three-body potentials      =           0.00000000 eV    
  Monopole - monopole (real) =       -2676.00317478 eV    
  Monopole - monopole (recip)=       -1115.35404472 eV    
  Monopole - monopole (total)=       -3791.35721950 eV    
--------------------------------------------------------------------------------
  Total lattice energy       =       -2878.74360397 eV    
--------------------------------------------------------------------------------
  Total lattice energy       =         -277754.7522 kJ/(mole unit cells)
--------------------------------------------------------------------------------


  Number of variables =      363

  Maximum number of calculations  =          1000
  Maximum Hessian update interval =            10
  Maximum step size               =   0.100000000
  Maximum parameter tolerance     =   0.000010000
  Maximum function  tolerance     =   0.000010000
  Maximum gradient  tolerance     =   0.001000000
  Maximum gradient  component     =   0.010000000

  Symmetry not applied to optimisation

  Cell parameters to be optimised using strains

  Newton-Raphson optimiser to be used

  BFGS hessian update to be used

  Lower half triangular hessian to be used

  Minimiser to switch to RFO
  When gradient norm is less than     0.050000

  Dumpfile to be written after every cycle

  Start of bulk optimisation :

  Cycle:      0 Energy:     -2878.743604  Gnorm:      5.963182  CPU:    0.083
  ** Hessian calculated **
  Cycle:      1 Energy:     -2924.628863  Gnorm:      1.446251  CPU:    0.187
  ** Hessian calculated **
  Cycle:      2 Energy:     -2927.483642  Gnorm:      1.120281  CPU:    0.346
  ** Hessian calculated **
  Cycle:      3 Energy:     -2930.540322  Gnorm:      0.502587  CPU:    0.491
  Cycle:      4 Energy:     -2931.075952  Gnorm:      0.230727  CPU:    0.563
  Cycle:      5 Energy:     -2931.267654  Gnorm:      0.192275  CPU:    0.649
  Cycle:      6 Energy:     -2931.509731  Gnorm:      0.158253  CPU:    0.734
  Cycle:      7 Energy:     -2931.763649  Gnorm:      0.148387  CPU:    0.820
  Cycle:      8 Energy:     -2931.883726  Gnorm:      0.100817  CPU:    0.893
  Cycle:      9 Energy:     -2931.934369  Gnorm:      0.084222  CPU:    0.965
  Cycle:     10 Energy:     -2931.969194  Gnorm:      0.072572  CPU:    1.051
  Cycle:     11 Energy:     -2931.997541  Gnorm:      0.067845  CPU:    1.139
  Cycle:     12 Energy:     -2932.028207  Gnorm:      0.072784  CPU:    1.226
  ** Hessian calculated **
  Cycle:     13 Energy:     -2932.050309  Gnorm:      0.071613  CPU:    1.385
  Cycle:     14 Energy:     -2932.088074  Gnorm:      0.069511  CPU:    1.484
  Cycle:     15 Energy:     -2932.148214  Gnorm:      0.065904  CPU:    1.584
  Cycle:     16 Energy:     -2932.219782  Gnorm:      0.061154  CPU:    1.671
  Cycle:     17 Energy:     -2932.322568  Gnorm:      0.053216  CPU:    1.771
  Cycle:     18 Energy:     -2932.408040  Gnorm:      0.045681  CPU:    1.857
  ** Hessian has wrong structure
  ** Imaginary eigenvectors =   7
  Cycle:     19 Energy:     -2932.458696  Gnorm:      0.088149  CPU:    2.055
  ** Hessian has wrong structure
  ** Imaginary eigenvectors =   4
  ** Hessian has wrong structure
  ** Imaginary eigenvectors =   4
  Cycle:     20 Energy:     -2932.516491  Gnorm:      0.109752  CPU:    2.447
  ** Hessian has wrong structure
  ** Imaginary eigenvectors =   2
  Cycle:     21 Energy:     -2932.639917  Gnorm:      0.136809  CPU:    2.713
  ** Hessian has wrong structure
  ** Imaginary eigenvectors =   1
  ** Hessian has required structure
  Cycle:     22 Energy:     -2933.060817  Gnorm:      0.086650  CPU:    3.093
  ** Hessian has required structure
  Cycle:     23 Energy:     -2933.209612  Gnorm:      0.045145  CPU:    3.226
  ** Hessian has required structure
  Cycle:     24 Energy:     -2933.265371  Gnorm:      0.042611  CPU:    3.346
  ** Hessian has required structure
  Cycle:     25 Energy:     -2933.311461  Gnorm:      0.032943  CPU:    3.478
  ** Hessian has required structure
  Cycle:     26 Energy:     -2933.331906  Gnorm:      0.034184  CPU:    3.610
  ** Hessian has required structure
  Cycle:     27 Energy:     -2933.342302  Gnorm:      0.032810  CPU:    3.729
  ** Hessian has required structure
  Cycle:     28 Energy:     -2933.352762  Gnorm:      0.024658  CPU:    3.848
  ** Hessian has required structure
  Cycle:     29 Energy:     -2933.356834  Gnorm:      0.020278  CPU:    3.966
  ** Hessian has required structure
  Cycle:     30 Energy:     -2933.358457  Gnorm:      0.011946  CPU:    4.072
  ** Hessian has required structure
  Cycle:     31 Energy:     -2933.360154  Gnorm:      0.008267  CPU:    4.217
  ** Hessian has required structure
  Cycle:     32 Energy:     -2933.361912  Gnorm:      0.004201  CPU:    4.418
  ** Hessian has required structure
  Cycle:     33 Energy:     -2933.362344  Gnorm:      0.002171  CPU:    4.550
  ** Hessian has required structure
  Cycle:     34 Energy:     -2933.362457  Gnorm:      0.001099  CPU:    4.683
  ** Hessian has required structure
  Cycle:     35 Energy:     -2933.362483  Gnorm:      0.000555  CPU:    4.815
  ** Hessian has required structure
  Cycle:     36 Energy:     -2933.362490  Gnorm:      0.000279  CPU:    4.947
  ** Hessian has required structure
  Cycle:     37 Energy:     -2933.362491  Gnorm:      0.000195  CPU:    5.053
  ** Hessian has required structure
  Cycle:     38 Energy:     -2933.362492  Gnorm:      0.000137  CPU:    5.160
  ** Hessian has required structure


  **** Optimisation achieved ****


  Final energy =   -2933.36249189 eV      
  Final Gnorm  =       0.00009584

  Components of energy : 

--------------------------------------------------------------------------------
  Interatomic potentials     =         772.24230965 eV    
  Three-body potentials      =           0.00000000 eV    
  Monopole - monopole (real) =       -1490.23746662 eV    
  Monopole - monopole (recip)=       -2215.36733492 eV    
  Monopole - monopole (total)=       -3705.60480155 eV    
--------------------------------------------------------------------------------
  Total lattice energy       =       -2933.36249189 eV    
--------------------------------------------------------------------------------
  Total lattice energy       =         -283024.6399 kJ/(mole unit cells)
--------------------------------------------------------------------------------

  Final fractional coordinates of atoms :

--------------------------------------------------------------------------------
   No.  Atomic        x           y          z          Radius
        Label       (Frac)      (Frac)     (Frac)       (Angs) 
--------------------------------------------------------------------------------
     1  Ge    c     0.052090    0.000000    0.372270    0.000000
     2  Ge    c     0.450783    0.933736    0.372273    0.000000
     3  Ge    c     0.949968    0.939452    0.624687    0.000000
     4  Ge    c     0.552905    0.994284    0.624688    0.000000
     5  Ge    c     0.561143    0.988377    0.130285    0.000000
     6  Ge    c     0.941732    0.945360    0.130281    0.000000
     7  Ge    c     0.453726    0.932973    0.881855    0.000000
     8  Ge    c     0.049151    0.000759    0.881852    0.000000
     9  Ge    c     0.146704    0.309232    0.259268    0.000000
    10  Ge    c     0.356170    0.624503    0.259271    0.000000
    11  Ge    c     0.828100    0.226357    0.705185    0.000000
    12  Ge    c     0.674773    0.707380    0.705187    0.000000
    13  Ge    c     0.855672    0.628565    0.701594    0.000000
    14  Ge    c     0.647200    0.305172    0.701597    0.000000
    15  Ge    c     0.174664    0.708083    0.259859    0.000000
    16  Ge    c     0.328209    0.225651    0.259859    0.000000
    17  Ge    c     0.648639    0.307968    0.012096    0.000000
    18  Ge    c     0.854235    0.625768    0.012093    0.000000
    19  Ge    c     0.328761    0.223796    0.945776    0.000000
    20  Ge    c     0.174116    0.709936    0.945776    0.000000
    21  Ge    c     0.354621    0.622617    0.944011    0.000000
    22  Ge    c     0.148255    0.311116    0.944008    0.000000
    23  Si    c     0.673031    0.698411    0.010676    0.000000
    24  Si    c     0.829843    0.235325    0.010673    0.000000
    25  O1    c     0.079621    0.202745    0.343656    0.000000
    26  O1    c     0.423252    0.730989    0.343661    0.000000
    27  O1    c     0.876113    0.087128    0.606630    0.000000
    28  O1    c     0.626761    0.846608    0.606629    0.000000
    29  O1    c     0.917057    0.738601    0.606685    0.000000
    30  O1    c     0.585814    0.195136    0.606688    0.000000
    31  O1    c     0.127409    0.860472    0.348688    0.000000
    32  O1    c     0.375464    0.073260    0.348687    0.000000
    33  O1    c     0.026558    0.981126    0.532784    0.000000
    34  O1    c     0.476315    0.952612    0.532787    0.000000
    35  O1    c     0.970960    0.955368    0.288311    0.000000
    36  O1    c     0.531913    0.978368    0.288314    0.000000
    37  O1    c     0.974635    0.960241    0.785967    0.000000
    38  O1    c     0.528242    0.973489    0.785969    0.000000
    39  O1    c     0.591689    0.191506    0.107532    0.000000
    40  O1    c     0.911186    0.742231    0.107526    0.000000
    41  O1    c     0.379415    0.078662    0.856397    0.000000
    42  O1    c     0.123462    0.855071    0.856398    0.000000
    43  O1    c     0.419328    0.733649    0.858344    0.000000
    44  O1    c     0.083549    0.200082    0.858342    0.000000
    45  O3    c     0.635571    0.844810    0.099155    0.000000
    46  O3    c     0.867303    0.088927    0.099152    0.000000
    47  O1    c     0.482467    0.946828    0.041157    0.000000
    48  O1    c     0.020408    0.986912    0.041154    0.000000
    49  O1    c     0.158387    0.508698    0.320675    0.000000
    50  O1    c     0.344488    0.425035    0.320675    0.000000
    51  O1    c     0.843300    0.428259    0.647156    0.000000
    52  O1    c     0.659571    0.505477    0.647159    0.000000
    53  O1    c     0.232250    0.195664    0.263414    0.000000
    54  O1    c     0.270624    0.738069    0.263414    0.000000
    55  O1    c     0.733158    0.192044    0.702817    0.000000
    56  O1    c     0.769714    0.741693    0.702818    0.000000
    57  O1    c     0.118156    0.330987    0.101669    0.000000
    58  O1    c     0.384721    0.602752    0.101673    0.000000
    59  O3    c     0.861005    0.219351    0.864380    0.000000
    60  O3    c     0.641869    0.714384    0.864383    0.000000
    61  O1    c     0.889491    0.624092    0.858086    0.000000
    62  O1    c     0.613382    0.309643    0.858090    0.000000
    63  O1    c     0.142577    0.719131    0.103393    0.000000
    64  O1    c     0.360298    0.214603    0.103394    0.000000
    65  O3    c     0.652338    0.515104    0.067438    0.000000
    66  O3    c     0.850537    0.418633    0.067435    0.000000
    67  O1    c     0.342533    0.424538    0.883544    0.000000
    68  O1    c     0.160345    0.509196    0.883541    0.000000
    69  O3    c     0.739573    0.217991    0.007440    0.000000
    70  O3    c     0.763302    0.715747    0.007442    0.000000
    71  O1    c     0.233061    0.193404    0.944761    0.000000
    72  O1    c     0.269816    0.740328    0.944764    0.000000
    73  O1    s     0.082612    0.195464    0.339456    0.000000
    74  O1    s     0.420261    0.738270    0.339461    0.000000
    75  O1    s     0.877794    0.087163    0.615598    0.000000
    76  O1    s     0.625079    0.846573    0.615599    0.000000
    77  O1    s     0.915012    0.745340    0.614905    0.000000
    78  O1    s     0.587859    0.188398    0.614908    0.000000
    79  O1    s     0.125271    0.859321    0.343506    0.000000
    80  O1    s     0.377602    0.074411    0.343506    0.000000
    81  O1    s     0.022283    0.979188    0.528541    0.000000
    82  O1    s     0.480590    0.954550    0.528544    0.000000
    83  O1    s     0.974728    0.957914    0.282800    0.000000
    84  O1    s     0.528146    0.975822    0.282804    0.000000
    85  O1    s     0.978924    0.962034    0.782333    0.000000
    86  O1    s     0.523953    0.971696    0.782335    0.000000
    87  O1    s     0.593930    0.185740    0.101679    0.000000
    88  O1    s     0.908945    0.747998    0.101674    0.000000
    89  O1    s     0.380785    0.079591    0.865208    0.000000
    90  O1    s     0.122092    0.854142    0.865208    0.000000
    91  O1    s     0.416976    0.739730    0.866421    0.000000
    92  O1    s     0.085901    0.194002    0.866418    0.000000
    93  O3    s     0.633373    0.841615    0.092792    0.000000
    94  O3    s     0.869501    0.092122    0.092789    0.000000
    95  O1    s     0.486362    0.948958    0.036593    0.000000
    96  O1    s     0.016512    0.984780    0.036590    0.000000
    97  O1    s     0.158680    0.508208    0.311764    0.000000
    98  O1    s     0.344194    0.425525    0.311764    0.000000
    99  O1    s     0.843183    0.429585    0.655607    0.000000
   100  O1    s     0.659689    0.504151    0.655609    0.000000
   101  O1    s     0.233172    0.206123    0.262843    0.000000
   102  O1    s     0.269701    0.727610    0.262844    0.000000
   103  O1    s     0.734279    0.202775    0.702934    0.000000
   104  O1    s     0.768593    0.730962    0.702934    0.000000
   105  O1    s     0.122528    0.327889    0.101907    0.000000
   106  O1    s     0.380349    0.605849    0.101910    0.000000
   107  O3    s     0.855697    0.221333    0.866178    0.000000
   108  O3    s     0.647177    0.712403    0.866180    0.000000
   109  O1    s     0.884395    0.624556    0.858380    0.000000
   110  O1    s     0.618478    0.309179    0.858383    0.000000
   111  O1    s     0.147250    0.717648    0.103554    0.000000
   112  O1    s     0.355625    0.216085    0.103554    0.000000
   113  O3    s     0.653965    0.516140    0.057901    0.000000
   114  O3    s     0.848909    0.417596    0.057899    0.000000
   115  O1    s     0.342492    0.425658    0.892578    0.000000
   116  O1    s     0.160385    0.508076    0.892575    0.000000
   117  O3    s     0.741198    0.226908    0.008112    0.000000
   118  O3    s     0.761677    0.706829    0.008114    0.000000
   119  O1    s     0.234188    0.204052    0.944806    0.000000
   120  O1    s     0.268689    0.729680    0.944808    0.000000
--------------------------------------------------------------------------------

  Final Cartesian lattice vectors (Angstroms) :

       17.610306    0.330953   -0.000073
        0.143839    7.881947   -0.000415
        0.000057    0.000521   10.345883


  Final cell parameters and derivatives :

--------------------------------------------------------------------------------
       a           17.613416 Angstrom     dE/de1(xx)    -0.000502 eV/strain
       b            7.883259 Angstrom     dE/de2(yy)     0.001325 eV/strain
       c           10.345883 Angstrom     dE/de3(zz)    -0.003290 eV/strain
       alpha       90.000128 Degrees      dE/de4(yz)    -0.000073 eV/strain
       beta        89.999869 Degrees      dE/de5(xz)     0.000213 eV/strain
       gamma       87.877872 Degrees      dE/de6(xy)     0.000070 eV/strain
--------------------------------------------------------------------------------

  Primitive cell volume =          1435.552138 Angs**3

  Density of cell =      2.801170 g/cm**3

  Non-primitive cell volume =          1435.552138 Angs**3


  Final internal derivatives :

--------------------------------------------------------------------------------
   No.  Atomic          a             b             c           Radius
        Label          (eV)          (eV)          (eV)        (eV/Angs)
--------------------------------------------------------------------------------
      1 Ge    c       0.000000      0.000000      0.000000      0.000000
      2 Ge    c      -0.001235     -0.000115     -0.001128      0.000000
      3 Ge    c       0.000647     -0.000258      0.000166      0.000000
      4 Ge    c      -0.002079      0.000199      0.002853      0.000000
      5 Ge    c      -0.002845     -0.000299      0.002452      0.000000
      6 Ge    c       0.002737     -0.000228      0.002246      0.000000
      7 Ge    c      -0.001055     -0.000453      0.001153      0.000000
      8 Ge    c       0.003600      0.000811      0.000576      0.000000
      9 Ge    c       0.001850     -0.000473     -0.000101      0.000000
     10 Ge    c      -0.002984      0.000654     -0.000714      0.000000
     11 Ge    c       0.002024     -0.001024      0.000052      0.000000
     12 Ge    c      -0.002299      0.001321      0.000202      0.000000
     13 Ge    c       0.002633      0.001364     -0.001056      0.000000
     14 Ge    c      -0.002484     -0.001206     -0.000352      0.000000
     15 Ge    c       0.000355      0.000940      0.001472      0.000000
     16 Ge    c       0.001606     -0.000889      0.002064      0.000000
     17 Ge    c       0.001143     -0.000260     -0.000951      0.000000
     18 Ge    c      -0.000467      0.000441     -0.000300      0.000000
     19 Ge    c       0.003231     -0.001490     -0.001847      0.000000
     20 Ge    c      -0.002193      0.000811     -0.002015      0.000000
     21 Ge    c       0.002544      0.000116     -0.000189      0.000000
     22 Ge    c      -0.003439     -0.001100     -0.001663      0.000000
     23 Si    c      -0.003795      0.001049     -0.000993      0.000000
     24 Si    c       0.003059     -0.001090     -0.000689      0.000000
     25 O1    c      -0.005276     -0.004815      0.000319      0.000000
     26 O1    c       0.004227      0.003227      0.000610      0.000000
     27 O1    c      -0.002095      0.001264      0.001289      0.000000
     28 O1    c       0.003431     -0.002233      0.001782      0.000000
     29 O1    c      -0.002695     -0.001014     -0.000014      0.000000
     30 O1    c       0.002486      0.000853     -0.000354      0.000000
     31 O1    c       0.000266     -0.000590     -0.001295      0.000000
     32 O1    c       0.001083     -0.000601     -0.002599      0.000000
     33 O1    c      -0.000138     -0.001774     -0.002293      0.000000
     34 O1    c      -0.000678      0.000499     -0.002310      0.000000
     35 O1    c       0.002874      0.001255     -0.000883      0.000000
     36 O1    c      -0.002643     -0.000698      0.000159      0.000000
     37 O1    c       0.001840      0.001702      0.000969      0.000000
     38 O1    c       0.002157     -0.001383     -0.002029      0.000000
     39 O1    c       0.003260      0.003677      0.000216      0.000000
     40 O1    c      -0.003248     -0.002610     -0.000048      0.000000
     41 O1    c      -0.000869      0.000231      0.003992      0.000000
     42 O1    c      -0.002287      0.001187      0.003339      0.000000
     43 O1    c       0.001320      0.001824      0.001084      0.000000
     44 O1    c       0.000020     -0.001768      0.002997      0.000000
     45 O3    c       0.005738     -0.002478     -0.000836      0.000000
     46 O3    c      -0.004798      0.002548     -0.000529      0.000000
     47 O1    c      -0.006254      0.001523     -0.005884      0.000000
     48 O1    c       0.004361     -0.001560     -0.004138      0.000000
     49 O1    c      -0.000252     -0.000869     -0.000883      0.000000
     50 O1    c       0.000340     -0.000529     -0.001186      0.000000
     51 O1    c       0.001372     -0.001377     -0.000940      0.000000
     52 O1    c      -0.001560      0.000448     -0.001015      0.000000
     53 O1    c      -0.004369      0.000379     -0.000071      0.000000
     54 O1    c       0.004942     -0.000252     -0.000127      0.000000
     55 O1    c       0.003819     -0.001955      0.000141      0.000000
     56 O1    c      -0.002996      0.002135      0.000082      0.000000
     57 O1    c       0.001831      0.000369     -0.001711      0.000000
     58 O1    c      -0.003468      0.000101     -0.002535      0.000000
     59 O3    c      -0.000206      0.000195     -0.000576      0.000000
     60 O3    c       0.000452     -0.000247      0.000207      0.000000
     61 O1    c       0.001307      0.000087      0.001081      0.000000
     62 O1    c      -0.000338     -0.000130      0.000965      0.000000
     63 O1    c      -0.000696     -0.000328      0.000210      0.000000
     64 O1    c       0.000609      0.000320     -0.000472      0.000000
     65 O3    c      -0.002120     -0.002844      0.001058      0.000000
     66 O3    c       0.002188      0.002545      0.001130      0.000000
     67 O1    c       0.001734      0.002207      0.001055      0.000000
     68 O1    c      -0.001330     -0.000607      0.000863      0.000000
     69 O3    c      -0.006818     -0.001034     -0.000114      0.000000
     70 O3    c       0.007066      0.001156     -0.000105      0.000000
     71 O1    c      -0.002174     -0.000615      0.000113      0.000000
     72 O1    c       0.000829      0.000639      0.000028      0.000000
     73 O1    s       0.003827      0.002718      0.000410      0.000000
     74 O1    s      -0.002289     -0.001909      0.000531      0.000000
     75 O1    s       0.000747     -0.000219     -0.001553      0.000000
     76 O1    s      -0.001868      0.000995     -0.002339      0.000000
     77 O1    s       0.002610      0.000216      0.000215      0.000000
     78 O1    s      -0.003911      0.000059      0.000222      0.000000
     79 O1    s      -0.001526      0.000342      0.000052      0.000000
     80 O1    s       0.000469      0.000697      0.000825      0.000000
     81 O1    s       0.000491      0.002074      0.001292      0.000000
     82 O1    s       0.000313     -0.000710      0.001838      0.000000
     83 O1    s       0.000265     -0.001088      0.001769      0.000000
     84 O1    s      -0.000901      0.000494      0.001428      0.000000
     85 O1    s       0.002494     -0.002330      0.000894      0.000000
     86 O1    s      -0.005670      0.002031      0.002331      0.000000
     87 O1    s      -0.000283     -0.001032      0.001605      0.000000
     88 O1    s       0.000737      0.000853      0.001412      0.000000
     89 O1    s       0.002500     -0.000175     -0.003774      0.000000
     90 O1    s      -0.000116     -0.000753     -0.002841      0.000000
     91 O1    s       0.000521     -0.001370      0.000294      0.000000
     92 O1    s      -0.000573      0.000837     -0.000764      0.000000
     93 O3    s      -0.003054      0.001308      0.000623      0.000000
     94 O3    s       0.002836     -0.001647      0.000511      0.000000
     95 O1    s      -0.000712     -0.002253      0.002148      0.000000
     96 O1    s       0.000494      0.002230      0.001602      0.000000
     97 O1    s       0.000381      0.000457      0.000376      0.000000
     98 O1    s      -0.000621      0.000232      0.000144      0.000000
     99 O1    s      -0.001421      0.000356     -0.000031      0.000000
    100 O1    s       0.001479      0.000011      0.000021      0.000000
    101 O1    s       0.002482      0.000360      0.000069      0.000000
    102 O1    s      -0.003331     -0.000934     -0.000161      0.000000
    103 O1    s      -0.001830      0.001524     -0.000552      0.000000
    104 O1    s       0.001554     -0.001635     -0.000378      0.000000
    105 O1    s      -0.000518     -0.000901      0.000448      0.000000
    106 O1    s       0.001013      0.000741      0.000173      0.000000
    107 O3    s       0.000944     -0.000153     -0.000345      0.000000
    108 O3    s      -0.001178     -0.000069     -0.000616      0.000000
    109 O1    s       0.000402      0.000029     -0.000345      0.000000
    110 O1    s      -0.000754      0.000117     -0.000503      0.000000
    111 O1    s       0.000643      0.000530      0.000091      0.000000
    112 O1    s      -0.001218     -0.000435      0.000274      0.000000
    113 O3    s       0.001359      0.000449     -0.000074      0.000000
    114 O3    s      -0.001614     -0.000417     -0.000027      0.000000
    115 O1    s      -0.000259     -0.000708      0.000554      0.000000
    116 O1    s       0.000453     -0.000003     -0.000145      0.000000
    117 O3    s       0.001589      0.000831      0.000034      0.000000
    118 O3    s      -0.001359     -0.000706      0.000182      0.000000
    119 O1    s       0.000687      0.001197      0.000096      0.000000
    120 O1    s       0.000805     -0.001198      0.000216      0.000000
--------------------------------------------------------------------------------
  Maximum abs         0.007066      0.004815      0.005884      0.000000
--------------------------------------------------------------------------------


  Born effective charge tensors : 

-------------------------------------------------------------------------------
  Atom             x           y             z
-------------------------------------------------------------------------------
    1 Ge    x       4.1825      0.2559     -0.4291
            y      -0.1461      3.9281     -0.0939
            z      -0.1702     -0.0582      4.4679
-------------------------------------------------------------------------------
    2 Ge    x       4.1825      0.2559      0.4291
            y      -0.1461      3.9281      0.0939
            z       0.1702      0.0583      4.4679
-------------------------------------------------------------------------------
    3 Ge    x       4.0786      0.2498      0.0201
            y      -0.0758      3.9526      0.0226
            z      -0.8395     -0.1438      4.2377
-------------------------------------------------------------------------------
    4 Ge    x       4.0785      0.2498     -0.0201
            y      -0.0757      3.9526     -0.0226
            z       0.8395      0.1438      4.2377
-------------------------------------------------------------------------------
    5 Ge    x       4.2084      0.2868     -0.3948
            y      -0.0820      3.9938     -0.0102
            z      -0.3458     -0.0182      3.9657
-------------------------------------------------------------------------------
    6 Ge    x       4.2085      0.2869      0.3948
            y      -0.0819      3.9938      0.0102
            z       0.3458      0.0182      3.9656
-------------------------------------------------------------------------------
    7 Ge    x       4.3216      0.2091      0.0589
            y      -0.0991      3.9469     -0.0178
            z      -0.6230     -0.1405      3.6523
-------------------------------------------------------------------------------
    8 Ge    x       4.3217      0.2091     -0.0590
            y      -0.0991      3.9469      0.0178
            z       0.6230      0.1405      3.6522
-------------------------------------------------------------------------------
    9 Ge    x       3.9806      0.0694     -0.1880
            y       0.4587      4.1766     -0.0916
            z      -0.0831     -0.2141      3.5991
-------------------------------------------------------------------------------
   10 Ge    x       3.9806      0.0694      0.1880
            y       0.4587      4.1767      0.0915
            z       0.0831      0.2141      3.5991
-------------------------------------------------------------------------------
   11 Ge    x       3.9393     -0.2150     -0.3540
            y      -0.2292      4.1429      0.1394
            z      -0.0449      0.1908      3.5291
-------------------------------------------------------------------------------
   12 Ge    x       3.9393     -0.2150      0.3540
            y      -0.2292      4.1429     -0.1395
            z       0.0450     -0.1909      3.5291
-------------------------------------------------------------------------------
   13 Ge    x       3.8653      0.1039     -0.2580
            y       0.4490      4.2167     -0.1294
            z      -0.0710     -0.1744      3.5793
-------------------------------------------------------------------------------
   14 Ge    x       3.8653      0.1039      0.2580
            y       0.4490      4.2168      0.1293
            z       0.0710      0.1743      3.5793
-------------------------------------------------------------------------------
   15 Ge    x       4.0157     -0.2444     -0.2432
            y      -0.2446      4.2057      0.0689
            z       0.0034      0.2059      3.5990
-------------------------------------------------------------------------------
   16 Ge    x       4.0157     -0.2444      0.2432
            y      -0.2446      4.2057     -0.0689
            z      -0.0034     -0.2060      3.5991
-------------------------------------------------------------------------------
   17 Ge    x       3.9212      0.1604     -0.3005
            y       0.4438      4.1375     -0.1762
            z      -0.0952     -0.2412      3.4593
-------------------------------------------------------------------------------
   18 Ge    x       3.9212      0.1605      0.3005
            y       0.4438      4.1376      0.1761
            z       0.0951      0.2412      3.4592
-------------------------------------------------------------------------------
   19 Ge    x       4.1120     -0.2594     -0.3190
            y      -0.2938      4.1568      0.0628
            z      -0.0386      0.1502      3.4467
-------------------------------------------------------------------------------
   20 Ge    x       4.1120     -0.2594      0.3190
            y      -0.2938      4.1568     -0.0629
            z       0.0386     -0.1502      3.4467
-------------------------------------------------------------------------------
   21 Ge    x       4.0406      0.0985     -0.2728
            y       0.4441      4.1890     -0.0724
            z      -0.0857     -0.1739      3.4300
-------------------------------------------------------------------------------
   22 Ge    x       4.0406      0.0985      0.2727
            y       0.4441      4.1890      0.0723
            z       0.0857      0.1739      3.4300
-------------------------------------------------------------------------------
   23 Si    x       3.6921     -0.2675     -0.3180
            y      -0.1814      3.9345      0.0850
            z      -0.0253      0.1865      3.2494
-------------------------------------------------------------------------------
   24 Si    x       3.6921     -0.2675      0.3180
            y      -0.1814      3.9345     -0.0851
            z       0.0253     -0.1866      3.2495
-------------------------------------------------------------------------------
   25 O1    x      -1.9791     -0.8503      0.5140
            y      -0.8004     -2.5304      0.5238
            z       0.4658      0.5225     -1.6373
-------------------------------------------------------------------------------
   26 O1    x      -1.9790     -0.8503     -0.5139
            y      -0.8004     -2.5305     -0.5237
            z      -0.4658     -0.5224     -1.6372
-------------------------------------------------------------------------------
   27 O1    x      -2.1371      0.8854      0.3405
            y       0.9340     -2.2779     -0.3982
            z       0.4020     -0.3981     -1.6626
-------------------------------------------------------------------------------
   28 O1    x      -2.1371      0.8853     -0.3406
            y       0.9339     -2.2778      0.3983
            z      -0.4021      0.3982     -1.6627
-------------------------------------------------------------------------------
   29 O1    x      -1.9093     -0.8514      0.3714
            y      -0.8138     -2.5277      0.3284
            z       0.4421      0.3608     -1.6251
-------------------------------------------------------------------------------
   30 O1    x      -1.9093     -0.8514     -0.3713
            y      -0.8138     -2.5278     -0.3283
            z      -0.4421     -0.3607     -1.6250
-------------------------------------------------------------------------------
   31 O1    x      -2.2036      0.9139      0.5186
            y       0.9575     -2.3365     -0.5106
            z       0.4848     -0.5464     -1.6543
-------------------------------------------------------------------------------
   32 O1    x      -2.2036      0.9138     -0.5187
            y       0.9574     -2.3364      0.5107
            z      -0.4849      0.5465     -1.6544
-------------------------------------------------------------------------------
   33 O1    x      -2.0475     -0.2546      0.9231
            y      -0.1076     -1.2861      0.1666
            z       1.1270      0.3078     -3.1117
-------------------------------------------------------------------------------
   34 O1    x      -2.0475     -0.2547     -0.9231
            y      -0.1077     -1.2862     -0.1668
            z      -1.1270     -0.3080     -3.1117
-------------------------------------------------------------------------------
   35 O1    x      -2.1369     -0.2324     -0.8205
            y      -0.1150     -1.3089     -0.1404
            z      -0.8613     -0.1885     -2.7580
-------------------------------------------------------------------------------
   36 O1    x      -2.1369     -0.2324      0.8205
            y      -0.1149     -1.3089      0.1402
            z       0.8613      0.1884     -2.7580
-------------------------------------------------------------------------------
   37 O1    x      -2.1121     -0.2261     -0.8320
            y      -0.1024     -1.3583     -0.1898
            z      -0.7915     -0.2458     -2.6043
-------------------------------------------------------------------------------
   38 O1    x      -2.1120     -0.2260      0.8320
            y      -0.1023     -1.3582      0.1896
            z       0.7914      0.2457     -2.6044
-------------------------------------------------------------------------------
   39 O1    x      -1.9580     -0.8745      0.5503
            y      -0.7990     -2.6871      0.5819
            z       0.4682      0.5557     -1.5770
-------------------------------------------------------------------------------
   40 O1    x      -1.9581     -0.8745     -0.5502
            y      -0.7990     -2.6873     -0.5818
            z      -0.4682     -0.5556     -1.5768
-------------------------------------------------------------------------------
   41 O1    x      -2.2506      0.9219      0.2887
            y       0.9646     -2.3064     -0.3146
            z       0.3520     -0.3420     -1.4794
-------------------------------------------------------------------------------
   42 O1    x      -2.2506      0.9219     -0.2888
            y       0.9646     -2.3063      0.3147
            z      -0.3521      0.3420     -1.4795
-------------------------------------------------------------------------------
   43 O1    x      -2.0747     -0.8845      0.3429
            y      -0.8341     -2.5070      0.2541
            z       0.3927      0.3019     -1.4425
-------------------------------------------------------------------------------
   44 O1    x      -2.0747     -0.8846     -0.3428
            y      -0.8342     -2.5071     -0.2540
            z      -0.3926     -0.3018     -1.4424
-------------------------------------------------------------------------------
   45 O3    x      -1.9503      0.8276      0.5310
            y       0.8397     -2.2899     -0.6058
            z       0.4528     -0.5836     -1.5469
-------------------------------------------------------------------------------
   46 O3    x      -1.9503      0.8275     -0.5311
            y       0.8396     -2.2898      0.6059
            z      -0.4529      0.5836     -1.5470
-------------------------------------------------------------------------------
   47 O1    x      -2.2063     -0.2043     -0.7353
            y      -0.0905     -1.3580     -0.1511
            z      -0.5088     -0.1466     -2.2677
-------------------------------------------------------------------------------
   48 O1    x      -2.2063     -0.2042      0.7353
            y      -0.0904     -1.3580      0.1510
            z       0.5088      0.1465     -2.2677
-------------------------------------------------------------------------------
   49 O1    x      -1.3665     -0.2126      0.0684
            y      -0.3207     -3.1401     -0.0163
            z       0.0278     -0.0135     -1.4039
-------------------------------------------------------------------------------
   50 O1    x      -1.3665     -0.2126     -0.0684
            y      -0.3207     -3.1401      0.0165
            z      -0.0278      0.0137     -1.4039
-------------------------------------------------------------------------------
   51 O1    x      -1.3325     -0.2015      0.0822
            y      -0.3194     -3.1678      0.0145
            z       0.0316      0.0261     -1.3897
-------------------------------------------------------------------------------
   52 O1    x      -1.3325     -0.2015     -0.0822
            y      -0.3194     -3.1678     -0.0143
            z      -0.0316     -0.0259     -1.3897
-------------------------------------------------------------------------------
   53 O1    x      -3.0646      0.2836      0.0003
            y       0.2038     -1.5744      0.0208
            z       0.0116      0.0570     -1.2223
-------------------------------------------------------------------------------
   54 O1    x      -3.0646      0.2836     -0.0003
            y       0.2038     -1.5744     -0.0208
            z      -0.0116     -0.0570     -1.2223
-------------------------------------------------------------------------------
   55 O1    x      -2.9972      0.2453     -0.0317
            y       0.1707     -1.5700     -0.0216
            z      -0.0551     -0.0437     -1.2235
-------------------------------------------------------------------------------
   56 O1    x      -2.9972      0.2453      0.0317
            y       0.1707     -1.5700      0.0216
            z       0.0551      0.0437     -1.2235
-------------------------------------------------------------------------------
   57 O1    x      -1.4589     -0.0146     -0.0370
            y      -0.0831     -1.4273      0.0078
            z      -0.0270      0.0064     -2.7415
-------------------------------------------------------------------------------
   58 O1    x      -1.4589     -0.0146      0.0370
            y      -0.0831     -1.4273     -0.0080
            z       0.0270     -0.0066     -2.7415
-------------------------------------------------------------------------------
   59 O3    x      -1.4032      0.1051      0.0836
            y       0.1103     -1.3496     -0.0616
            z       0.0464     -0.0440     -2.5480
-------------------------------------------------------------------------------
   60 O3    x      -1.4033      0.1051     -0.0836
            y       0.1103     -1.3496      0.0614
            z      -0.0465      0.0438     -2.5480
-------------------------------------------------------------------------------
   61 O1    x      -1.4968     -0.0432      0.0355
            y      -0.1089     -1.4297      0.0497
            z       0.0045      0.0255     -2.6839
-------------------------------------------------------------------------------
   62 O1    x      -1.4968     -0.0432     -0.0355
            y      -0.1089     -1.4297     -0.0499
            z      -0.0046     -0.0257     -2.6838
-------------------------------------------------------------------------------
   63 O1    x      -1.4916      0.0985     -0.0338
            y       0.1069     -1.4238      0.0155
            z      -0.0438      0.0105     -2.7240
-------------------------------------------------------------------------------
   64 O1    x      -1.4916      0.0985      0.0338
            y       0.1069     -1.4238     -0.0156
            z       0.0438     -0.0106     -2.7240
-------------------------------------------------------------------------------
   65 O3    x      -1.3195     -0.1716      0.1257
            y      -0.2769     -2.9918      0.0911
            z       0.0746      0.1010     -1.2483
-------------------------------------------------------------------------------
   66 O3    x      -1.3195     -0.1716     -0.1257
            y      -0.2769     -2.9918     -0.0910
            z      -0.0746     -0.1008     -1.2483
-------------------------------------------------------------------------------
   67 O1    x      -1.4003     -0.2078      0.0830
            y      -0.2952     -3.1215     -0.0098
            z       0.0296     -0.0150     -1.3526
-------------------------------------------------------------------------------
   68 O1    x      -1.4003     -0.2078     -0.0830
            y      -0.2952     -3.1215      0.0099
            z      -0.0296      0.0152     -1.3526
-------------------------------------------------------------------------------
   69 O3    x      -2.9755      0.2106     -0.0029
            y       0.1382     -1.4248      0.0120
            z       0.0123      0.0373     -1.1245
-------------------------------------------------------------------------------
   70 O3    x      -2.9755      0.2105      0.0029
            y       0.1381     -1.4248     -0.0120
            z      -0.0123     -0.0373     -1.1245
-------------------------------------------------------------------------------
   71 O1    x      -3.0857      0.2902     -0.0081
            y       0.1977     -1.5862     -0.0057
            z      -0.0282     -0.0394     -1.1864
-------------------------------------------------------------------------------
   72 O1    x      -3.0857      0.2902      0.0081
            y       0.1977     -1.5862      0.0057
            z       0.0282      0.0394     -1.1864
-------------------------------------------------------------------------------




  Elastic Constant Matrix: (Units=GPa)

-------------------------------------------------------------------------------
  Indices      1         2         3         4         5         6    
-------------------------------------------------------------------------------
       1     25.0073   10.4847    7.9952   -0.0001   -0.0002    8.1198
       2     10.4847   33.7763    6.2856   -0.0006   -0.0001    9.1406
       3      7.9952    6.2856   13.8851   -0.0004   -0.0005    2.6209
       4     -0.0001   -0.0006   -0.0004    7.9047    2.4140    0.0000
       5     -0.0002   -0.0001   -0.0005    2.4140   14.3437   -0.0002
       6      8.1198    9.1406    2.6209    0.0000   -0.0002   20.3080
-------------------------------------------------------------------------------


  Elastic Compliance Matrix: (Units=1/GPa)

-------------------------------------------------------------------------------
  Indices      1         2         3         4         5         6    
-------------------------------------------------------------------------------
       1    0.056952 -0.008647 -0.025948 -0.000001 -0.000000 -0.015531
       2   -0.008647  0.037365 -0.009649  0.000003 -0.000001 -0.012115
       3   -0.025948 -0.009649  0.090762  0.000002  0.000003  0.003004
       4   -0.000001  0.000003  0.000002  0.133360 -0.022444 -0.000001
       5   -0.000000 -0.000001  0.000003 -0.022444  0.073494  0.000001
       6   -0.015531 -0.012115  0.003004 -0.000001  0.000001  0.060517
-------------------------------------------------------------------------------

  Mechanical properties :

-------------------------------------------------------------------------------
  Convention :                    Reuss         Voigt         Hill
-------------------------------------------------------------------------------
  Bulk  Modulus (GPa)     =      10.35290      13.57774      11.96532
  Shear Modulus (GPa)     =       8.72395      11.70484      10.21439
-------------------------------------------------------------------------------
  Velocity S-wave (km/s)  =       1.76477       2.04415       1.90957
  Velocity P-wave (km/s)  =       2.80151       3.22778       3.02217
-------------------------------------------------------------------------------
  Compressibility (1/GPa) =    0.09659133
-------------------------------------------------------------------------------
  Stress axis :                     x             y             z
-------------------------------------------------------------------------------
  Youngs Moduli (GPa)     =      17.55856      26.76294      11.01788
-------------------------------------------------------------------------------
  Poissons Ratio (x)      =                     0.23142       0.28589
  Poissons Ratio (y)      =       0.15183                     0.10631
  Poissons Ratio (z)      =       0.45561       0.25823
-------------------------------------------------------------------------------


  Piezoelectric Strain Matrix: (Units=C/m**2)

-------------------------------------------------------------------------------
  Indices      1         2         3         4         5         6    
-------------------------------------------------------------------------------
       x     0.00005  -0.00000   0.00000   0.06214  -0.42199  -0.00003
       y    -0.00012  -0.00011   0.00018  -1.04485  -0.49214   0.00009
       z    -0.35160   0.51172   1.14685   0.00013  -0.00000  -0.00462
-------------------------------------------------------------------------------


  Piezoelectric Stress Matrix: (Units=10**-11 C/N)

-------------------------------------------------------------------------------
  Indices      1         2         3         4         5         6    
-------------------------------------------------------------------------------
       x     0.00033   0.00004  -0.00021   1.77579  -3.24087  -0.00029
       y    -0.00107  -0.00081   0.00168 -12.82957  -1.27193   0.00099
       z    -5.41360   1.11511  10.82621   0.00216  -0.00002   0.24268
-------------------------------------------------------------------------------


  Static dielectric constant tensor : 

-------------------------------------------------------------------------------
              x         y         z
-------------------------------------------------------------------------------
       x     5.29589   0.05985  -0.00001
       y     0.05985   6.42185  -0.00011
       z    -0.00001  -0.00011   4.27232
--------------------------------------------------------------------------------

  High frequency dielectric constant tensor : 

-------------------------------------------------------------------------------
              x         y         z
-------------------------------------------------------------------------------
       x     1.53031   0.00182  -0.00000
       y     0.00182   1.53739  -0.00000
       z    -0.00000  -0.00000   1.49178
-------------------------------------------------------------------------------

  Static refractive indices : 

-------------------------------------------------------------------------------
    1 =    2.06696      2 =    2.30059      3 =    2.53476
-------------------------------------------------------------------------------

  High frequency refractive indices : 

-------------------------------------------------------------------------------
    1 =    1.22138      2 =    1.23688      3 =    1.24009
-------------------------------------------------------------------------------


  Time to end of optimisation =       5.4123 seconds


  Peak dynamic memory used =       5.01 MB 


  Timing analysis for GULP :

--------------------------------------------------------------------------------
  Task / Subroutine                                          Time (Seconds)
--------------------------------------------------------------------------------
  Calculation of reciprocal space energy and derivatives          0.3875
  Calculation of real space energy and derivatives                3.9003
  Calculation of three-body energy and derivatives                0.0315
  Calculation and manipulation of Hessian matrix                  1.3694
  Calculation of matrix inversion                                 0.0231
--------------------------------------------------------------------------------
  Total CPU time                                                  5.4123
--------------------------------------------------------------------------------


  Dump file written as c00001.vasp.grs
  CIF file written as c00001.vasp.cif


  Job Finished at 18:33.59 30th October    2025                               

