********************************************************************************
*                       GENERAL UTILITY LATTICE PROGRAM                        *
*                                 Julian Gale                                  *
*                       Curtin Institute for Computation                       *
*                    School of Molecular and Life Sciences                     *
*                    Curtin University, Western Australia                      *
********************************************************************************
* Version = 6.1.2 * Last modified =   3rd November 2022                        *
********************************************************************************
*  optimise     - perform optimisation run                                     *
*  conp         - constant pressure calculation                                *
*  property     - calculate properties for final geometry                      *
********************************************************************************

  Job Started  at 18:35.47 30th October    2025                               

  Number of CPUs =     1


  Total number of configurations input =      1

********************************************************************************
*  Input for Configuration =   1 : c00015.vasp                                 *
********************************************************************************

  Formula = Ge22Si2O48                                                  

  Number of irreducible atoms/shells =     120


  Total number atoms/shells =     120

  Dimensionality = 3               :  Bulk   



  Cartesian lattice vectors (Angstroms) :

       17.182800    0.000000    0.000000
        0.000000    7.513760    0.000000
        0.000000    0.000000   10.447700

  Cell parameters (Angstroms/Degrees):

  a =      17.1828    alpha =  90.0000
  b =       7.5138    beta  =  90.0000
  c =      10.4477    gamma =  90.0000

  Initial cell volume =        1348.875752 Angs**3

  Temperature of configuration =   0.00     K 

  Pressure of configuration =         0.000 GPa 

  Fractional coordinates of asymmetric unit :

--------------------------------------------------------------------------------
   No.  Atomic       x           y          z         Charge      Occupancy
        Label      (Frac)      (Frac)     (Frac)        (e)         (Frac)  
--------------------------------------------------------------------------------
      1 Ge    c    0.052090    0.000000    0.372270     4.00000    1.000000    
      2 Ge    c    0.447910 *  0.000000 *  0.372270 *   4.00000    1.000000    
      3 Ge    c    0.947910 *  0.000000 *  0.627730 *   4.00000    1.000000    
      4 Ge    c    0.552090 *  0.000000 *  0.627730 *   4.00000    1.000000    
      5 Ge    c    0.556730 *  0.000000 *  0.122130 *   4.00000    1.000000    
      6 Ge    c    0.943270 *  0.000000 *  0.122130 *   4.00000    1.000000    
      7 Ge    c    0.443270 *  0.000000 *  0.877870 *   4.00000    1.000000    
      8 Ge    c    0.056730 *  0.000000 *  0.877870 *   4.00000    1.000000    
      9 Ge    c    0.160190 *  0.293910 *  0.273440 *   4.00000    1.000000    
     10 Ge    c    0.339810 *  0.706090 *  0.273440 *   4.00000    1.000000    
     11 Ge    c    0.839810 *  0.293910 *  0.726560 *   4.00000    1.000000    
     12 Ge    c    0.660190 *  0.706090 *  0.726560 *   4.00000    1.000000    
     13 Ge    c    0.839810 *  0.706090 *  0.726560 *   4.00000    1.000000    
     14 Ge    c    0.660190 *  0.293910 *  0.726560 *   4.00000    1.000000    
     15 Ge    c    0.160190 *  0.706090 *  0.273440 *   4.00000    1.000000    
     16 Ge    c    0.839340 *  0.705910 *  0.017440 *   4.00000    1.000000    
     17 Ge    c    0.339340 *  0.294090 *  0.982560 *   4.00000    1.000000    
     18 Ge    c    0.160660 *  0.705910 *  0.982560 *   4.00000    1.000000    
     19 Ge    c    0.339340 *  0.705910 *  0.982560 *   4.00000    1.000000    
     20 Ge    c    0.160660 *  0.294090 *  0.982560 *   4.00000    1.000000    
     21 Ge    c    0.660660 *  0.705910 *  0.017440 *   4.00000    1.000000    
     22 Ge    c    0.839340 *  0.294090 *  0.017440 *   4.00000    1.000000    
     23 Si    c    0.339810 *  0.293910 *  0.273440 *   4.00000    1.000000    
     24 Si    c    0.660660 *  0.294090 *  0.017440 *   4.00000    1.000000    
     25 O1    c    0.106570 *  0.174340 *  0.366200 *   1.73396    1.000000    
     26 O1    c    0.393430 *  0.825660 *  0.366200 *   1.73396    1.000000    
     27 O1    c    0.893430 *  0.174340 *  0.633800 *   1.73396    1.000000    
     28 O1    c    0.606570 *  0.825660 *  0.633800 *   1.73396    1.000000    
     29 O1    c    0.893430 *  0.825660 *  0.633800 *   1.73396    1.000000    
     30 O1    c    0.606570 *  0.174340 *  0.633800 *   1.73396    1.000000    
     31 O1    c    0.106570 *  0.825660 *  0.366200 *   1.73396    1.000000    
     32 O3    c    0.393430 *  0.174340 *  0.366200 *   1.33043    1.000000    
     33 O1    c    0.000000 *  0.000000 *  0.500000 *   1.73396    1.000000    
     34 O1    c    0.500000 *  0.000000 *  0.500000 *   1.73396    1.000000    
     35 O1    c    0.994520 *  0.000000 *  0.250840 *   1.73396    1.000000    
     36 O1    c    0.505480 *  0.000000 *  0.250840 *   1.73396    1.000000    
     37 O1    c    0.005480 *  0.000000 *  0.749160 *   1.73396    1.000000    
     38 O1    c    0.494520 *  0.000000 *  0.749160 *   1.73396    1.000000    
     39 O3    c    0.610230 *  0.175520 *  0.115390 *   1.33043    1.000000    
     40 O1    c    0.889770 *  0.824480 *  0.115390 *   1.73396    1.000000    
     41 O1    c    0.389770 *  0.175520 *  0.884610 *   1.73396    1.000000    
     42 O1    c    0.110230 *  0.824480 *  0.884610 *   1.73396    1.000000    
     43 O1    c    0.389770 *  0.824480 *  0.884610 *   1.73396    1.000000    
     44 O1    c    0.110230 *  0.175520 *  0.884610 *   1.73396    1.000000    
     45 O1    c    0.610230 *  0.824480 *  0.115390 *   1.73396    1.000000    
     46 O1    c    0.889770 *  0.175520 *  0.115390 *   1.73396    1.000000    
     47 O1    c    0.500000 *  0.000000 *  0.000000 *   1.73396    1.000000    
     48 O1    c    0.000000 *  0.000000 *  0.000000 *   1.73396    1.000000    
     49 O1    c    0.151750 *  0.500000 *  0.313330 *   1.73396    1.000000    
     50 O3    c    0.348250 *  0.500000 *  0.313330 *   1.33043    1.000000    
     51 O1    c    0.848250 *  0.500000 *  0.686670 *   1.73396    1.000000    
     52 O1    c    0.651750 *  0.500000 *  0.686670 *   1.73396    1.000000    
     53 O3    c    0.250000 *  0.234950 *  0.285720 *   1.33043    1.000000    
     54 O1    c    0.250000 *  0.765050 *  0.285720 *   1.73396    1.000000    
     55 O1    c    0.750000 *  0.234950 *  0.714280 *   1.73396    1.000000    
     56 O1    c    0.750000 *  0.765050 *  0.714280 *   1.73396    1.000000    
     57 O1    c    0.131410 *  0.268650 *  0.127790 *   1.73396    1.000000    
     58 O1    c    0.368590 *  0.731350 *  0.127790 *   1.73396    1.000000    
     59 O1    c    0.868590 *  0.268650 *  0.872210 *   1.73396    1.000000    
     60 O1    c    0.631410 *  0.731350 *  0.872210 *   1.73396    1.000000    
     61 O1    c    0.868590 *  0.731350 *  0.872210 *   1.73396    1.000000    
     62 O3    c    0.631410 *  0.268650 *  0.872210 *   1.33043    1.000000    
     63 O1    c    0.131410 *  0.731350 *  0.127790 *   1.73396    1.000000    
     64 O3    c    0.368590 *  0.268650 *  0.127790 *   1.33043    1.000000    
     65 O3    c    0.653920 *  0.500000 *  0.058200 *   1.33043    1.000000    
     66 O1    c    0.846080 *  0.500000 *  0.058200 *   1.73396    1.000000    
     67 O1    c    0.346080 *  0.500000 *  0.941800 *   1.73396    1.000000    
     68 O1    c    0.153920 *  0.500000 *  0.941800 *   1.73396    1.000000    
     69 O3    c    0.750000 *  0.231060 *  0.027050 *   1.33043    1.000000    
     70 O1    c    0.750000 *  0.768940 *  0.027050 *   1.73396    1.000000    
     71 O1    c    0.250000 *  0.231060 *  0.972950 *   1.73396    1.000000    
     72 O1    c    0.250000 *  0.768940 *  0.972950 *   1.73396    1.000000    
     73 O1    s    0.106570 *  0.174340 *  0.366200 *  -3.73396    1.000000    
     74 O1    s    0.393430 *  0.825660 *  0.366200 *  -3.73396    1.000000    
     75 O1    s    0.893430 *  0.174340 *  0.633800 *  -3.73396    1.000000    
     76 O1    s    0.606570 *  0.825660 *  0.633800 *  -3.73396    1.000000    
     77 O1    s    0.893430 *  0.825660 *  0.633800 *  -3.73396    1.000000    
     78 O1    s    0.606570 *  0.174340 *  0.633800 *  -3.73396    1.000000    
     79 O1    s    0.106570 *  0.825660 *  0.366200 *  -3.73396    1.000000    
     80 O3    s    0.393430 *  0.174340 *  0.366200 *  -3.33043    1.000000    
     81 O1    s    0.000000 *  0.000000 *  0.500000 *  -3.73396    1.000000    
     82 O1    s    0.500000 *  0.000000 *  0.500000 *  -3.73396    1.000000    
     83 O1    s    0.994520 *  0.000000 *  0.250840 *  -3.73396    1.000000    
     84 O1    s    0.505480 *  0.000000 *  0.250840 *  -3.73396    1.000000    
     85 O1    s    0.005480 *  0.000000 *  0.749160 *  -3.73396    1.000000    
     86 O1    s    0.494520 *  0.000000 *  0.749160 *  -3.73396    1.000000    
     87 O3    s    0.610230 *  0.175520 *  0.115390 *  -3.33043    1.000000    
     88 O1    s    0.889770 *  0.824480 *  0.115390 *  -3.73396    1.000000    
     89 O1    s    0.389770 *  0.175520 *  0.884610 *  -3.73396    1.000000    
     90 O1    s    0.110230 *  0.824480 *  0.884610 *  -3.73396    1.000000    
     91 O1    s    0.389770 *  0.824480 *  0.884610 *  -3.73396    1.000000    
     92 O1    s    0.110230 *  0.175520 *  0.884610 *  -3.73396    1.000000    
     93 O1    s    0.610230 *  0.824480 *  0.115390 *  -3.73396    1.000000    
     94 O1    s    0.889770 *  0.175520 *  0.115390 *  -3.73396    1.000000    
     95 O1    s    0.500000 *  0.000000 *  0.000000 *  -3.73396    1.000000    
     96 O1    s    0.000000 *  0.000000 *  0.000000 *  -3.73396    1.000000    
     97 O1    s    0.151750 *  0.500000 *  0.313330 *  -3.73396    1.000000    
     98 O3    s    0.348250 *  0.500000 *  0.313330 *  -3.33043    1.000000    
     99 O1    s    0.848250 *  0.500000 *  0.686670 *  -3.73396    1.000000    
    100 O1    s    0.651750 *  0.500000 *  0.686670 *  -3.73396    1.000000    
    101 O3    s    0.250000 *  0.234950 *  0.285720 *  -3.33043    1.000000    
    102 O1    s    0.250000 *  0.765050 *  0.285720 *  -3.73396    1.000000    
    103 O1    s    0.750000 *  0.234950 *  0.714280 *  -3.73396    1.000000    
    104 O1    s    0.750000 *  0.765050 *  0.714280 *  -3.73396    1.000000    
    105 O1    s    0.131410 *  0.268650 *  0.127790 *  -3.73396    1.000000    
    106 O1    s    0.368590 *  0.731350 *  0.127790 *  -3.73396    1.000000    
    107 O1    s    0.868590 *  0.268650 *  0.872210 *  -3.73396    1.000000    
    108 O1    s    0.631410 *  0.731350 *  0.872210 *  -3.73396    1.000000    
    109 O1    s    0.868590 *  0.731350 *  0.872210 *  -3.73396    1.000000    
    110 O3    s    0.631410 *  0.268650 *  0.872210 *  -3.33043    1.000000    
    111 O1    s    0.131410 *  0.731350 *  0.127790 *  -3.73396    1.000000    
    112 O3    s    0.368590 *  0.268650 *  0.127790 *  -3.33043    1.000000    
    113 O3    s    0.653920 *  0.500000 *  0.058200 *  -3.33043    1.000000    
    114 O1    s    0.846080 *  0.500000 *  0.058200 *  -3.73396    1.000000    
    115 O1    s    0.346080 *  0.500000 *  0.941800 *  -3.73396    1.000000    
    116 O1    s    0.153920 *  0.500000 *  0.941800 *  -3.73396    1.000000    
    117 O3    s    0.750000 *  0.231060 *  0.027050 *  -3.33043    1.000000    
    118 O1    s    0.750000 *  0.768940 *  0.027050 *  -3.73396    1.000000    
    119 O1    s    0.250000 *  0.231060 *  0.972950 *  -3.73396    1.000000    
    120 O1    s    0.250000 *  0.768940 *  0.972950 *  -3.73396    1.000000    
--------------------------------------------------------------------------------



********************************************************************************
*  General input information                                                   *
********************************************************************************

  Species output for all configurations : 

--------------------------------------------------------------------------------
  Species    Type    Atomic    Atomic    Charge       Radii (Angs)     Library
                     Number     Mass       (e)     Cova   Ionic  VDW   Symbol
--------------------------------------------------------------------------------
    Ge       Core       32      72.61   4.000000   1.170  0.000  1.750 Ge       
    Si       Core       14      28.09   4.000000   1.200  0.000  2.100 Si       
    O1       Core        8      16.00   1.733957   0.730  0.000  1.360 O1       
    O2       Core        8      16.00   0.870733   0.730  0.000  0.000 O2       
    O3       Core        8      16.00   1.330431   0.730  0.000  1.360 O3       
    O1       Shell       8       0.00  -3.733957   0.730  0.000  0.000 O1       
    O2       Shell       8       0.00  -2.870733   0.730  0.000  0.000 O2       
    O3       Shell       8       0.00  -3.330431   0.730  0.000  0.000 O3       
--------------------------------------------------------------------------------


  Lattice summation method               =    Ewald          (3-D)
                                         =    Parry          (2-D)
                                         =    Saunders et al (1-D)
  Accuracy factor for lattice sums       =   12.000


  Analytic derivatives to be used

  Time limit = Infinity

  Maximum range for interatomic potentials =    100000.000000 Angstroms

  General interatomic potentials :

--------------------------------------------------------------------------------
Atom  Types   Potential      Parameter       Value         Units   Cutoffs(Ang)
  1     2                                                            Min /  Max 
--------------------------------------------------------------------------------
Si   c O1   s Buckingham    Buckingham A     1315.2478    eV        0.000 16.000
                            Buckingham rho  0.31775900    Ang       
                            Buckingham C     10.141118    eV*Ang^6  
--------------------------------------------------------------------------------
Si   c O2   s Buckingham    Buckingham A     1315.2478    eV        0.000 16.000
                            Buckingham rho  0.31775900    Ang       
                            Buckingham C     10.141118    eV*Ang^6  
--------------------------------------------------------------------------------
Si   c O3   s Buckingham    Buckingham A     1315.2478    eV        0.000 16.000
                            Buckingham rho  0.31775900    Ang       
                            Buckingham C     10.141118    eV*Ang^6  
--------------------------------------------------------------------------------
Ge   c O1   s Buckingham    Buckingham A     1497.3996    eV        0.000 16.000
                            Buckingham rho  0.32564600    Ang       
                            Buckingham C     16.808599    eV*Ang^6  
--------------------------------------------------------------------------------
Ge   c O2   s Buckingham    Buckingham A     1497.3996    eV        0.000 16.000
                            Buckingham rho  0.32564600    Ang       
                            Buckingham C     16.808599    eV*Ang^6  
--------------------------------------------------------------------------------
Ge   c O3   s Buckingham    Buckingham A     1497.3996    eV        0.000 16.000
                            Buckingham rho  0.32564600    Ang       
                            Buckingham C     16.808599    eV*Ang^6  
--------------------------------------------------------------------------------
O1   s O1   s Buckingham    Buckingham A     22764.000    eV        0.000 16.000
                            Buckingham rho  0.14900000    Ang       
                            Buckingham C     10.937044    eV*Ang^6  
--------------------------------------------------------------------------------
O1   s O2   s Buckingham    Buckingham A     22764.000    eV        0.000 16.000
                            Buckingham rho  0.14900000    Ang       
                            Buckingham C     10.937044    eV*Ang^6  
--------------------------------------------------------------------------------
O1   s O3   s Buckingham    Buckingham A     22764.000    eV        0.000 16.000
                            Buckingham rho  0.14900000    Ang       
                            Buckingham C     10.937044    eV*Ang^6  
--------------------------------------------------------------------------------
O2   s O2   s Buckingham    Buckingham A     22764.000    eV        0.000 16.000
                            Buckingham rho  0.14900000    Ang       
                            Buckingham C     10.937044    eV*Ang^6  
--------------------------------------------------------------------------------
O2   s O3   s Buckingham    Buckingham A     22764.000    eV        0.000 16.000
                            Buckingham rho  0.14900000    Ang       
                            Buckingham C     10.937044    eV*Ang^6  
--------------------------------------------------------------------------------
O3   s O3   s Buckingham    Buckingham A     22764.000    eV        0.000 16.000
                            Buckingham rho  0.14900000    Ang       
                            Buckingham C     10.937044    eV*Ang^6  
--------------------------------------------------------------------------------
O1   c O1   s Spring (c-s)  Spring k 2       180.31577    eV*Ang^-2 0.000  0.800
                            Spring k 4       0.0000000    eV*Ang^-4 
--------------------------------------------------------------------------------
O2   c O2   s Spring (c-s)  Spring k 2       75.969800    eV*Ang^-2 0.000  0.800
                            Spring k 4       0.0000000    eV*Ang^-4 
--------------------------------------------------------------------------------
O3   c O3   s Spring (c-s)  Spring k 2       128.14270    eV*Ang^-2 0.000  0.800
                            Spring k 4       0.0000000    eV*Ang^-4 
--------------------------------------------------------------------------------

  General Three-body potentials :

--------------------------------------------------------------------------------
  Atoms       Potential      Parameter       Value         Units   Cutoffs(Ang)
  1 / 2 / 3                                                          Min /  Max 
--------------------------------------------------------------------------------
Si    core    Harmonic      Three-body cnst  1.2614000    eV*rad^-2 0.000  1.900
O1    shel                  Three-body angl  109.47000    degrees   0.000  1.900
O1    shel                  Three-body k4    0.0000000    eV*rad^-4 0.000  3.500
                            Three-body k3    0.0000000    eV*rad^-3 
--------------------------------------------------------------------------------
Si    core    Harmonic      Three-body cnst  1.2614000    eV*rad^-2 0.000  1.900
O1    shel                  Three-body angl  109.47000    degrees   0.000  1.900
õ(1   shel                  Three-body k4    0.0000000    eV*rad^-4 0.000  3.500
                            Three-body k3    0.0000000    eV*rad^-3 
--------------------------------------------------------------------------------
Si    core    Harmonic      Three-body cnst  1.2614000    eV*rad^-2 0.000  1.900
õ(1   shel                  Three-body angl  109.47000    degrees   0.000  1.900
õ(1   shel                  Three-body k4    0.0000000    eV*rad^-4 0.000  3.500
                            Three-body k3    0.0000000    eV*rad^-3 
--------------------------------------------------------------------------------
Si    core    Harmonic      Three-body cnst  1.2614000    eV*rad^-2 0.000  1.900
O1    shel                  Three-body angl  109.47000    degrees   0.000  1.900
O2    shel                  Three-body k4    0.0000000    eV*rad^-4 0.000  3.500
                            Three-body k3    0.0000000    eV*rad^-3 
--------------------------------------------------------------------------------
Si    core    Harmonic      Three-body cnst  1.2614000    eV*rad^-2 0.000  1.900
O1    shel                  Three-body angl  109.47000    degrees   0.000  1.900
õ(2   shel                  Three-body k4    0.0000000    eV*rad^-4 0.000  3.500
                            Three-body k3    0.0000000    eV*rad^-3 
--------------------------------------------------------------------------------
Si    core    Harmonic      Three-body cnst  1.2614000    eV*rad^-2 0.000  1.900
O2    shel                  Three-body angl  109.47000    degrees   0.000  1.900
õ(1   shel                  Three-body k4    0.0000000    eV*rad^-4 0.000  3.500
                            Three-body k3    0.0000000    eV*rad^-3 
--------------------------------------------------------------------------------
Si    core    Harmonic      Three-body cnst  1.2614000    eV*rad^-2 0.000  1.900
õ(1   shel                  Three-body angl  109.47000    degrees   0.000  1.900
õ(2   shel                  Three-body k4    0.0000000    eV*rad^-4 0.000  3.500
                            Three-body k3    0.0000000    eV*rad^-3 
--------------------------------------------------------------------------------
Si    core    Harmonic      Three-body cnst  1.2614000    eV*rad^-2 0.000  1.900
O2    shel                  Three-body angl  109.47000    degrees   0.000  1.900
O2    shel                  Three-body k4    0.0000000    eV*rad^-4 0.000  3.500
                            Three-body k3    0.0000000    eV*rad^-3 
--------------------------------------------------------------------------------
Si    core    Harmonic      Three-body cnst  1.2614000    eV*rad^-2 0.000  1.900
O2    shel                  Three-body angl  109.47000    degrees   0.000  1.900
õ(2   shel                  Three-body k4    0.0000000    eV*rad^-4 0.000  3.500
                            Three-body k3    0.0000000    eV*rad^-3 
--------------------------------------------------------------------------------
Si    core    Harmonic      Three-body cnst  1.2614000    eV*rad^-2 0.000  1.900
õ(2   shel                  Three-body angl  109.47000    degrees   0.000  1.900
õ(2   shel                  Three-body k4    0.0000000    eV*rad^-4 0.000  3.500
                            Three-body k3    0.0000000    eV*rad^-3 
--------------------------------------------------------------------------------

********************************************************************************
*  Output for configuration   1 : c00015.vasp                                  *
********************************************************************************


  Components of energy : 

--------------------------------------------------------------------------------
  Interatomic potentials     =         912.64032029 eV    
  Three-body potentials      =           0.00000000 eV    
  Monopole - monopole (real) =       -2676.00317478 eV    
  Monopole - monopole (recip)=       -1115.35404472 eV    
  Monopole - monopole (total)=       -3791.35721950 eV    
--------------------------------------------------------------------------------
  Total lattice energy       =       -2878.71689922 eV    
--------------------------------------------------------------------------------
  Total lattice energy       =         -277752.1756 kJ/(mole unit cells)
--------------------------------------------------------------------------------


  Number of variables =      363

  Maximum number of calculations  =          1000
  Maximum Hessian update interval =            10
  Maximum step size               =   0.100000000
  Maximum parameter tolerance     =   0.000010000
  Maximum function  tolerance     =   0.000010000
  Maximum gradient  tolerance     =   0.001000000
  Maximum gradient  component     =   0.010000000

  Symmetry not applied to optimisation

  Cell parameters to be optimised using strains

  Newton-Raphson optimiser to be used

  BFGS hessian update to be used

  Lower half triangular hessian to be used

  Minimiser to switch to RFO
  When gradient norm is less than     0.050000

  Dumpfile to be written after every cycle

  Start of bulk optimisation :

  Cycle:      0 Energy:     -2878.716899  Gnorm:      5.963726  CPU:    0.099
  ** Hessian calculated **
  Cycle:      1 Energy:     -2924.603003  Gnorm:      1.442775  CPU:    0.227
  ** Hessian calculated **
  Cycle:      2 Energy:     -2930.968725  Gnorm:      0.516181  CPU:    0.450
  ** Hessian calculated **
  Cycle:      3 Energy:     -2931.658509  Gnorm:      0.232015  CPU:    0.624
  Cycle:      4 Energy:     -2931.786483  Gnorm:      0.100363  CPU:    0.712
  Cycle:      5 Energy:     -2931.832606  Gnorm:      0.080671  CPU:    0.815
  Cycle:      6 Energy:     -2931.885598  Gnorm:      0.069992  CPU:    0.919
  Cycle:      7 Energy:     -2931.934242  Gnorm:      0.074271  CPU:    1.022
  Cycle:      8 Energy:     -2931.961766  Gnorm:      0.057009  CPU:    1.109
  Cycle:      9 Energy:     -2931.981910  Gnorm:      0.053734  CPU:    1.212
  Cycle:     10 Energy:     -2931.997590  Gnorm:      0.046147  CPU:    1.315
  ** Hessian has required structure
  Cycle:     11 Energy:     -2932.010840  Gnorm:      0.120621  CPU:    1.442
  ** Hessian has required structure
  Cycle:     12 Energy:     -2932.033632  Gnorm:      0.092020  CPU:    1.583
  ** Hessian has wrong structure
  ** Imaginary eigenvectors =   6
  ** Hessian has wrong structure
  ** Imaginary eigenvectors =   6
  Cycle:     13 Energy:     -2932.046244  Gnorm:      0.091740  CPU:    2.125
  ** Hessian has wrong structure
  ** Imaginary eigenvectors =   6
  ** Hessian has wrong structure
  ** Imaginary eigenvectors =   6
  Cycle:     14 Energy:     -2932.080453  Gnorm:      0.092361  CPU:    2.653
  ** Hessian has wrong structure
  ** Imaginary eigenvectors =   6
  ** Hessian has wrong structure
  ** Imaginary eigenvectors =   6
  Cycle:     15 Energy:     -2932.144825  Gnorm:      0.093108  CPU:    3.099
  ** Hessian has wrong structure
  ** Imaginary eigenvectors =   6
  Cycle:     16 Energy:     -2932.258738  Gnorm:      0.100236  CPU:    3.368
  ** Hessian has wrong structure
  ** Imaginary eigenvectors =   4
  Cycle:     17 Energy:     -2932.453188  Gnorm:      0.112496  CPU:    3.714
  ** Hessian has wrong structure
  ** Imaginary eigenvectors =   2
  ** Hessian has wrong structure
  ** Imaginary eigenvectors =   2
  Cycle:     18 Energy:     -2932.506781  Gnorm:      0.116373  CPU:    4.208
  ** Hessian has wrong structure
  ** Imaginary eigenvectors =   1
  ** Hessian has required structure
  Cycle:     19 Energy:     -2932.905897  Gnorm:      0.097531  CPU:    4.672
  ** Hessian has required structure
  Cycle:     20 Energy:     -2933.143810  Gnorm:      0.069227  CPU:    4.811
  ** Hessian has required structure
  Cycle:     21 Energy:     -2933.219320  Gnorm:      0.067524  CPU:    4.951
  ** Hessian has required structure
  Cycle:     22 Energy:     -2933.301851  Gnorm:      0.036709  CPU:    5.092
  ** Hessian has required structure
  Cycle:     23 Energy:     -2933.331162  Gnorm:      0.067231  CPU:    5.231
  ** Hessian has required structure
  Cycle:     24 Energy:     -2933.353198  Gnorm:      0.052563  CPU:    5.371
  ** Hessian has required structure
  Cycle:     25 Energy:     -2933.373346  Gnorm:      0.046913  CPU:    5.510
  ** Hessian has required structure
  Cycle:     26 Energy:     -2933.390683  Gnorm:      0.034466  CPU:    5.650
  ** Hessian has required structure
  Cycle:     27 Energy:     -2933.400090  Gnorm:      0.027374  CPU:    5.790
  ** Hessian has required structure
  Cycle:     28 Energy:     -2933.405407  Gnorm:      0.018349  CPU:    5.930
  ** Hessian has required structure
  Cycle:     29 Energy:     -2933.409262  Gnorm:      0.009438  CPU:    6.165
  ** Hessian has required structure
  Cycle:     30 Energy:     -2933.410274  Gnorm:      0.004935  CPU:    6.319
  ** Hessian has required structure
  Cycle:     31 Energy:     -2933.410555  Gnorm:      0.002508  CPU:    6.473
  ** Hessian has required structure
  Cycle:     32 Energy:     -2933.410631  Gnorm:      0.001268  CPU:    6.629
  ** Hessian has required structure
  Cycle:     33 Energy:     -2933.410651  Gnorm:      0.000637  CPU:    6.783
  ** Hessian has required structure
  Cycle:     34 Energy:     -2933.410655  Gnorm:      0.000453  CPU:    6.906
  ** Hessian has required structure
  Cycle:     35 Energy:     -2933.410655  Gnorm:      0.000408  CPU:    7.029
  ** Hessian has required structure
  Cycle:     36 Energy:     -2933.410655  Gnorm:      0.000406  CPU:    7.230
  ** Hessian has required structure
  Cycle:     37 Energy:     -2933.410655  Gnorm:      0.000410  CPU:    7.401
  ** Hessian has required structure
  Cycle:     38 Energy:     -2933.410655  Gnorm:      0.000407  CPU:    7.570
  ** Hessian has required structure
  Cycle:     39 Energy:     -2933.410655  Gnorm:      0.000409  CPU:    7.867
  ** Hessian has required structure
  Cycle:     40 Energy:     -2933.410655  Gnorm:      0.000408  CPU:    8.004
  ** Hessian has required structure
  Cycle:     41 Energy:     -2933.410655  Gnorm:      0.000407  CPU:    8.127
  ** Hessian has required structure
  Cycle:     42 Energy:     -2933.410655  Gnorm:      0.000406  CPU:    8.249
  ** Hessian has required structure
  Cycle:     43 Energy:     -2933.410655  Gnorm:      0.000406  CPU:    8.388
  ** Hessian has required structure
  Cycle:     44 Energy:     -2933.410655  Gnorm:      0.000406  CPU:    8.511
  ** Hessian has required structure
  Cycle:     45 Energy:     -2933.410655  Gnorm:      0.000406  CPU:    8.634
  ** Hessian has required structure
  Cycle:     46 Energy:     -2933.410654  Gnorm:      0.000399  CPU:    8.836
  ** Hessian has required structure
  Cycle:     47 Energy:     -2933.410655  Gnorm:      0.000439  CPU:    9.036
  ** Hessian has required structure
  Cycle:     48 Energy:     -2933.410655  Gnorm:      0.000410  CPU:    9.190
  ** Hessian has required structure
  Cycle:     49 Energy:     -2933.410655  Gnorm:      0.000411  CPU:    9.376
  ** Hessian has required structure
  Cycle:     50 Energy:     -2933.410655  Gnorm:      0.000403  CPU:    9.531
  ** Hessian has required structure
  Cycle:     51 Energy:     -2933.410654  Gnorm:      0.000394  CPU:    9.748
  ** Hessian has required structure
  Cycle:     52 Energy:     -2933.410655  Gnorm:      0.000433  CPU:    9.949
  ** Hessian has required structure
  Cycle:     53 Energy:     -2933.410655  Gnorm:      0.000405  CPU:   10.103
  ** Hessian has required structure
  Cycle:     54 Energy:     -2933.410655  Gnorm:      0.000405  CPU:   10.289
  ** Hessian has required structure
  Cycle:     55 Energy:     -2933.410655  Gnorm:      0.000402  CPU:   10.443
  ** Hessian has required structure
  Cycle:     56 Energy:     -2933.410655  Gnorm:      0.000400  CPU:   10.582
  ** Hessian has required structure
  Cycle:     57 Energy:     -2933.410655  Gnorm:      0.000400  CPU:   10.704
  ** Hessian has required structure
  Cycle:     58 Energy:     -2933.410654  Gnorm:      0.000392  CPU:   10.904
  ** Hessian has required structure
  Cycle:     59 Energy:     -2933.410655  Gnorm:      0.000431  CPU:   11.104
  ** Hessian has required structure
  Cycle:     60 Energy:     -2933.410655  Gnorm:      0.000403  CPU:   11.257
  ** Hessian has required structure
  Cycle:     61 Energy:     -2933.410655  Gnorm:      0.000403  CPU:   11.442
  ** Hessian has required structure
  Cycle:     62 Energy:     -2933.410655  Gnorm:      0.000398  CPU:   11.595
  ** Hessian has required structure
  Cycle:     63 Energy:     -2933.410654  Gnorm:      0.000393  CPU:   11.811
  ** Hessian has required structure
  Cycle:     64 Energy:     -2933.410655  Gnorm:      0.000432  CPU:   12.010
  ** Hessian has required structure
  Cycle:     65 Energy:     -2933.410655  Gnorm:      0.000413  CPU:   12.130
  ** Hessian has required structure
  Cycle:     66 Energy:     -2933.410655  Gnorm:      0.000403  CPU:   12.268
  ** Hessian has required structure
  Cycle:     67 Energy:     -2933.410655  Gnorm:      0.000398  CPU:   12.405
  ** Hessian has required structure
  Cycle:     68 Energy:     -2933.410655  Gnorm:      0.000402  CPU:   12.606
  ** Hessian has required structure
  Cycle:     69 Energy:     -2933.410655  Gnorm:      0.000402  CPU:   12.901
  ** Hessian has required structure
  Cycle:     70 Energy:     -2933.410655  Gnorm:      0.000400  CPU:   13.021
  ** Hessian has required structure
  Cycle:     71 Energy:     -2933.410655  Gnorm:      0.000399  CPU:   13.142
  ** Hessian has required structure
  Cycle:     72 Energy:     -2933.410655  Gnorm:      0.000399  CPU:   13.264
  ** Hessian has required structure
  Cycle:     73 Energy:     -2933.410655  Gnorm:      0.000399  CPU:   13.386
  ** Hessian has required structure
  Cycle:     74 Energy:     -2933.410655  Gnorm:      0.000399  CPU:   13.508
  ** Hessian has required structure
  Cycle:     75 Energy:     -2933.410655  Gnorm:      0.000398  CPU:   13.629
  ** Hessian has required structure
  Cycle:     76 Energy:     -2933.410655  Gnorm:      0.000398  CPU:   13.750
  ** Hessian has required structure
  Cycle:     77 Energy:     -2933.410655  Gnorm:      0.000398  CPU:   13.871
  ** Hessian has required structure
  Cycle:     78 Energy:     -2933.410655  Gnorm:      0.000398  CPU:   13.993
  ** Hessian has required structure
  Cycle:     79 Energy:     -2933.410655  Gnorm:      0.000399  CPU:   14.267
  ** Hessian has required structure
  Cycle:     80 Energy:     -2933.410654  Gnorm:      0.000398  CPU:   14.450
  ** Hessian has required structure
  Cycle:     81 Energy:     -2933.410655  Gnorm:      0.000437  CPU:   14.635
  ** Hessian has required structure
  Cycle:     82 Energy:     -2933.410655  Gnorm:      0.000417  CPU:   14.746
  ** Hessian has required structure
  Cycle:     83 Energy:     -2933.410655  Gnorm:      0.000402  CPU:   14.887
  ** Hessian has required structure
  Cycle:     84 Energy:     -2933.410655  Gnorm:      0.000401  CPU:   15.057
  ** Hessian has required structure
  Cycle:     85 Energy:     -2933.410655  Gnorm:      0.000400  CPU:   15.169
  ** Hessian has required structure
  Cycle:     86 Energy:     -2933.410655  Gnorm:      0.000399  CPU:   15.281
  ** Hessian has required structure
  Cycle:     87 Energy:     -2933.410654  Gnorm:      0.000395  CPU:   15.464
  ** Hessian has required structure
  Cycle:     88 Energy:     -2933.410655  Gnorm:      0.000435  CPU:   15.648
  ** Hessian has required structure
  Cycle:     89 Energy:     -2933.410655  Gnorm:      0.000415  CPU:   15.760
  ** Hessian has required structure
  Cycle:     90 Energy:     -2933.410655  Gnorm:      0.000400  CPU:   15.901
  ** Hessian has required structure
  Cycle:     91 Energy:     -2933.410655  Gnorm:      0.000406  CPU:   16.085
  ** Hessian has required structure
  Cycle:     92 Energy:     -2933.410655  Gnorm:      0.000401  CPU:   16.284
  ** Hessian has required structure
  Cycle:     93 Energy:     -2933.410655  Gnorm:      0.000400  CPU:   16.395
  ** Hessian has required structure
  Cycle:     94 Energy:     -2933.410655  Gnorm:      0.000400  CPU:   16.507
  ** Hessian has required structure
  Cycle:     95 Energy:     -2933.410655  Gnorm:      0.000400  CPU:   16.619
  ** Hessian has required structure
  Cycle:     96 Energy:     -2933.410654  Gnorm:      0.000395  CPU:   16.804
  ** Hessian has required structure
  Cycle:     97 Energy:     -2933.410655  Gnorm:      0.000434  CPU:   16.989
  ** Hessian has required structure
  Cycle:     98 Energy:     -2933.410655  Gnorm:      0.000415  CPU:   17.103
  ** Hessian has required structure
  Cycle:     99 Energy:     -2933.410655  Gnorm:      0.000399  CPU:   17.245
  ** Hessian has required structure
  Cycle:    100 Energy:     -2933.410655  Gnorm:      0.000405  CPU:   17.430
  ** Hessian has required structure
  Cycle:    101 Energy:     -2933.410655  Gnorm:      0.000401  CPU:   17.630
  ** Hessian has required structure
  Cycle:    102 Energy:     -2933.410654  Gnorm:      0.000398  CPU:   17.815
  ** Hessian has required structure
  Cycle:    103 Energy:     -2933.410655  Gnorm:      0.000437  CPU:   18.002
  ** Hessian has required structure
  Cycle:    104 Energy:     -2933.410655  Gnorm:      0.000418  CPU:   18.115
  ** Hessian has required structure
  Cycle:    105 Energy:     -2933.410655  Gnorm:      0.000402  CPU:   18.256
  ** Hessian has required structure
  Cycle:    106 Energy:     -2933.410655  Gnorm:      0.000401  CPU:   18.427
  ** Hessian has required structure
  Cycle:    107 Energy:     -2933.410654  Gnorm:      0.000398  CPU:   18.613
  ** Hessian has required structure
  Cycle:    108 Energy:     -2933.410655  Gnorm:      0.000438  CPU:   18.799
  ** Hessian has required structure
  Cycle:    109 Energy:     -2933.410655  Gnorm:      0.000418  CPU:   18.914
  ** Hessian has required structure
  Cycle:    110 Energy:     -2933.410655  Gnorm:      0.000403  CPU:   19.055
  ** Hessian has required structure
  Cycle:    111 Energy:     -2933.410655  Gnorm:      0.000401  CPU:   19.226
  ** Hessian has required structure
  Cycle:    112 Energy:     -2933.410655  Gnorm:      0.000400  CPU:   19.338
  ** Hessian has required structure
  Cycle:    113 Energy:     -2933.410654  Gnorm:      0.000397  CPU:   19.524
  ** Hessian has required structure
  Cycle:    114 Energy:     -2933.410655  Gnorm:      0.000436  CPU:   19.708
  ** Hessian has required structure
  Cycle:    115 Energy:     -2933.410655  Gnorm:      0.000417  CPU:   19.821
  ** Hessian has required structure
  Cycle:    116 Energy:     -2933.410655  Gnorm:      0.000401  CPU:   19.962
  ** Hessian has required structure
  Cycle:    117 Energy:     -2933.410655  Gnorm:      0.000407  CPU:   20.147
  ** Hessian has required structure
  Cycle:    118 Energy:     -2933.410655  Gnorm:      0.000403  CPU:   20.346
  ** Hessian has required structure
  Cycle:    119 Energy:     -2933.410655  Gnorm:      0.000401  CPU:   20.458
  ** Hessian has required structure
  Cycle:    120 Energy:     -2933.410655  Gnorm:      0.000401  CPU:   20.570
  ** Hessian has required structure
  Cycle:    121 Energy:     -2933.410654  Gnorm:      0.000396  CPU:   20.755
  ** Hessian has required structure
  Cycle:    122 Energy:     -2933.410655  Gnorm:      0.000435  CPU:   20.940
  ** Hessian has required structure
  Cycle:    123 Energy:     -2933.410655  Gnorm:      0.000415  CPU:   21.052
  ** Hessian has required structure
  Cycle:    124 Energy:     -2933.410655  Gnorm:      0.000400  CPU:   21.194
  ** Hessian has required structure
  Cycle:    125 Energy:     -2933.410655  Gnorm:      0.000406  CPU:   21.379
  ** Hessian has required structure
  Cycle:    126 Energy:     -2933.410655  Gnorm:      0.000402  CPU:   21.577
  ** Hessian has required structure
  Cycle:    127 Energy:     -2933.410654  Gnorm:      0.000398  CPU:   21.760
  ** Hessian has required structure
  Cycle:    128 Energy:     -2933.410655  Gnorm:      0.000438  CPU:   21.958
  ** Hessian has required structure
  Cycle:    129 Energy:     -2933.410655  Gnorm:      0.000418  CPU:   22.077
  ** Hessian has required structure
  Cycle:    130 Energy:     -2933.410655  Gnorm:      0.000403  CPU:   22.226
  ** Hessian has required structure
  Cycle:    131 Energy:     -2933.410655  Gnorm:      0.000401  CPU:   22.406
  ** Hessian has required structure
  Cycle:    132 Energy:     -2933.410654  Gnorm:      0.000399  CPU:   22.600
  ** Hessian has required structure
  Cycle:    133 Energy:     -2933.410655  Gnorm:      0.000439  CPU:   22.787
  ** Hessian has required structure
  Cycle:    134 Energy:     -2933.410655  Gnorm:      0.000419  CPU:   22.901
  ** Hessian has required structure
  Cycle:    135 Energy:     -2933.410655  Gnorm:      0.000403  CPU:   23.052
  ** Hessian has required structure
  Cycle:    136 Energy:     -2933.410655  Gnorm:      0.000402  CPU:   23.234
  ** Hessian has required structure
  Cycle:    137 Energy:     -2933.410654  Gnorm:      0.000399  CPU:   23.431
  ** Hessian has required structure
  Cycle:    138 Energy:     -2933.410655  Gnorm:      0.000439  CPU:   23.627
  ** Hessian has required structure
  Cycle:    139 Energy:     -2933.410655  Gnorm:      0.000419  CPU:   23.748
  ** Hessian has required structure
  Cycle:    140 Energy:     -2933.410655  Gnorm:      0.000404  CPU:   23.898
  ** Hessian has required structure
  Cycle:    141 Energy:     -2933.410655  Gnorm:      0.000402  CPU:   24.079
  ** Hessian has required structure
  Cycle:    142 Energy:     -2933.410654  Gnorm:      0.000399  CPU:   24.276
  ** Hessian has required structure
  Cycle:    143 Energy:     -2933.410655  Gnorm:      0.000439  CPU:   24.473
  ** Hessian has required structure
  Cycle:    144 Energy:     -2933.410655  Gnorm:      0.000419  CPU:   24.594
  ** Hessian has required structure
  Cycle:    145 Energy:     -2933.410655  Gnorm:      0.000404  CPU:   24.744
  ** Hessian has required structure
  Cycle:    146 Energy:     -2933.410655  Gnorm:      0.000402  CPU:   24.926
  ** Hessian has required structure
  Cycle:    147 Energy:     -2933.410655  Gnorm:      0.000401  CPU:   25.046
  ** Hessian has required structure
  Cycle:    148 Energy:     -2933.410654  Gnorm:      0.000398  CPU:   25.242
  ** Hessian has required structure
  Cycle:    149 Energy:     -2933.410655  Gnorm:      0.000437  CPU:   25.437
  ** Hessian has required structure
  Cycle:    150 Energy:     -2933.410655  Gnorm:      0.000418  CPU:   25.557
  ** Hessian has required structure
  Cycle:    151 Energy:     -2933.410655  Gnorm:      0.000402  CPU:   25.707
  ** Hessian has required structure
  Cycle:    152 Energy:     -2933.410655  Gnorm:      0.000407  CPU:   25.903
  ** Hessian has required structure
  Cycle:    153 Energy:     -2933.410655  Gnorm:      0.000403  CPU:   26.114
  ** Hessian has required structure
  Cycle:    154 Energy:     -2933.410655  Gnorm:      0.000402  CPU:   26.234
  ** Hessian has required structure
  Cycle:    155 Energy:     -2933.410654  Gnorm:      0.000397  CPU:   26.430
  ** Hessian has required structure
  Cycle:    156 Energy:     -2933.410655  Gnorm:      0.000437  CPU:   26.626
  ** Hessian has required structure
  Cycle:    157 Energy:     -2933.410655  Gnorm:      0.000417  CPU:   26.745
  ** Hessian has required structure
  Cycle:    158 Energy:     -2933.410655  Gnorm:      0.000402  CPU:   26.895
  ** Hessian has required structure
  Cycle:    159 Energy:     -2933.410655  Gnorm:      0.000407  CPU:   27.091
  ** Hessian has required structure
  Cycle:    160 Energy:     -2933.410655  Gnorm:      0.000403  CPU:   27.292
  ** Hessian has required structure
  Cycle:    161 Energy:     -2933.410654  Gnorm:      0.000399  CPU:   27.480
  ** Hessian has required structure
  Cycle:    162 Energy:     -2933.410655  Gnorm:      0.000439  CPU:   27.665
  ** Hessian has required structure
  Cycle:    163 Energy:     -2933.410655  Gnorm:      0.000419  CPU:   27.778
  ** Hessian has required structure
  Cycle:    164 Energy:     -2933.410655  Gnorm:      0.000404  CPU:   27.921
  ** Hessian has required structure
  Cycle:    165 Energy:     -2933.410655  Gnorm:      0.000402  CPU:   28.093
  ** Hessian has required structure
  Cycle:    166 Energy:     -2933.410654  Gnorm:      0.000399  CPU:   28.280
  ** Hessian has required structure
  Cycle:    167 Energy:     -2933.410655  Gnorm:      0.000439  CPU:   28.464
  ** Hessian has required structure
  Cycle:    168 Energy:     -2933.410655  Gnorm:      0.000419  CPU:   28.577
  ** Hessian has required structure
  Cycle:    169 Energy:     -2933.410655  Gnorm:      0.000404  CPU:   28.719
  ** Hessian has required structure
  Cycle:    170 Energy:     -2933.410655  Gnorm:      0.000402  CPU:   28.891
  ** Hessian has required structure
  Cycle:    171 Energy:     -2933.410654  Gnorm:      0.000400  CPU:   29.076
  ** Hessian has required structure
  Cycle:    172 Energy:     -2933.410655  Gnorm:      0.000440  CPU:   29.260
  ** Hessian has required structure
  Cycle:    173 Energy:     -2933.410655  Gnorm:      0.000420  CPU:   29.374
  ** Hessian has required structure
  Cycle:    174 Energy:     -2933.410655  Gnorm:      0.000404  CPU:   29.517
  ** Hessian has required structure
  Cycle:    175 Energy:     -2933.410655  Gnorm:      0.000402  CPU:   29.689
  ** Hessian has required structure
  Cycle:    176 Energy:     -2933.410654  Gnorm:      0.000400  CPU:   29.877
  ** Hessian has required structure
  Cycle:    177 Energy:     -2933.410655  Gnorm:      0.000440  CPU:   30.063
  ** Hessian has required structure
  Cycle:    178 Energy:     -2933.410655  Gnorm:      0.000420  CPU:   30.176
  ** Hessian has required structure
  Cycle:    179 Energy:     -2933.410655  Gnorm:      0.000404  CPU:   30.320
  ** Hessian has required structure
  Cycle:    180 Energy:     -2933.410655  Gnorm:      0.000402  CPU:   30.493
  ** Hessian has required structure
  Cycle:    181 Energy:     -2933.410654  Gnorm:      0.000400  CPU:   30.682
  ** Hessian has required structure
  Cycle:    182 Energy:     -2933.410655  Gnorm:      0.000440  CPU:   30.870
  ** Hessian has required structure
  Cycle:    183 Energy:     -2933.410655  Gnorm:      0.000420  CPU:   30.984
  ** Hessian has required structure
  Cycle:    184 Energy:     -2933.410655  Gnorm:      0.000404  CPU:   31.127
  ** Hessian has required structure
  Cycle:    185 Energy:     -2933.410655  Gnorm:      0.000402  CPU:   31.301
  ** Hessian has required structure
  Cycle:    186 Energy:     -2933.410654  Gnorm:      0.000400  CPU:   31.488
  ** Hessian has required structure
  Cycle:    187 Energy:     -2933.410655  Gnorm:      0.000440  CPU:   31.675
  ** Hessian has required structure
  Cycle:    188 Energy:     -2933.410655  Gnorm:      0.000420  CPU:   31.789
  ** Hessian has required structure
  Cycle:    189 Energy:     -2933.410655  Gnorm:      0.000404  CPU:   31.933
  ** Hessian has required structure
  Cycle:    190 Energy:     -2933.410655  Gnorm:      0.000402  CPU:   32.106
  ** Hessian has required structure
  Cycle:    191 Energy:     -2933.410654  Gnorm:      0.000400  CPU:   32.296
  ** Hessian has required structure
  Cycle:    192 Energy:     -2933.410655  Gnorm:      0.000440  CPU:   32.485
  ** Hessian has required structure
  Cycle:    193 Energy:     -2933.410655  Gnorm:      0.000420  CPU:   32.599
  ** Hessian has required structure
  Cycle:    194 Energy:     -2933.410655  Gnorm:      0.000404  CPU:   32.745
  ** Hessian has required structure
  Cycle:    195 Energy:     -2933.410655  Gnorm:      0.000409  CPU:   32.933
  ** Hessian has required structure
  Cycle:    196 Energy:     -2933.410655  Gnorm:      0.000404  CPU:   33.134
  ** Hessian has required structure
  Cycle:    197 Energy:     -2933.410655  Gnorm:      0.000403  CPU:   33.248
  ** Hessian has required structure
  Cycle:    198 Energy:     -2933.410655  Gnorm:      0.000403  CPU:   33.363
  ** Hessian has required structure
  Cycle:    199 Energy:     -2933.410654  Gnorm:      0.000398  CPU:   33.552
  ** Hessian has required structure
  Cycle:    200 Energy:     -2933.410655  Gnorm:      0.000438  CPU:   33.738
  ** Hessian has required structure
  Cycle:    201 Energy:     -2933.410655  Gnorm:      0.000418  CPU:   33.852
  ** Hessian has required structure
  Cycle:    202 Energy:     -2933.410655  Gnorm:      0.000408  CPU:   33.980
  ** Hessian has required structure
  Cycle:    203 Energy:     -2933.410655  Gnorm:      0.000403  CPU:   34.109
  ** Hessian has required structure
  Cycle:    204 Energy:     -2933.410655  Gnorm:      0.000407  CPU:   34.295
  ** Hessian has required structure
  Cycle:    205 Energy:     -2933.410655  Gnorm:      0.000407  CPU:   34.569
  ** Hessian has required structure
  Cycle:    206 Energy:     -2933.410655  Gnorm:      0.000404  CPU:   34.682
  ** Hessian has required structure
  Cycle:    207 Energy:     -2933.410655  Gnorm:      0.000403  CPU:   34.796
  ** Hessian has required structure
  Cycle:    208 Energy:     -2933.410654  Gnorm:      0.000398  CPU:   34.984
  ** Hessian has required structure
  Cycle:    209 Energy:     -2933.410655  Gnorm:      0.000438  CPU:   35.172
  ** Hessian has required structure
  Cycle:    210 Energy:     -2933.410655  Gnorm:      0.000418  CPU:   35.284
  ** Hessian has required structure
  Cycle:    211 Energy:     -2933.410655  Gnorm:      0.000408  CPU:   35.415
  ** Hessian has required structure
  Cycle:    212 Energy:     -2933.410655  Gnorm:      0.000403  CPU:   35.550
  ** Hessian has required structure
  Cycle:    213 Energy:     -2933.410655  Gnorm:      0.000408  CPU:   35.744
  ** Hessian has required structure
  Cycle:    214 Energy:     -2933.410655  Gnorm:      0.000408  CPU:   36.033
  ** Hessian has required structure
  Cycle:    215 Energy:     -2933.410655  Gnorm:      0.000406  CPU:   36.167
  ** Hessian has required structure
  Cycle:    216 Energy:     -2933.410655  Gnorm:      0.000405  CPU:   36.287
  ** Hessian has required structure
  Cycle:    217 Energy:     -2933.410655  Gnorm:      0.000404  CPU:   36.421
  ** Hessian has required structure
  Cycle:    218 Energy:     -2933.410654  Gnorm:      0.000399  CPU:   36.616
  ** Hessian has required structure
  Cycle:    219 Energy:     -2933.410655  Gnorm:      0.000439  CPU:   36.816
  ** Hessian has required structure
  Cycle:    220 Energy:     -2933.410655  Gnorm:      0.000419  CPU:   36.936
  ** Hessian has required structure
  Cycle:    221 Energy:     -2933.410655  Gnorm:      0.000409  CPU:   37.071
  ** Hessian has required structure
  Cycle:    222 Energy:     -2933.410655  Gnorm:      0.000404  CPU:   37.206
  ** Hessian has required structure
  Cycle:    223 Energy:     -2933.410655  Gnorm:      0.000408  CPU:   37.402
  ** Hessian has required structure
  Cycle:    224 Energy:     -2933.410655  Gnorm:      0.000408  CPU:   37.693
  ** Hessian has required structure
  Cycle:    225 Energy:     -2933.410655  Gnorm:      0.000407  CPU:   37.827
  ** Hessian has required structure
  Cycle:    226 Energy:     -2933.410655  Gnorm:      0.000406  CPU:   37.954
  ** Hessian has required structure
  Cycle:    227 Energy:     -2933.410655  Gnorm:      0.000406  CPU:   38.063
  ** Hessian has required structure
  Cycle:    228 Energy:     -2933.410655  Gnorm:      0.000405  CPU:   38.173
  ** Hessian has required structure
  Cycle:    229 Energy:     -2933.410655  Gnorm:      0.000405  CPU:   38.292
  ** Hessian has required structure
  Cycle:    230 Energy:     -2933.410655  Gnorm:      0.000405  CPU:   38.412
  ** Hessian has required structure
  Cycle:    231 Energy:     -2933.410655  Gnorm:      0.000405  CPU:   38.533
  ** Hessian has required structure
  Cycle:    232 Energy:     -2933.410654  Gnorm:      0.000399  CPU:   38.731
  ** Hessian has required structure
  Cycle:    233 Energy:     -2933.410655  Gnorm:      0.000439  CPU:   38.930
  ** Hessian has required structure
  Cycle:    234 Energy:     -2933.410655  Gnorm:      0.000419  CPU:   39.052
  ** Hessian has required structure
  Cycle:    235 Energy:     -2933.410655  Gnorm:      0.000409  CPU:   39.190
  ** Hessian has required structure
  Cycle:    236 Energy:     -2933.410655  Gnorm:      0.000404  CPU:   39.326
  ** Hessian has required structure
  Cycle:    237 Energy:     -2933.410655  Gnorm:      0.000409  CPU:   39.524
  ** Hessian has required structure
  Cycle:    238 Energy:     -2933.410655  Gnorm:      0.000409  CPU:   39.808
  ** Hessian has required structure
  Cycle:    239 Energy:     -2933.410655  Gnorm:      0.000408  CPU:   39.936
  ** Hessian has required structure
  Cycle:    240 Energy:     -2933.410655  Gnorm:      0.000406  CPU:   40.049
  ** Hessian has required structure
  Cycle:    241 Energy:     -2933.410655  Gnorm:      0.000406  CPU:   40.163
  ** Hessian has required structure
  Cycle:    242 Energy:     -2933.410655  Gnorm:      0.000406  CPU:   40.274
  ** Hessian has required structure
  Cycle:    243 Energy:     -2933.410655  Gnorm:      0.000405  CPU:   40.386
  ** Hessian has required structure
  Cycle:    244 Energy:     -2933.410655  Gnorm:      0.000405  CPU:   40.499
  ** Hessian has required structure
  Cycle:    245 Energy:     -2933.410655  Gnorm:      0.000405  CPU:   40.611
  ** Hessian has required structure
  Cycle:    246 Energy:     -2933.410655  Gnorm:      0.000405  CPU:   40.725
  ** Hessian has required structure
  Cycle:    247 Energy:     -2933.410655  Gnorm:      0.000405  CPU:   40.838
  ** Hessian has required structure
  Cycle:    248 Energy:     -2933.410655  Gnorm:      0.000409  CPU:   41.135
  ** Hessian calculated **
  Cycle:    249 Energy:     -2933.410656  Gnorm:      0.000204  CPU:   41.289
  ** Hessian has required structure
  Cycle:    250 Energy:     -2933.410656  Gnorm:      0.000302  CPU:   41.411
  ** Hessian has required structure
  Cycle:    251 Energy:     -2933.410656  Gnorm:      0.000342  CPU:   41.532
  ** Hessian has required structure
  Cycle:    252 Energy:     -2933.410656  Gnorm:      0.000331  CPU:   41.654
  ** Hessian has required structure
  Cycle:    253 Energy:     -2933.410656  Gnorm:      0.000299  CPU:   41.773
  ** Hessian has required structure
  Cycle:    254 Energy:     -2933.410656  Gnorm:      0.000337  CPU:   41.893
  ** Hessian has required structure
  Cycle:    255 Energy:     -2933.410656  Gnorm:      0.000340  CPU:   42.013
  ** Hessian has required structure
  Cycle:    256 Energy:     -2933.410656  Gnorm:      0.000291  CPU:   42.132
  ** Hessian has required structure
  Cycle:    257 Energy:     -2933.410656  Gnorm:      0.000259  CPU:   42.251
  ** Hessian has required structure
  Cycle:    258 Energy:     -2933.410656  Gnorm:      0.000259  CPU:   42.371
  ** Hessian has required structure
  Cycle:    259 Energy:     -2933.410656  Gnorm:      0.000259  CPU:   42.584
  ** Hessian has required structure
  Cycle:    260 Energy:     -2933.410656  Gnorm:      0.000259  CPU:   42.703
  ** Hessian has required structure
  Cycle:    261 Energy:     -2933.410656  Gnorm:      0.000259  CPU:   42.822
  ** Hessian has required structure
  Cycle:    262 Energy:     -2933.410656  Gnorm:      0.000259  CPU:   42.943
  ** Hessian has required structure
  Cycle:    263 Energy:     -2933.410655  Gnorm:      0.000258  CPU:   43.152
  ** Hessian has required structure
  Cycle:    264 Energy:     -2933.410656  Gnorm:      0.000283  CPU:   43.350
  ** Hessian has required structure
  Cycle:    265 Energy:     -2933.410656  Gnorm:      0.000271  CPU:   43.469
  ** Hessian has required structure
  Cycle:    266 Energy:     -2933.410656  Gnorm:      0.000260  CPU:   43.618
  ** Hessian has required structure
  Cycle:    267 Energy:     -2933.410656  Gnorm:      0.000262  CPU:   43.797
  ** Hessian has required structure
  Cycle:    268 Energy:     -2933.410656  Gnorm:      0.000262  CPU:   43.916
  ** Hessian has required structure
  Cycle:    269 Energy:     -2933.410656  Gnorm:      0.000262  CPU:   44.051
  ** Hessian has required structure
  Cycle:    270 Energy:     -2933.410656  Gnorm:      0.000261  CPU:   44.170
  ** Hessian has required structure
  Cycle:    271 Energy:     -2933.410656  Gnorm:      0.000261  CPU:   44.290
  ** Hessian has required structure
  Cycle:    272 Energy:     -2933.410656  Gnorm:      0.000260  CPU:   44.409
  ** Hessian has required structure
  Cycle:    273 Energy:     -2933.410656  Gnorm:      0.000260  CPU:   44.544
  ** Hessian has required structure
  Cycle:    274 Energy:     -2933.410656  Gnorm:      0.000259  CPU:   44.747
  ** Hessian has required structure
  Cycle:    275 Energy:     -2933.410656  Gnorm:      0.000259  CPU:   44.861
  ** Hessian has required structure
  Cycle:    276 Energy:     -2933.410656  Gnorm:      0.000259  CPU:   44.973
  ** Hessian has required structure
  Cycle:    277 Energy:     -2933.410656  Gnorm:      0.000259  CPU:   45.083
  ** Hessian has required structure


  **** Too many failed attempts to optimise ****

  Final energy =   -2933.41065606 eV      
  Final Gnorm  =       0.00025919

  Components of energy : 

--------------------------------------------------------------------------------
  Interatomic potentials     =         773.12928101 eV    
  Three-body potentials      =           0.00000000 eV    
  Monopole - monopole (real) =       -1487.37420360 eV    
  Monopole - monopole (recip)=       -2219.16573347 eV    
  Monopole - monopole (total)=       -3706.53993707 eV    
--------------------------------------------------------------------------------
  Total lattice energy       =       -2933.41065606 eV    
--------------------------------------------------------------------------------
  Total lattice energy       =         -283029.2870 kJ/(mole unit cells)
--------------------------------------------------------------------------------

  Final fractional coordinates of atoms :

--------------------------------------------------------------------------------
   No.  Atomic        x           y          z          Radius
        Label       (Frac)      (Frac)     (Frac)       (Angs) 
--------------------------------------------------------------------------------
     1  Ge    c     0.052090    0.000000    0.372270    0.000000
     2  Ge    c     0.445619    0.955044    0.405381    0.000000
     3  Ge    c     0.944645    0.954108    0.620800    0.000000
     4  Ge    c     0.547825    0.012591    0.659302    0.000000
     5  Ge    c     0.557293    0.997516    0.165505    0.000000
     6  Ge    c     0.948663    0.932798    0.118525    0.000000
     7  Ge    c     0.448975    0.944819    0.916780    0.000000
     8  Ge    c     0.051974    0.004695    0.868533    0.000000
     9  Ge    c     0.150064    0.315828    0.305115    0.000000
    10  Ge    c     0.356328    0.635018    0.292046    0.000000
    11  Ge    c     0.824252    0.239835    0.731676    0.000000
    12  Ge    c     0.670479    0.726276    0.739435    0.000000
    13  Ge    c     0.851067    0.641147    0.741965    0.000000
    14  Ge    c     0.644830    0.322504    0.733224    0.000000
    15  Ge    c     0.174165    0.714031    0.299573    0.000000
    16  Ge    c     0.852205    0.619257    0.058361    0.000000
    17  Ge    c     0.323523    0.231794    0.985165    0.000000
    18  Ge    c     0.172248    0.716202    0.985105    0.000000
    19  Ge    c     0.353012    0.630585    0.979596    0.000000
    20  Ge    c     0.143742    0.314314    0.988884    0.000000
    21  Ge    c     0.671286    0.701500    0.052971    0.000000
    22  Ge    c     0.825408    0.222770    0.045978    0.000000
    23  Si    c     0.327846    0.242075    0.293786    0.000000
    24  Si    c     0.647909    0.305151    0.041193    0.000000
    25  O1    c     0.088872    0.197520    0.394712    0.000000
    26  O1    c     0.419566    0.749371    0.380246    0.000000
    27  O1    c     0.870310    0.096653    0.634944    0.000000
    28  O1    c     0.622132    0.868157    0.640425    0.000000
    29  O1    c     0.917437    0.751675    0.657925    0.000000
    30  O1    c     0.579835    0.216207    0.643284    0.000000
    31  O1    c     0.125972    0.855141    0.394960    0.000000
    32  O3    c     0.370522    0.096259    0.377814    0.000000
    33  O1    c     0.973927    0.959376    0.461220    0.000000
    34  O1    c     0.470635    0.972625    0.566927    0.000000
    35  O1    c     0.023616    0.986096    0.211156    0.000000
    36  O1    c     0.526315    0.006004    0.323325    0.000000
    37  O1    c     0.022855    0.008808    0.709020    0.000000
    38  O1    c     0.522779    0.990947    0.820881    0.000000
    39  O3    c     0.589488    0.197105    0.123787    0.000000
    40  O1    c     0.916509    0.730566    0.146183    0.000000
    41  O1    c     0.373432    0.087935    0.897179    0.000000
    42  O1    c     0.128746    0.867675    0.888137    0.000000
    43  O1    c     0.414976    0.745192    0.888801    0.000000
    44  O1    c     0.075458    0.208811    0.907228    0.000000
    45  O1    c     0.625869    0.839085    0.154875    0.000000
    46  O1    c     0.871257    0.070075    0.136952    0.000000
    47  O1    c     0.478679    0.951613    0.076417    0.000000
    48  O1    c     0.976649    0.939238    0.958290    0.000000
    49  O1    c     0.158089    0.514391    0.364758    0.000000
    50  O3    c     0.344816    0.428193    0.349992    0.000000
    51  O1    c     0.837983    0.444639    0.676384    0.000000
    52  O1    c     0.655469    0.525365    0.679251    0.000000
    53  O3    c     0.238243    0.211882    0.297744    0.000000
    54  O1    c     0.269921    0.741914    0.297990    0.000000
    55  O1    c     0.728751    0.206310    0.728052    0.000000
    56  O1    c     0.766350    0.757047    0.740248    0.000000
    57  O1    c     0.117225    0.332628    0.147930    0.000000
    58  O1    c     0.387834    0.620883    0.136624    0.000000
    59  O1    c     0.857625    0.214649    0.888552    0.000000
    60  O1    c     0.638322    0.737206    0.897357    0.000000
    61  O1    c     0.880442    0.606331    0.898924    0.000000
    62  O3    c     0.617242    0.332348    0.894964    0.000000
    63  O1    c     0.139902    0.729921    0.142225    0.000000
    64  O3    c     0.355449    0.232296    0.145393    0.000000
    65  O3    c     0.658509    0.490446    0.101255    0.000000
    66  O1    c     0.844008    0.416102    0.115022    0.000000
    67  O1    c     0.339484    0.432664    0.921406    0.000000
    68  O1    c     0.154995    0.515605    0.927421    0.000000
    69  O3    c     0.728085    0.200554    0.039593    0.000000
    70  O1    c     0.766802    0.731325    0.058201    0.000000
    71  O1    c     0.228323    0.198722    0.979915    0.000000
    72  O1    c     0.267979    0.743602    0.987209    0.000000
    73  O1    s     0.090739    0.191856    0.386379    0.000000
    74  O1    s     0.416757    0.756129    0.375505    0.000000
    75  O1    s     0.872472    0.096772    0.641378    0.000000
    76  O1    s     0.620407    0.867840    0.649332    0.000000
    77  O1    s     0.914419    0.758537    0.661541    0.000000
    78  O1    s     0.582327    0.209218    0.651127    0.000000
    79  O1    s     0.124194    0.855033    0.386002    0.000000
    80  O3    s     0.372337    0.099477    0.371548    0.000000
    81  O1    s     0.977960    0.962178    0.465763    0.000000
    82  O1    s     0.474943    0.974501    0.562540    0.000000
    83  O1    s     0.019654    0.982857    0.215077    0.000000
    84  O1    s     0.522626    0.001608    0.317900    0.000000
    85  O1    s     0.019207    0.004420    0.714214    0.000000
    86  O1    s     0.518566    0.988741    0.817188    0.000000
    87  O3    s     0.592799    0.192183    0.118819    0.000000
    88  O1    s     0.914076    0.736827    0.137758    0.000000
    89  O1    s     0.374909    0.089131    0.905637    0.000000
    90  O1    s     0.126315    0.866243    0.894212    0.000000
    91  O1    s     0.412813    0.750955    0.897528    0.000000
    92  O1    s     0.078994    0.201884    0.910685    0.000000
    93  O1    s     0.624230    0.840333    0.147759    0.000000
    94  O1    s     0.873182    0.072314    0.128448    0.000000
    95  O1    s     0.482455    0.954597    0.071653    0.000000
    96  O1    s     0.980240    0.943662    0.963005    0.000000
    97  O1    s     0.158606    0.512966    0.355400    0.000000
    98  O3    s     0.344138    0.426665    0.340481    0.000000
    99  O1    s     0.837963    0.444388    0.685241    0.000000
   100  O1    s     0.655706    0.523707    0.687809    0.000000
   101  O3    s     0.240084    0.222658    0.297900    0.000000
   102  O1    s     0.268976    0.731905    0.297673    0.000000
   103  O1    s     0.729728    0.217330    0.728723    0.000000
   104  O1    s     0.765299    0.746499    0.740320    0.000000
   105  O1    s     0.121666    0.330009    0.147686    0.000000
   106  O1    s     0.382874    0.622685    0.137244    0.000000
   107  O1    s     0.852889    0.217030    0.888529    0.000000
   108  O1    s     0.643021    0.733830    0.897586    0.000000
   109  O1    s     0.876137    0.609911    0.898671    0.000000
   110  O3    s     0.622251    0.329021    0.896696    0.000000
   111  O1    s     0.144667    0.727821    0.142124    0.000000
   112  O3    s     0.350432    0.233166    0.147234    0.000000
   113  O3    s     0.658446    0.488498    0.091933    0.000000
   114  O1    s     0.843303    0.417879    0.105690    0.000000
   115  O1    s     0.339409    0.433925    0.930471    0.000000
   116  O1    s     0.155386    0.514936    0.936148    0.000000
   117  O3    s     0.728242    0.211897    0.040234    0.000000
   118  O1    s     0.765761    0.720899    0.057786    0.000000
   119  O1    s     0.229510    0.209487    0.980965    0.000000
   120  O1    s     0.266883    0.733340    0.986520    0.000000
--------------------------------------------------------------------------------

  Final Cartesian lattice vectors (Angstroms) :

       17.641178    0.251549   -0.069109
        0.108854    7.862954    0.055355
       -0.038871    0.080312   10.298835


  Final cell parameters and derivatives :

--------------------------------------------------------------------------------
       a           17.643107 Angstrom     dE/de1(xx)     0.007332 eV/strain
       b            7.863902 Angstrom     dE/de2(yy)     0.011285 eV/strain
       c           10.299222 Angstrom     dE/de3(zz)     0.003100 eV/strain
       alpha       89.152936 Degrees      dE/de4(yz)    -0.001585 eV/strain
       beta        90.434276 Degrees      dE/de5(xz)    -0.000004 eV/strain
       gamma       88.391548 Degrees      dE/de6(xy)    -0.000738 eV/strain
--------------------------------------------------------------------------------

  Primitive cell volume =          1428.186945 Angs**3

  Density of cell =      2.815616 g/cm**3

  Non-primitive cell volume =          1428.186945 Angs**3


  Final internal derivatives :

--------------------------------------------------------------------------------
   No.  Atomic          a             b             c           Radius
        Label          (eV)          (eV)          (eV)        (eV/Angs)
--------------------------------------------------------------------------------
      1 Ge    c       0.000000      0.000000      0.000000      0.000000
      2 Ge    c       0.003294     -0.001088      0.003144      0.000000
      3 Ge    c       0.000337      0.000228     -0.004382      0.000000
      4 Ge    c       0.002861      0.006172      0.002903      0.000000
      5 Ge    c       0.005248      0.003137      0.002336      0.000000
      6 Ge    c      -0.004140     -0.004519      0.000359      0.000000
      7 Ge    c      -0.010743     -0.004857      0.002404      0.000000
      8 Ge    c       0.007752     -0.001563     -0.000800      0.000000
      9 Ge    c      -0.005219     -0.003049      0.003089      0.000000
     10 Ge    c       0.005799      0.003038      0.002091      0.000000
     11 Ge    c      -0.000762     -0.001570     -0.005235      0.000000
     12 Ge    c       0.004117      0.002912     -0.000046      0.000000
     13 Ge    c      -0.003705      0.002377     -0.001070      0.000000
     14 Ge    c      -0.002209     -0.001375     -0.001828      0.000000
     15 Ge    c      -0.001992      0.004303      0.002666      0.000000
     16 Ge    c       0.000911      0.000550      0.001814      0.000000
     17 Ge    c       0.001716     -0.004567     -0.003154      0.000000
     18 Ge    c      -0.001046      0.002526     -0.004079      0.000000
     19 Ge    c       0.011350      0.002117     -0.003073      0.000000
     20 Ge    c      -0.001685     -0.004361     -0.002816      0.000000
     21 Ge    c       0.000915      0.000713      0.002828      0.000000
     22 Ge    c      -0.002584     -0.003538      0.001843      0.000000
     23 Si    c       0.001328     -0.000657      0.004058      0.000000
     24 Si    c      -0.000089     -0.001738     -0.000655      0.000000
     25 O1    c       0.004487     -0.003541      0.002687      0.000000
     26 O1    c      -0.006601     -0.006041      0.000186      0.000000
     27 O1    c      -0.009483      0.005748      0.001324      0.000000
     28 O1    c       0.013008     -0.004863      0.005072      0.000000
     29 O1    c      -0.001695     -0.003244     -0.001717      0.000000
     30 O1    c       0.001024     -0.003608      0.002597      0.000000
     31 O1    c       0.008678     -0.003653     -0.003842      0.000000
     32 O3    c      -0.005579      0.003554      0.000860      0.000000
     33 O1    c      -0.007812      0.002957      0.010582      0.000000
     34 O1    c      -0.012588      0.001792     -0.007357      0.000000
     35 O1    c       0.010307     -0.005426      0.009245      0.000000
     36 O1    c       0.010213      0.000648     -0.002724      0.000000
     37 O1    c       0.009159     -0.000758     -0.000587      0.000000
     38 O1    c       0.017137     -0.002968     -0.008799      0.000000
     39 O3    c      -0.004772     -0.007472      0.002750      0.000000
     40 O1    c       0.004127      0.007811     -0.000509      0.000000
     41 O1    c      -0.013830      0.005691      0.003807      0.000000
     42 O1    c       0.006660     -0.002848      0.002816      0.000000
     43 O1    c      -0.002721      0.003923      0.002432      0.000000
     44 O1    c       0.009679      0.003201     -0.000648      0.000000
     45 O1    c       0.011604     -0.004921     -0.000805      0.000000
     46 O1    c      -0.016476      0.007700     -0.001026      0.000000
     47 O1    c      -0.007097      0.001538     -0.002540      0.000000
     48 O1    c      -0.007797      0.003810      0.003611      0.000000
     49 O1    c      -0.004795     -0.004254      0.011871      0.000000
     50 O3    c       0.002339     -0.001982      0.003565      0.000000
     51 O1    c      -0.002326     -0.001926     -0.006336      0.000000
     52 O1    c      -0.000623     -0.004644     -0.006967      0.000000
     53 O3    c       0.004389     -0.005107      0.000364      0.000000
     54 O1    c      -0.004126      0.002726      0.000477      0.000000
     55 O1    c       0.000547     -0.000634     -0.002932      0.000000
     56 O1    c       0.003726      0.000525     -0.000109      0.000000
     57 O1    c      -0.006708      0.000363      0.000977      0.000000
     58 O1    c       0.002637      0.000837     -0.000786      0.000000
     59 O1    c       0.002277      0.001637      0.003023      0.000000
     60 O1    c      -0.000353     -0.000338     -0.005798      0.000000
     61 O1    c       0.004207      0.003613      0.002389      0.000000
     62 O3    c       0.003962     -0.000767      0.000509      0.000000
     63 O1    c      -0.003862      0.001068      0.004854      0.000000
     64 O3    c       0.002593      0.002280     -0.005204      0.000000
     65 O3    c      -0.002150      0.002672      0.002190      0.000000
     66 O1    c       0.003798      0.006352      0.006202      0.000000
     67 O1    c       0.003704      0.003249     -0.009374      0.000000
     68 O1    c       0.002145      0.005877     -0.010905      0.000000
     69 O3    c       0.000021     -0.004056      0.001256      0.000000
     70 O1    c      -0.003608      0.003370      0.001377      0.000000
     71 O1    c      -0.006598     -0.006240      0.000166      0.000000
     72 O1    c      -0.009228      0.006455     -0.000516      0.000000
     73 O1    s      -0.005133      0.002516     -0.004099      0.000000
     74 O1    s       0.005542      0.003761      0.001994      0.000000
     75 O1    s       0.011970     -0.004803     -0.000275      0.000000
     76 O1    s      -0.011840      0.002057     -0.006417      0.000000
     77 O1    s      -0.000112      0.001631     -0.001494      0.000000
     78 O1    s      -0.002191      0.003352     -0.002406      0.000000
     79 O1    s      -0.007410      0.003786      0.005775      0.000000
     80 O3    s       0.006961     -0.004067     -0.002368      0.000000
     81 O1    s       0.001516     -0.002840     -0.006848      0.000000
     82 O1    s       0.009788     -0.002414      0.003919      0.000000
     83 O1    s      -0.008390      0.005197     -0.003517      0.000000
     84 O1    s      -0.009768      0.000635      0.002772      0.000000
     85 O1    s      -0.011802      0.000523      0.001248      0.000000
     86 O1    s      -0.013396      0.003578      0.007685      0.000000
     87 O3    s       0.002312      0.005533     -0.002224      0.000000
     88 O1    s      -0.001696     -0.007622     -0.000639      0.000000
     89 O1    s       0.015404     -0.004134     -0.003705      0.000000
     90 O1    s      -0.009127      0.003081      0.000495      0.000000
     91 O1    s       0.003917     -0.003055     -0.000898      0.000000
     92 O1    s      -0.008147     -0.001420     -0.002872      0.000000
     93 O1    s      -0.008835      0.002475      0.000364      0.000000
     94 O1    s       0.010485     -0.003738      0.002039      0.000000
     95 O1    s       0.005493     -0.001448      0.000456      0.000000
     96 O1    s       0.008410     -0.002089     -0.003687      0.000000
     97 O1    s       0.005218      0.001913     -0.011349      0.000000
     98 O3    s      -0.003793      0.001511     -0.002481      0.000000
     99 O1    s       0.002653      0.000419      0.008083      0.000000
    100 O1    s      -0.002861      0.003153      0.005498      0.000000
    101 O3    s      -0.004430      0.005405     -0.001607      0.000000
    102 O1    s       0.003702     -0.002936     -0.002121      0.000000
    103 O1    s      -0.001548      0.001149      0.003444      0.000000
    104 O1    s       0.000703     -0.001088     -0.000729      0.000000
    105 O1    s       0.005516      0.000951     -0.001106      0.000000
    106 O1    s      -0.005922     -0.000225      0.001009      0.000000
    107 O1    s       0.001778     -0.000647     -0.001646      0.000000
    108 O1    s      -0.005409      0.000316      0.004373      0.000000
    109 O1    s      -0.002362     -0.000610     -0.001613      0.000000
    110 O3    s      -0.004910     -0.001650      0.000797      0.000000
    111 O1    s       0.000115     -0.003831     -0.003128      0.000000
    112 O3    s       0.001498     -0.001370      0.004304      0.000000
    113 O3    s       0.001441     -0.001394     -0.002047      0.000000
    114 O1    s      -0.001862     -0.004512     -0.005554      0.000000
    115 O1    s      -0.004983     -0.002037      0.006795      0.000000
    116 O1    s       0.000403     -0.003830      0.009582      0.000000
    117 O3    s       0.001071      0.004725     -0.000470      0.000000
    118 O1    s       0.006609     -0.004252     -0.000560      0.000000
    119 O1    s      -0.000824      0.004402      0.004346      0.000000
    120 O1    s       0.009308     -0.003778      0.001728      0.000000
--------------------------------------------------------------------------------
  Maximum abs         0.017137      0.007811      0.011871      0.000000
--------------------------------------------------------------------------------


  Born effective charge tensors : 

-------------------------------------------------------------------------------
  Atom             x           y             z
-------------------------------------------------------------------------------
    1 Ge    x       4.2188      0.2595      0.0937
            y      -0.0728      3.9145      0.0529
            z      -0.7795     -0.1250      4.1633
-------------------------------------------------------------------------------
    2 Ge    x       4.0808      0.3083      0.4186
            y      -0.1209      3.9674      0.0694
            z       0.1735      0.0463      4.4539
-------------------------------------------------------------------------------
    3 Ge    x       4.1519      0.2246     -0.4502
            y      -0.1467      3.9336     -0.0962
            z      -0.2459      0.0321      4.4576
-------------------------------------------------------------------------------
    4 Ge    x       4.1035      0.2618     -0.0219
            y      -0.1035      3.9312     -0.0029
            z       0.8378      0.1777      4.2610
-------------------------------------------------------------------------------
    5 Ge    x       4.2459      0.1390     -0.4045
            y      -0.1574      3.9550     -0.0735
            z      -0.3397      0.0415      3.9280
-------------------------------------------------------------------------------
    6 Ge    x       4.3368      0.2327     -0.0360
            y      -0.1034      3.9409     -0.0108
            z       0.6449      0.1977      3.6630
-------------------------------------------------------------------------------
    7 Ge    x       4.3013      0.2089      0.0360
            y      -0.0852      3.9457      0.0441
            z      -0.6648     -0.1326      3.6748
-------------------------------------------------------------------------------
    8 Ge    x       4.2469      0.2228      0.3927
            y      -0.1651      3.9480      0.0910
            z       0.3063     -0.0175      3.9741
-------------------------------------------------------------------------------
    9 Ge    x       3.8920      0.1420     -0.2366
            y       0.4884      4.1599     -0.0841
            z      -0.0720     -0.1680      3.5574
-------------------------------------------------------------------------------
   10 Ge    x       3.9124      0.0970      0.1486
            y       0.4643      4.1858      0.1755
            z       0.0365      0.3009      3.5511
-------------------------------------------------------------------------------
   11 Ge    x       3.9781     -0.2259     -0.3003
            y      -0.2517      4.1845      0.1039
            z      -0.0290      0.1864      3.6201
-------------------------------------------------------------------------------
   12 Ge    x       3.9934     -0.2487      0.2831
            y      -0.2560      4.1742     -0.1007
            z       0.0115     -0.1683      3.5883
-------------------------------------------------------------------------------
   13 Ge    x       3.9482      0.0742     -0.2054
            y       0.4591      4.1861     -0.0945
            z      -0.0953     -0.2346      3.6060
-------------------------------------------------------------------------------
   14 Ge    x       3.8661      0.0732      0.2741
            y       0.4389      4.2101      0.1045
            z       0.1083      0.1912      3.5223
-------------------------------------------------------------------------------
   15 Ge    x       4.0144     -0.2670     -0.2812
            y      -0.2756      4.1502      0.0572
            z      -0.0307      0.1383      3.5575
-------------------------------------------------------------------------------
   16 Ge    x       4.0210      0.1070      0.2742
            y       0.4418      4.2175      0.0980
            z       0.1053      0.1819      3.4245
-------------------------------------------------------------------------------
   17 Ge    x       4.0513     -0.2301     -0.3595
            y      -0.2406      4.1454      0.1102
            z      -0.0642      0.1952      3.4106
-------------------------------------------------------------------------------
   18 Ge    x       4.0253     -0.2416      0.3429
            y      -0.2236      4.1958     -0.0933
            z       0.0298     -0.1866      3.5147
-------------------------------------------------------------------------------
   19 Ge    x       3.9823      0.1168     -0.3017
            y       0.4456      4.2138     -0.0736
            z      -0.0784     -0.1596      3.4221
-------------------------------------------------------------------------------
   20 Ge    x       4.0272      0.0733      0.2788
            y       0.4502      4.1770      0.0866
            z       0.1586      0.2003      3.5024
-------------------------------------------------------------------------------
   21 Ge    x       4.0120     -0.2426     -0.3009
            y      -0.2919      4.1711      0.1653
            z      -0.0163      0.2148      3.4905
-------------------------------------------------------------------------------
   22 Ge    x       3.9597     -0.2992      0.3413
            y      -0.3026      4.1440     -0.0348
            z       0.0463     -0.1271      3.4623
-------------------------------------------------------------------------------
   23 Si    x       3.6867     -0.2463      0.2476
            y      -0.2149      3.9364     -0.0644
            z      -0.0065     -0.2017      3.3225
-------------------------------------------------------------------------------
   24 Si    x       3.7193      0.0772     -0.2909
            y       0.4127      3.9174     -0.0894
            z      -0.1086     -0.2185      3.2521
-------------------------------------------------------------------------------
   25 O1    x      -1.9906     -0.8953      0.3366
            y      -0.8715     -2.5355      0.2853
            z       0.4235      0.3366     -1.5761
-------------------------------------------------------------------------------
   26 O1    x      -1.9019     -0.8483     -0.4965
            y      -0.7877     -2.6695     -0.5453
            z      -0.4481     -0.5493     -1.6432
-------------------------------------------------------------------------------
   27 O1    x      -2.1808      0.9016      0.5226
            y       0.9328     -2.2910     -0.5064
            z       0.4777     -0.5395     -1.6874
-------------------------------------------------------------------------------
   28 O1    x      -2.1597      0.8752     -0.3188
            y       0.9450     -2.2819      0.3775
            z      -0.3899      0.3725     -1.6354
-------------------------------------------------------------------------------
   29 O1    x      -1.9649     -0.8502      0.5304
            y      -0.7984     -2.5295      0.5636
            z       0.4788      0.5532     -1.6580
-------------------------------------------------------------------------------
   30 O1    x      -1.9523     -0.8634     -0.3796
            y      -0.8126     -2.5036     -0.3177
            z      -0.4571     -0.3688     -1.6209
-------------------------------------------------------------------------------
   31 O1    x      -2.1699      0.8754      0.3025
            y       0.9583     -2.2909     -0.3659
            z       0.3842     -0.3723     -1.6050
-------------------------------------------------------------------------------
   32 O3    x      -2.0020      0.8638     -0.5081
            y       0.8908     -2.2557      0.5341
            z      -0.4652      0.5658     -1.5758
-------------------------------------------------------------------------------
   33 O1    x      -2.1171     -0.2167      0.9369
            y      -0.0866     -1.2710      0.1042
            z       1.1737      0.1937     -3.0543
-------------------------------------------------------------------------------
   34 O1    x      -2.0542     -0.2459     -0.9319
            y      -0.0857     -1.2881     -0.1484
            z      -1.1443     -0.2945     -3.1348
-------------------------------------------------------------------------------
   35 O1    x      -2.1468     -0.2680     -0.8391
            y      -0.1336     -1.3579     -0.1925
            z      -0.8208     -0.2622     -2.5902
-------------------------------------------------------------------------------
   36 O1    x      -2.1783     -0.2069      0.8358
            y      -0.0868     -1.3130      0.0936
            z       0.8539      0.1136     -2.7092
-------------------------------------------------------------------------------
   37 O1    x      -2.0884     -0.2333     -0.7975
            y      -0.1211     -1.3114     -0.1417
            z      -0.8029     -0.1700     -2.7469
-------------------------------------------------------------------------------
   38 O1    x      -2.1020     -0.2444      0.8344
            y      -0.1211     -1.3569      0.1869
            z       0.8100      0.2447     -2.6249
-------------------------------------------------------------------------------
   39 O3    x      -1.9515     -0.8583      0.5938
            y      -0.7767     -2.3340      0.5866
            z       0.5027      0.5710     -1.5212
-------------------------------------------------------------------------------
   40 O1    x      -2.0344     -0.8591     -0.3383
            y      -0.8143     -2.5399     -0.2453
            z      -0.3890     -0.2909     -1.4587
-------------------------------------------------------------------------------
   41 O1    x      -2.2562      0.9231      0.3274
            y       0.9699     -2.2980     -0.3627
            z       0.3890     -0.3821     -1.5022
-------------------------------------------------------------------------------
   42 O1    x      -2.2191      0.8968     -0.5241
            y       0.9060     -2.3015      0.5128
            z      -0.4487      0.5141     -1.5854
-------------------------------------------------------------------------------
   43 O1    x      -2.0072     -0.8567      0.3402
            y      -0.8112     -2.5259      0.2456
            z       0.3904      0.3012     -1.4785
-------------------------------------------------------------------------------
   44 O1    x      -2.0373     -0.8291     -0.5515
            y      -0.7517     -2.5268     -0.5684
            z      -0.4891     -0.5486     -1.5557
-------------------------------------------------------------------------------
   45 O1    x      -2.1153      0.9096      0.5146
            y       0.9343     -2.4249     -0.5332
            z       0.4474     -0.5293     -1.6088
-------------------------------------------------------------------------------
   46 O1    x      -2.2573      0.9126     -0.3078
            y       0.9633     -2.3203      0.3619
            z      -0.3561      0.3634     -1.4749
-------------------------------------------------------------------------------
   47 O1    x      -2.1977     -0.2344     -0.7259
            y      -0.1470     -1.3790     -0.1665
            z      -0.4906     -0.1396     -2.2578
-------------------------------------------------------------------------------
   48 O1    x      -2.1488     -0.2636      0.7132
            y      -0.1549     -1.3930      0.1870
            z       0.4952      0.1635     -2.2866
-------------------------------------------------------------------------------
   49 O1    x      -1.3447     -0.1389      0.0909
            y      -0.2593     -3.1328      0.0005
            z       0.0419     -0.0191     -1.3932
-------------------------------------------------------------------------------
   50 O3    x      -1.2907     -0.2100     -0.0820
            y      -0.3130     -2.9945     -0.0909
            z      -0.0446     -0.0958     -1.3023
-------------------------------------------------------------------------------
   51 O1    x      -1.3567     -0.2119      0.0595
            y      -0.3023     -3.1449     -0.0774
            z       0.0164     -0.0588     -1.4032
-------------------------------------------------------------------------------
   52 O1    x      -1.3341     -0.1776     -0.0792
            y      -0.2965     -3.1809     -0.0151
            z      -0.0265      0.0166     -1.3967
-------------------------------------------------------------------------------
   53 O3    x      -2.9334      0.1767      0.0609
            y       0.0914     -1.4343      0.0002
            z       0.0688      0.0343     -1.1548
-------------------------------------------------------------------------------
   54 O1    x      -3.0412      0.2810      0.0499
            y       0.2020     -1.5867     -0.0246
            z       0.0255     -0.0577     -1.2063
-------------------------------------------------------------------------------
   55 O1    x      -3.0083      0.2764      0.0315
            y       0.1910     -1.5793     -0.0350
            z       0.0283     -0.0678     -1.2356
-------------------------------------------------------------------------------
   56 O1    x      -3.0200      0.2863      0.0003
            y       0.1956     -1.5935      0.0152
            z       0.0296      0.0451     -1.2157
-------------------------------------------------------------------------------
   57 O1    x      -1.4767     -0.0099     -0.1178
            y      -0.0817     -1.4232     -0.0098
            z      -0.0769     -0.0071     -2.7419
-------------------------------------------------------------------------------
   58 O1    x      -1.4655     -0.0380      0.0400
            y      -0.1053     -1.4390      0.0198
            z       0.0319     -0.0165     -2.6877
-------------------------------------------------------------------------------
   59 O1    x      -1.5227      0.1114      0.0102
            y       0.1266     -1.4176      0.0351
            z      -0.0202      0.0484     -2.7095
-------------------------------------------------------------------------------
   60 O1    x      -1.4816      0.1193      0.0194
            y       0.1371     -1.4565      0.0953
            z       0.0252      0.0881     -2.6923
-------------------------------------------------------------------------------
   61 O1    x      -1.4493     -0.0143     -0.0342
            y      -0.0818     -1.4427      0.0636
            z      -0.0424      0.0665     -2.7326
-------------------------------------------------------------------------------
   62 O3    x      -1.3662     -0.0080     -0.0801
            y      -0.0771     -1.3566      0.0608
            z      -0.0688      0.0672     -2.5797
-------------------------------------------------------------------------------
   63 O1    x      -1.5091      0.1113     -0.0307
            y       0.1228     -1.4250     -0.0131
            z      -0.0271     -0.0055     -2.6970
-------------------------------------------------------------------------------
   64 O3    x      -1.3802      0.0885      0.0945
            y       0.0881     -1.3507     -0.0587
            z       0.0736     -0.0552     -2.5877
-------------------------------------------------------------------------------
   65 O3    x      -1.3055     -0.1844      0.0565
            y      -0.2611     -3.0291     -0.1769
            z       0.0041     -0.1657     -1.2635
-------------------------------------------------------------------------------
   66 O1    x      -1.4042     -0.2210     -0.1182
            y      -0.3018     -3.0966     -0.0621
            z      -0.0602     -0.0298     -1.3531
-------------------------------------------------------------------------------
   67 O1    x      -1.3801     -0.2229      0.0914
            y      -0.3267     -3.1168      0.0089
            z       0.0340      0.0298     -1.3714
-------------------------------------------------------------------------------
   68 O1    x      -1.3959     -0.2091     -0.0907
            y      -0.3114     -3.1488      0.0268
            z      -0.0425      0.0167     -1.3500
-------------------------------------------------------------------------------
   69 O3    x      -2.8689      0.3582     -0.0014
            y       0.2842     -1.5121      0.0074
            z       0.0239      0.0346     -1.1291
-------------------------------------------------------------------------------
   70 O1    x      -3.0876      0.2696     -0.0194
            y       0.1574     -1.5907     -0.0162
            z      -0.0330     -0.0485     -1.1860
-------------------------------------------------------------------------------
   71 O1    x      -3.0482      0.2709      0.0039
            y       0.1807     -1.5739     -0.0373
            z      -0.0452     -0.0614     -1.2055
-------------------------------------------------------------------------------
   72 O1    x      -3.0708      0.2951      0.0331
            y       0.2127     -1.5800     -0.0024
            z       0.0311      0.0305     -1.1935
-------------------------------------------------------------------------------




  Elastic Constant Matrix: (Units=GPa)

-------------------------------------------------------------------------------
  Indices      1         2         3         4         5         6    
-------------------------------------------------------------------------------
       1     26.1477   11.2027    8.2492   -0.1527   -0.6342    7.3172
       2     11.2027   33.6566    6.4158   -0.0377    0.2674    7.3326
       3      8.2492    6.4158   13.6546    0.2485   -0.1356    1.9202
       4     -0.1527   -0.0377    0.2485    8.2501    1.8997    0.2248
       5     -0.6342    0.2674   -0.1356    1.8997   15.6330    1.1835
       6      7.3172    7.3326    1.9202    0.2248    1.1835   19.2397
-------------------------------------------------------------------------------


  Elastic Compliance Matrix: (Units=1/GPa)

-------------------------------------------------------------------------------
  Indices      1         2         3         4         5         6    
-------------------------------------------------------------------------------
       1    0.055127 -0.010128 -0.026477  0.001454  0.003114 -0.014672
       2   -0.010128  0.037002 -0.009986  0.000652 -0.000511 -0.009230
       3   -0.026477 -0.009986  0.093339 -0.003468 -0.000021  0.004602
       4    0.001454  0.000652 -0.003468  0.124843 -0.015078 -0.000987
       5    0.003114 -0.000511 -0.000021 -0.015078  0.066305 -0.004890
       6   -0.014672 -0.009230  0.004602 -0.000987 -0.004890  0.060926
-------------------------------------------------------------------------------

  Mechanical properties :

-------------------------------------------------------------------------------
  Convention :                    Reuss         Voigt         Hill
-------------------------------------------------------------------------------
  Bulk  Modulus (GPa)     =      10.83605      13.91049      12.37327
  Shear Modulus (GPa)     =       8.90492      11.79733      10.35112
-------------------------------------------------------------------------------
  Velocity S-wave (km/s)  =       1.77840       2.04694       1.91738
  Velocity P-wave (km/s)  =       2.83998       3.24455       3.04898
-------------------------------------------------------------------------------
  Compressibility (1/GPa) =    0.09228451
-------------------------------------------------------------------------------
  Stress axis :                     x             y             z
-------------------------------------------------------------------------------
  Youngs Moduli (GPa)     =      18.14008      27.02534      10.71363
-------------------------------------------------------------------------------
  Poissons Ratio (x)      =                     0.27373       0.28367
  Poissons Ratio (y)      =       0.18373                     0.10699
  Poissons Ratio (z)      =       0.48030       0.26988
-------------------------------------------------------------------------------


  Piezoelectric Strain Matrix: (Units=C/m**2)

-------------------------------------------------------------------------------
  Indices      1         2         3         4         5         6    
-------------------------------------------------------------------------------
       x    -0.08640  -0.04711   0.24355  -0.03389  -0.05288   0.09824
       y    -0.28175  -0.63910  -0.08239   0.09264   0.12145  -0.14526
       z    -0.11377   0.06208   0.03427  -0.09143  -0.28911   0.06571
-------------------------------------------------------------------------------


  Piezoelectric Stress Matrix: (Units=10**-11 C/N)

-------------------------------------------------------------------------------
  Indices      1         2         3         4         5         6    
-------------------------------------------------------------------------------
       x    -1.23895  -0.42020   2.60618  -0.45321  -0.37256   0.91005
       y    -0.42333  -1.86325   0.51596   0.93366   0.68173   0.01175
       z    -0.98051   0.25888   0.62162  -0.73637  -1.84987   0.67613
-------------------------------------------------------------------------------


  Static dielectric constant tensor : 

-------------------------------------------------------------------------------
              x         y         z
-------------------------------------------------------------------------------
       x     5.34577   0.00751  -0.02607
       y     0.00751   6.37675   0.05704
       z    -0.02607   0.05704   4.26982
--------------------------------------------------------------------------------

  High frequency dielectric constant tensor : 

-------------------------------------------------------------------------------
              x         y         z
-------------------------------------------------------------------------------
       x     1.53318   0.00271  -0.00043
       y     0.00271   1.54013   0.00046
       z    -0.00043   0.00046   1.49448
-------------------------------------------------------------------------------

  Static refractive indices : 

-------------------------------------------------------------------------------
    1 =    2.06583      2 =    2.31222      3 =    2.52554
-------------------------------------------------------------------------------

  High frequency refractive indices : 

-------------------------------------------------------------------------------
    1 =    1.22248      2 =    1.23784      3 =    1.24139
-------------------------------------------------------------------------------


  Time to end of optimisation =      45.3468 seconds


  Peak dynamic memory used =       5.01 MB 


  Timing analysis for GULP :

--------------------------------------------------------------------------------
  Task / Subroutine                                          Time (Seconds)
--------------------------------------------------------------------------------
  Calculation of reciprocal space energy and derivatives          2.6818
  Calculation of real space energy and derivatives               28.7476
  Calculation of three-body energy and derivatives                0.2325
  Calculation and manipulation of Hessian matrix                 14.3370
  Calculation of matrix inversion                                 0.0279
  Global summation overhead                                       0.0006
--------------------------------------------------------------------------------
  Total CPU time                                                 45.3468
--------------------------------------------------------------------------------


  Dump file written as c00015.vasp.grs
  CIF file written as c00015.vasp.cif


  Job Finished at 18:36.33 30th October    2025                               

