********************************************************************************
*                       GENERAL UTILITY LATTICE PROGRAM                        *
*                                 Julian Gale                                  *
*                       Curtin Institute for Computation                       *
*                    School of Molecular and Life Sciences                     *
*                    Curtin University, Western Australia                      *
********************************************************************************
* Version = 6.1.2 * Last modified =   3rd November 2022                        *
********************************************************************************
*  optimise     - perform optimisation run                                     *
*  conp         - constant pressure calculation                                *
*  property     - calculate properties for final geometry                      *
********************************************************************************

  Job Started  at 18:35.15 30th October    2025                               

  Number of CPUs =     1


  Total number of configurations input =      1

********************************************************************************
*  Input for Configuration =   1 : c00011.vasp                                 *
********************************************************************************

  Formula = Ge22Si2O48                                                  

  Number of irreducible atoms/shells =     120


  Total number atoms/shells =     120

  Dimensionality = 3               :  Bulk   



  Cartesian lattice vectors (Angstroms) :

       17.182800    0.000000    0.000000
        0.000000    7.513760    0.000000
        0.000000    0.000000   10.447700

  Cell parameters (Angstroms/Degrees):

  a =      17.1828    alpha =  90.0000
  b =       7.5138    beta  =  90.0000
  c =      10.4477    gamma =  90.0000

  Initial cell volume =        1348.875752 Angs**3

  Temperature of configuration =   0.00     K 

  Pressure of configuration =         0.000 GPa 

  Fractional coordinates of asymmetric unit :

--------------------------------------------------------------------------------
   No.  Atomic       x           y          z         Charge      Occupancy
        Label      (Frac)      (Frac)     (Frac)        (e)         (Frac)  
--------------------------------------------------------------------------------
      1 Ge    c    0.052090    0.000000    0.372270     4.00000    1.000000    
      2 Ge    c    0.447910 *  0.000000 *  0.372270 *   4.00000    1.000000    
      3 Ge    c    0.947910 *  0.000000 *  0.627730 *   4.00000    1.000000    
      4 Ge    c    0.552090 *  0.000000 *  0.627730 *   4.00000    1.000000    
      5 Ge    c    0.556730 *  0.000000 *  0.122130 *   4.00000    1.000000    
      6 Ge    c    0.943270 *  0.000000 *  0.122130 *   4.00000    1.000000    
      7 Ge    c    0.443270 *  0.000000 *  0.877870 *   4.00000    1.000000    
      8 Ge    c    0.056730 *  0.000000 *  0.877870 *   4.00000    1.000000    
      9 Ge    c    0.160190 *  0.293910 *  0.273440 *   4.00000    1.000000    
     10 Ge    c    0.339810 *  0.706090 *  0.273440 *   4.00000    1.000000    
     11 Ge    c    0.839810 *  0.293910 *  0.726560 *   4.00000    1.000000    
     12 Ge    c    0.660190 *  0.706090 *  0.726560 *   4.00000    1.000000    
     13 Ge    c    0.839810 *  0.706090 *  0.726560 *   4.00000    1.000000    
     14 Ge    c    0.660190 *  0.293910 *  0.726560 *   4.00000    1.000000    
     15 Ge    c    0.160190 *  0.706090 *  0.273440 *   4.00000    1.000000    
     16 Ge    c    0.660660 *  0.294090 *  0.017440 *   4.00000    1.000000    
     17 Ge    c    0.839340 *  0.705910 *  0.017440 *   4.00000    1.000000    
     18 Ge    c    0.339340 *  0.294090 *  0.982560 *   4.00000    1.000000    
     19 Ge    c    0.160660 *  0.705910 *  0.982560 *   4.00000    1.000000    
     20 Ge    c    0.160660 *  0.294090 *  0.982560 *   4.00000    1.000000    
     21 Ge    c    0.660660 *  0.705910 *  0.017440 *   4.00000    1.000000    
     22 Ge    c    0.839340 *  0.294090 *  0.017440 *   4.00000    1.000000    
     23 Si    c    0.339810 *  0.293910 *  0.273440 *   4.00000    1.000000    
     24 Si    c    0.339340 *  0.705910 *  0.982560 *   4.00000    1.000000    
     25 O1    c    0.106570 *  0.174340 *  0.366200 *   1.73396    1.000000    
     26 O1    c    0.393430 *  0.825660 *  0.366200 *   1.73396    1.000000    
     27 O1    c    0.893430 *  0.174340 *  0.633800 *   1.73396    1.000000    
     28 O1    c    0.606570 *  0.825660 *  0.633800 *   1.73396    1.000000    
     29 O1    c    0.893430 *  0.825660 *  0.633800 *   1.73396    1.000000    
     30 O1    c    0.606570 *  0.174340 *  0.633800 *   1.73396    1.000000    
     31 O1    c    0.106570 *  0.825660 *  0.366200 *   1.73396    1.000000    
     32 O3    c    0.393430 *  0.174340 *  0.366200 *   1.33043    1.000000    
     33 O1    c    0.000000 *  0.000000 *  0.500000 *   1.73396    1.000000    
     34 O1    c    0.500000 *  0.000000 *  0.500000 *   1.73396    1.000000    
     35 O1    c    0.994520 *  0.000000 *  0.250840 *   1.73396    1.000000    
     36 O1    c    0.505480 *  0.000000 *  0.250840 *   1.73396    1.000000    
     37 O1    c    0.005480 *  0.000000 *  0.749160 *   1.73396    1.000000    
     38 O1    c    0.494520 *  0.000000 *  0.749160 *   1.73396    1.000000    
     39 O1    c    0.610230 *  0.175520 *  0.115390 *   1.73396    1.000000    
     40 O1    c    0.889770 *  0.824480 *  0.115390 *   1.73396    1.000000    
     41 O1    c    0.389770 *  0.175520 *  0.884610 *   1.73396    1.000000    
     42 O1    c    0.110230 *  0.824480 *  0.884610 *   1.73396    1.000000    
     43 O3    c    0.389770 *  0.824480 *  0.884610 *   1.33043    1.000000    
     44 O1    c    0.110230 *  0.175520 *  0.884610 *   1.73396    1.000000    
     45 O1    c    0.610230 *  0.824480 *  0.115390 *   1.73396    1.000000    
     46 O1    c    0.889770 *  0.175520 *  0.115390 *   1.73396    1.000000    
     47 O1    c    0.500000 *  0.000000 *  0.000000 *   1.73396    1.000000    
     48 O1    c    0.000000 *  0.000000 *  0.000000 *   1.73396    1.000000    
     49 O1    c    0.151750 *  0.500000 *  0.313330 *   1.73396    1.000000    
     50 O3    c    0.348250 *  0.500000 *  0.313330 *   1.33043    1.000000    
     51 O1    c    0.848250 *  0.500000 *  0.686670 *   1.73396    1.000000    
     52 O1    c    0.651750 *  0.500000 *  0.686670 *   1.73396    1.000000    
     53 O3    c    0.250000 *  0.234950 *  0.285720 *   1.33043    1.000000    
     54 O1    c    0.250000 *  0.765050 *  0.285720 *   1.73396    1.000000    
     55 O1    c    0.750000 *  0.234950 *  0.714280 *   1.73396    1.000000    
     56 O1    c    0.750000 *  0.765050 *  0.714280 *   1.73396    1.000000    
     57 O1    c    0.131410 *  0.268650 *  0.127790 *   1.73396    1.000000    
     58 O3    c    0.368590 *  0.731350 *  0.127790 *   1.33043    1.000000    
     59 O1    c    0.868590 *  0.268650 *  0.872210 *   1.73396    1.000000    
     60 O1    c    0.631410 *  0.731350 *  0.872210 *   1.73396    1.000000    
     61 O1    c    0.868590 *  0.731350 *  0.872210 *   1.73396    1.000000    
     62 O1    c    0.631410 *  0.268650 *  0.872210 *   1.73396    1.000000    
     63 O1    c    0.131410 *  0.731350 *  0.127790 *   1.73396    1.000000    
     64 O3    c    0.368590 *  0.268650 *  0.127790 *   1.33043    1.000000    
     65 O1    c    0.653920 *  0.500000 *  0.058200 *   1.73396    1.000000    
     66 O1    c    0.846080 *  0.500000 *  0.058200 *   1.73396    1.000000    
     67 O3    c    0.346080 *  0.500000 *  0.941800 *   1.33043    1.000000    
     68 O1    c    0.153920 *  0.500000 *  0.941800 *   1.73396    1.000000    
     69 O1    c    0.750000 *  0.231060 *  0.027050 *   1.73396    1.000000    
     70 O1    c    0.750000 *  0.768940 *  0.027050 *   1.73396    1.000000    
     71 O1    c    0.250000 *  0.231060 *  0.972950 *   1.73396    1.000000    
     72 O3    c    0.250000 *  0.768940 *  0.972950 *   1.33043    1.000000    
     73 O1    s    0.106570 *  0.174340 *  0.366200 *  -3.73396    1.000000    
     74 O1    s    0.393430 *  0.825660 *  0.366200 *  -3.73396    1.000000    
     75 O1    s    0.893430 *  0.174340 *  0.633800 *  -3.73396    1.000000    
     76 O1    s    0.606570 *  0.825660 *  0.633800 *  -3.73396    1.000000    
     77 O1    s    0.893430 *  0.825660 *  0.633800 *  -3.73396    1.000000    
     78 O1    s    0.606570 *  0.174340 *  0.633800 *  -3.73396    1.000000    
     79 O1    s    0.106570 *  0.825660 *  0.366200 *  -3.73396    1.000000    
     80 O3    s    0.393430 *  0.174340 *  0.366200 *  -3.33043    1.000000    
     81 O1    s    0.000000 *  0.000000 *  0.500000 *  -3.73396    1.000000    
     82 O1    s    0.500000 *  0.000000 *  0.500000 *  -3.73396    1.000000    
     83 O1    s    0.994520 *  0.000000 *  0.250840 *  -3.73396    1.000000    
     84 O1    s    0.505480 *  0.000000 *  0.250840 *  -3.73396    1.000000    
     85 O1    s    0.005480 *  0.000000 *  0.749160 *  -3.73396    1.000000    
     86 O1    s    0.494520 *  0.000000 *  0.749160 *  -3.73396    1.000000    
     87 O1    s    0.610230 *  0.175520 *  0.115390 *  -3.73396    1.000000    
     88 O1    s    0.889770 *  0.824480 *  0.115390 *  -3.73396    1.000000    
     89 O1    s    0.389770 *  0.175520 *  0.884610 *  -3.73396    1.000000    
     90 O1    s    0.110230 *  0.824480 *  0.884610 *  -3.73396    1.000000    
     91 O3    s    0.389770 *  0.824480 *  0.884610 *  -3.33043    1.000000    
     92 O1    s    0.110230 *  0.175520 *  0.884610 *  -3.73396    1.000000    
     93 O1    s    0.610230 *  0.824480 *  0.115390 *  -3.73396    1.000000    
     94 O1    s    0.889770 *  0.175520 *  0.115390 *  -3.73396    1.000000    
     95 O1    s    0.500000 *  0.000000 *  0.000000 *  -3.73396    1.000000    
     96 O1    s    0.000000 *  0.000000 *  0.000000 *  -3.73396    1.000000    
     97 O1    s    0.151750 *  0.500000 *  0.313330 *  -3.73396    1.000000    
     98 O3    s    0.348250 *  0.500000 *  0.313330 *  -3.33043    1.000000    
     99 O1    s    0.848250 *  0.500000 *  0.686670 *  -3.73396    1.000000    
    100 O1    s    0.651750 *  0.500000 *  0.686670 *  -3.73396    1.000000    
    101 O3    s    0.250000 *  0.234950 *  0.285720 *  -3.33043    1.000000    
    102 O1    s    0.250000 *  0.765050 *  0.285720 *  -3.73396    1.000000    
    103 O1    s    0.750000 *  0.234950 *  0.714280 *  -3.73396    1.000000    
    104 O1    s    0.750000 *  0.765050 *  0.714280 *  -3.73396    1.000000    
    105 O1    s    0.131410 *  0.268650 *  0.127790 *  -3.73396    1.000000    
    106 O3    s    0.368590 *  0.731350 *  0.127790 *  -3.33043    1.000000    
    107 O1    s    0.868590 *  0.268650 *  0.872210 *  -3.73396    1.000000    
    108 O1    s    0.631410 *  0.731350 *  0.872210 *  -3.73396    1.000000    
    109 O1    s    0.868590 *  0.731350 *  0.872210 *  -3.73396    1.000000    
    110 O1    s    0.631410 *  0.268650 *  0.872210 *  -3.73396    1.000000    
    111 O1    s    0.131410 *  0.731350 *  0.127790 *  -3.73396    1.000000    
    112 O3    s    0.368590 *  0.268650 *  0.127790 *  -3.33043    1.000000    
    113 O1    s    0.653920 *  0.500000 *  0.058200 *  -3.73396    1.000000    
    114 O1    s    0.846080 *  0.500000 *  0.058200 *  -3.73396    1.000000    
    115 O3    s    0.346080 *  0.500000 *  0.941800 *  -3.33043    1.000000    
    116 O1    s    0.153920 *  0.500000 *  0.941800 *  -3.73396    1.000000    
    117 O1    s    0.750000 *  0.231060 *  0.027050 *  -3.73396    1.000000    
    118 O1    s    0.750000 *  0.768940 *  0.027050 *  -3.73396    1.000000    
    119 O1    s    0.250000 *  0.231060 *  0.972950 *  -3.73396    1.000000    
    120 O3    s    0.250000 *  0.768940 *  0.972950 *  -3.33043    1.000000    
--------------------------------------------------------------------------------



********************************************************************************
*  General input information                                                   *
********************************************************************************

  Species output for all configurations : 

--------------------------------------------------------------------------------
  Species    Type    Atomic    Atomic    Charge       Radii (Angs)     Library
                     Number     Mass       (e)     Cova   Ionic  VDW   Symbol
--------------------------------------------------------------------------------
    Ge       Core       32      72.61   4.000000   1.170  0.000  1.750 Ge       
    Si       Core       14      28.09   4.000000   1.200  0.000  2.100 Si       
    O1       Core        8      16.00   1.733957   0.730  0.000  1.360 O1       
    O2       Core        8      16.00   0.870733   0.730  0.000  0.000 O2       
    O3       Core        8      16.00   1.330431   0.730  0.000  1.360 O3       
    O1       Shell       8       0.00  -3.733957   0.730  0.000  0.000 O1       
    O2       Shell       8       0.00  -2.870733   0.730  0.000  0.000 O2       
    O3       Shell       8       0.00  -3.330431   0.730  0.000  0.000 O3       
--------------------------------------------------------------------------------


  Lattice summation method               =    Ewald          (3-D)
                                         =    Parry          (2-D)
                                         =    Saunders et al (1-D)
  Accuracy factor for lattice sums       =   12.000


  Analytic derivatives to be used

  Time limit = Infinity

  Maximum range for interatomic potentials =    100000.000000 Angstroms

  General interatomic potentials :

--------------------------------------------------------------------------------
Atom  Types   Potential      Parameter       Value         Units   Cutoffs(Ang)
  1     2                                                            Min /  Max 
--------------------------------------------------------------------------------
Si   c O1   s Buckingham    Buckingham A     1315.2478    eV        0.000 16.000
                            Buckingham rho  0.31775900    Ang       
                            Buckingham C     10.141118    eV*Ang^6  
--------------------------------------------------------------------------------
Si   c O2   s Buckingham    Buckingham A     1315.2478    eV        0.000 16.000
                            Buckingham rho  0.31775900    Ang       
                            Buckingham C     10.141118    eV*Ang^6  
--------------------------------------------------------------------------------
Si   c O3   s Buckingham    Buckingham A     1315.2478    eV        0.000 16.000
                            Buckingham rho  0.31775900    Ang       
                            Buckingham C     10.141118    eV*Ang^6  
--------------------------------------------------------------------------------
Ge   c O1   s Buckingham    Buckingham A     1497.3996    eV        0.000 16.000
                            Buckingham rho  0.32564600    Ang       
                            Buckingham C     16.808599    eV*Ang^6  
--------------------------------------------------------------------------------
Ge   c O2   s Buckingham    Buckingham A     1497.3996    eV        0.000 16.000
                            Buckingham rho  0.32564600    Ang       
                            Buckingham C     16.808599    eV*Ang^6  
--------------------------------------------------------------------------------
Ge   c O3   s Buckingham    Buckingham A     1497.3996    eV        0.000 16.000
                            Buckingham rho  0.32564600    Ang       
                            Buckingham C     16.808599    eV*Ang^6  
--------------------------------------------------------------------------------
O1   s O1   s Buckingham    Buckingham A     22764.000    eV        0.000 16.000
                            Buckingham rho  0.14900000    Ang       
                            Buckingham C     10.937044    eV*Ang^6  
--------------------------------------------------------------------------------
O1   s O2   s Buckingham    Buckingham A     22764.000    eV        0.000 16.000
                            Buckingham rho  0.14900000    Ang       
                            Buckingham C     10.937044    eV*Ang^6  
--------------------------------------------------------------------------------
O1   s O3   s Buckingham    Buckingham A     22764.000    eV        0.000 16.000
                            Buckingham rho  0.14900000    Ang       
                            Buckingham C     10.937044    eV*Ang^6  
--------------------------------------------------------------------------------
O2   s O2   s Buckingham    Buckingham A     22764.000    eV        0.000 16.000
                            Buckingham rho  0.14900000    Ang       
                            Buckingham C     10.937044    eV*Ang^6  
--------------------------------------------------------------------------------
O2   s O3   s Buckingham    Buckingham A     22764.000    eV        0.000 16.000
                            Buckingham rho  0.14900000    Ang       
                            Buckingham C     10.937044    eV*Ang^6  
--------------------------------------------------------------------------------
O3   s O3   s Buckingham    Buckingham A     22764.000    eV        0.000 16.000
                            Buckingham rho  0.14900000    Ang       
                            Buckingham C     10.937044    eV*Ang^6  
--------------------------------------------------------------------------------
O1   c O1   s Spring (c-s)  Spring k 2       180.31577    eV*Ang^-2 0.000  0.800
                            Spring k 4       0.0000000    eV*Ang^-4 
--------------------------------------------------------------------------------
O2   c O2   s Spring (c-s)  Spring k 2       75.969800    eV*Ang^-2 0.000  0.800
                            Spring k 4       0.0000000    eV*Ang^-4 
--------------------------------------------------------------------------------
O3   c O3   s Spring (c-s)  Spring k 2       128.14270    eV*Ang^-2 0.000  0.800
                            Spring k 4       0.0000000    eV*Ang^-4 
--------------------------------------------------------------------------------

  General Three-body potentials :

--------------------------------------------------------------------------------
  Atoms       Potential      Parameter       Value         Units   Cutoffs(Ang)
  1 / 2 / 3                                                          Min /  Max 
--------------------------------------------------------------------------------
Si    core    Harmonic      Three-body cnst  1.2614000    eV*rad^-2 0.000  1.900
O1    shel                  Three-body angl  109.47000    degrees   0.000  1.900
O1    shel                  Three-body k4    0.0000000    eV*rad^-4 0.000  3.500
                            Three-body k3    0.0000000    eV*rad^-3 
--------------------------------------------------------------------------------
Si    core    Harmonic      Three-body cnst  1.2614000    eV*rad^-2 0.000  1.900
O1    shel                  Three-body angl  109.47000    degrees   0.000  1.900
õ(1   shel                  Three-body k4    0.0000000    eV*rad^-4 0.000  3.500
                            Three-body k3    0.0000000    eV*rad^-3 
--------------------------------------------------------------------------------
Si    core    Harmonic      Three-body cnst  1.2614000    eV*rad^-2 0.000  1.900
õ(1   shel                  Three-body angl  109.47000    degrees   0.000  1.900
õ(1   shel                  Three-body k4    0.0000000    eV*rad^-4 0.000  3.500
                            Three-body k3    0.0000000    eV*rad^-3 
--------------------------------------------------------------------------------
Si    core    Harmonic      Three-body cnst  1.2614000    eV*rad^-2 0.000  1.900
O1    shel                  Three-body angl  109.47000    degrees   0.000  1.900
O2    shel                  Three-body k4    0.0000000    eV*rad^-4 0.000  3.500
                            Three-body k3    0.0000000    eV*rad^-3 
--------------------------------------------------------------------------------
Si    core    Harmonic      Three-body cnst  1.2614000    eV*rad^-2 0.000  1.900
O1    shel                  Three-body angl  109.47000    degrees   0.000  1.900
õ(2   shel                  Three-body k4    0.0000000    eV*rad^-4 0.000  3.500
                            Three-body k3    0.0000000    eV*rad^-3 
--------------------------------------------------------------------------------
Si    core    Harmonic      Three-body cnst  1.2614000    eV*rad^-2 0.000  1.900
O2    shel                  Three-body angl  109.47000    degrees   0.000  1.900
õ(1   shel                  Three-body k4    0.0000000    eV*rad^-4 0.000  3.500
                            Three-body k3    0.0000000    eV*rad^-3 
--------------------------------------------------------------------------------
Si    core    Harmonic      Three-body cnst  1.2614000    eV*rad^-2 0.000  1.900
õ(1   shel                  Three-body angl  109.47000    degrees   0.000  1.900
õ(2   shel                  Three-body k4    0.0000000    eV*rad^-4 0.000  3.500
                            Three-body k3    0.0000000    eV*rad^-3 
--------------------------------------------------------------------------------
Si    core    Harmonic      Three-body cnst  1.2614000    eV*rad^-2 0.000  1.900
O2    shel                  Three-body angl  109.47000    degrees   0.000  1.900
O2    shel                  Three-body k4    0.0000000    eV*rad^-4 0.000  3.500
                            Three-body k3    0.0000000    eV*rad^-3 
--------------------------------------------------------------------------------
Si    core    Harmonic      Three-body cnst  1.2614000    eV*rad^-2 0.000  1.900
O2    shel                  Three-body angl  109.47000    degrees   0.000  1.900
õ(2   shel                  Three-body k4    0.0000000    eV*rad^-4 0.000  3.500
                            Three-body k3    0.0000000    eV*rad^-3 
--------------------------------------------------------------------------------
Si    core    Harmonic      Three-body cnst  1.2614000    eV*rad^-2 0.000  1.900
õ(2   shel                  Three-body angl  109.47000    degrees   0.000  1.900
õ(2   shel                  Three-body k4    0.0000000    eV*rad^-4 0.000  3.500
                            Three-body k3    0.0000000    eV*rad^-3 
--------------------------------------------------------------------------------

********************************************************************************
*  Output for configuration   1 : c00011.vasp                                  *
********************************************************************************


  Components of energy : 

--------------------------------------------------------------------------------
  Interatomic potentials     =         912.64032029 eV    
  Three-body potentials      =           0.00000000 eV    
  Monopole - monopole (real) =       -2676.00317478 eV    
  Monopole - monopole (recip)=       -1115.35404472 eV    
  Monopole - monopole (total)=       -3791.35721950 eV    
--------------------------------------------------------------------------------
  Total lattice energy       =       -2878.71689922 eV    
--------------------------------------------------------------------------------
  Total lattice energy       =         -277752.1756 kJ/(mole unit cells)
--------------------------------------------------------------------------------


  Number of variables =      363

  Maximum number of calculations  =          1000
  Maximum Hessian update interval =            10
  Maximum step size               =   0.100000000
  Maximum parameter tolerance     =   0.000010000
  Maximum function  tolerance     =   0.000010000
  Maximum gradient  tolerance     =   0.001000000
  Maximum gradient  component     =   0.010000000

  Symmetry not applied to optimisation

  Cell parameters to be optimised using strains

  Newton-Raphson optimiser to be used

  BFGS hessian update to be used

  Lower half triangular hessian to be used

  Minimiser to switch to RFO
  When gradient norm is less than     0.050000

  Dumpfile to be written after every cycle

  Start of bulk optimisation :

  Cycle:      0 Energy:     -2878.716899  Gnorm:      5.963702  CPU:    0.090
  ** Hessian calculated **
  Cycle:      1 Energy:     -2924.599599  Gnorm:      1.442578  CPU:    0.202
  ** Hessian calculated **
  Cycle:      2 Energy:     -2928.471878  Gnorm:      0.971639  CPU:    0.386
  ** Hessian calculated **
  Cycle:      3 Energy:     -2930.758119  Gnorm:      0.436479  CPU:    0.542
  Cycle:      4 Energy:     -2931.161476  Gnorm:      0.201539  CPU:    0.619
  Cycle:      5 Energy:     -2931.305281  Gnorm:      0.167624  CPU:    0.711
  Cycle:      6 Energy:     -2931.486258  Gnorm:      0.138779  CPU:    0.803
  Cycle:      7 Energy:     -2931.668486  Gnorm:      0.133951  CPU:    0.894
  Cycle:      8 Energy:     -2931.757964  Gnorm:      0.095138  CPU:    0.972
  Cycle:      9 Energy:     -2931.799518  Gnorm:      0.081816  CPU:    1.049
  Cycle:     10 Energy:     -2931.833315  Gnorm:      0.072337  CPU:    1.140
  Cycle:     11 Energy:     -2931.862796  Gnorm:      0.071028  CPU:    1.231
  Cycle:     12 Energy:     -2931.895276  Gnorm:      0.077376  CPU:    1.323
  ** Hessian calculated **
  Cycle:     13 Energy:     -2931.917331  Gnorm:      0.076224  CPU:    1.493
  Cycle:     14 Energy:     -2931.956554  Gnorm:      0.074107  CPU:    1.598
  Cycle:     15 Energy:     -2932.023051  Gnorm:      0.070319  CPU:    1.704
  Cycle:     16 Energy:     -2932.106422  Gnorm:      0.065280  CPU:    1.797
  Cycle:     17 Energy:     -2932.238481  Gnorm:      0.056672  CPU:    1.903
  Cycle:     18 Energy:     -2932.311508  Gnorm:      0.054419  CPU:    1.995
  ** Hessian calculated **
  Cycle:     19 Energy:     -2932.317377  Gnorm:      0.044947  CPU:    2.166
  ** Hessian has required structure
  Cycle:     20 Energy:     -2932.324961  Gnorm:      0.063215  CPU:    2.291
  ** Hessian has required structure
  Cycle:     21 Energy:     -2932.337122  Gnorm:      0.051758  CPU:    2.431
  ** Hessian has required structure
  Cycle:     22 Energy:     -2932.344061  Gnorm:      0.080235  CPU:    2.557
  ** Hessian has required structure
  Cycle:     23 Energy:     -2932.351823  Gnorm:      0.076098  CPU:    2.682
  ** Hessian has required structure
  Cycle:     24 Energy:     -2932.358212  Gnorm:      0.070084  CPU:    2.792
  ** Hessian has required structure
  Cycle:     25 Energy:     -2932.363251  Gnorm:      0.070921  CPU:    2.902
  ** Hessian has required structure
  Cycle:     26 Energy:     -2932.370180  Gnorm:      0.068836  CPU:    3.012
  ** Hessian has required structure
  Cycle:     27 Energy:     -2932.373892  Gnorm:      0.069155  CPU:    3.122
  ** Hessian has required structure
  Cycle:     28 Energy:     -2932.376206  Gnorm:      0.081714  CPU:    3.233
  ** Hessian has wrong structure
  ** Imaginary eigenvectors =   5
  ** Hessian has wrong structure
  ** Imaginary eigenvectors =   5
  Cycle:     29 Energy:     -2932.445187  Gnorm:      0.088451  CPU:    3.694
  ** Hessian has wrong structure
  ** Imaginary eigenvectors =   4
  ** Hessian has wrong structure
  ** Imaginary eigenvectors =   4
  Cycle:     30 Energy:     -2932.507617  Gnorm:      0.096197  CPU:    4.135
  ** Hessian has wrong structure
  ** Imaginary eigenvectors =   2
  Cycle:     31 Energy:     -2932.666639  Gnorm:      0.143333  CPU:    4.444
  ** Hessian has required structure
  Cycle:     32 Energy:     -2933.060678  Gnorm:      0.097478  CPU:    4.657
  ** Hessian has required structure
  Cycle:     33 Energy:     -2933.228439  Gnorm:      0.052288  CPU:    4.796
  ** Hessian has required structure
  Cycle:     34 Energy:     -2933.301676  Gnorm:      0.058907  CPU:    4.921
  ** Hessian has required structure
  Cycle:     35 Energy:     -2933.344894  Gnorm:      0.055324  CPU:    5.046
  ** Hessian has required structure
  Cycle:     36 Energy:     -2933.384548  Gnorm:      0.047002  CPU:    5.171
  ** Hessian has required structure
  Cycle:     37 Energy:     -2933.393909  Gnorm:      0.058578  CPU:    5.281
  ** Hessian has required structure
  Cycle:     38 Energy:     -2933.413066  Gnorm:      0.043506  CPU:    5.407
  ** Hessian has required structure
  Cycle:     39 Energy:     -2933.424106  Gnorm:      0.026973  CPU:    5.533
  ** Hessian has required structure
  Cycle:     40 Energy:     -2933.431187  Gnorm:      0.017361  CPU:    5.659
  ** Hessian has required structure
  Cycle:     41 Energy:     -2933.435305  Gnorm:      0.011820  CPU:    5.784
  ** Hessian has required structure
  Cycle:     42 Energy:     -2933.439922  Gnorm:      0.006271  CPU:    5.994
  ** Hessian has required structure
  Cycle:     43 Energy:     -2933.441179  Gnorm:      0.003541  CPU:    6.133
  ** Hessian has required structure
  Cycle:     44 Energy:     -2933.441545  Gnorm:      0.001884  CPU:    6.271
  ** Hessian has required structure
  Cycle:     45 Energy:     -2933.441650  Gnorm:      0.000987  CPU:    6.409
  ** Hessian has required structure
  Cycle:     46 Energy:     -2933.441673  Gnorm:      0.000505  CPU:    6.550
  ** Hessian has required structure
  Cycle:     47 Energy:     -2933.441676  Gnorm:      0.000420  CPU:    6.661
  ** Hessian has required structure
  Cycle:     48 Energy:     -2933.441676  Gnorm:      0.000415  CPU:    6.770
  ** Hessian has required structure
  Cycle:     49 Energy:     -2933.441677  Gnorm:      0.000371  CPU:    6.881
  ** Hessian has required structure
  Cycle:     50 Energy:     -2933.441680  Gnorm:      0.000275  CPU:    7.005
  ** Hessian has required structure
  Cycle:     51 Energy:     -2933.441681  Gnorm:      0.000199  CPU:    7.116
  ** Hessian has required structure
  Cycle:     52 Energy:     -2933.441683  Gnorm:      0.000140  CPU:    7.298
  ** Hessian has required structure
  Cycle:     53 Energy:     -2933.441683  Gnorm:      0.000098  CPU:    7.408
  ** Hessian has required structure
  Cycle:     54 Energy:     -2933.441683  Gnorm:      0.000069  CPU:    7.519
  ** Hessian has required structure


  **** Optimisation achieved ****


  Final energy =   -2933.44168413 eV      
  Final Gnorm  =       0.00005486

  Components of energy : 

--------------------------------------------------------------------------------
  Interatomic potentials     =         773.10807446 eV    
  Three-body potentials      =           0.00000000 eV    
  Monopole - monopole (real) =       -1485.84763737 eV    
  Monopole - monopole (recip)=       -2220.70212122 eV    
  Monopole - monopole (total)=       -3706.54975860 eV    
--------------------------------------------------------------------------------
  Total lattice energy       =       -2933.44168413 eV    
--------------------------------------------------------------------------------
  Total lattice energy       =         -283032.2808 kJ/(mole unit cells)
--------------------------------------------------------------------------------

  Final fractional coordinates of atoms :

--------------------------------------------------------------------------------
   No.  Atomic        x           y          z          Radius
        Label       (Frac)      (Frac)     (Frac)       (Angs) 
--------------------------------------------------------------------------------
     1  Ge    c     0.052090    0.000000    0.372270    0.000000
     2  Ge    c     0.443546    0.949632    0.409414    0.000000
     3  Ge    c     0.943955    0.949225    0.618407    0.000000
     4  Ge    c     0.545026    0.003734    0.663927    0.000000
     5  Ge    c     0.554748    0.000569    0.171286    0.000000
     6  Ge    c     0.951127    0.935336    0.115952    0.000000
     7  Ge    c     0.445647    0.941945    0.923101    0.000000
     8  Ge    c     0.053770    0.004166    0.864349    0.000000
     9  Ge    c     0.149860    0.313744    0.301202    0.000000
    10  Ge    c     0.354023    0.632755    0.292129    0.000000
    11  Ge    c     0.823122    0.235674    0.732296    0.000000
    12  Ge    c     0.670048    0.719327    0.735062    0.000000
    13  Ge    c     0.851045    0.636099    0.735832    0.000000
    14  Ge    c     0.642151    0.318456    0.733187    0.000000
    15  Ge    c     0.173156    0.712794    0.300647    0.000000
    16  Ge    c     0.645509    0.312412    0.049037    0.000000
    17  Ge    c     0.853466    0.623919    0.052987    0.000000
    18  Ge    c     0.325828    0.241230    0.985276    0.000000
    19  Ge    c     0.172031    0.715395    0.984924    0.000000
    20  Ge    c     0.144457    0.316001    0.983824    0.000000
    21  Ge    c     0.673829    0.714377    0.051762    0.000000
    22  Ge    c     0.826068    0.224659    0.047505    0.000000
    23  Si    c     0.327788    0.238055    0.292875    0.000000
    24  Si    c     0.349805    0.633893    0.985585    0.000000
    25  O1    c     0.089436    0.197095    0.392906    0.000000
    26  O1    c     0.418839    0.743976    0.378367    0.000000
    27  O1    c     0.868674    0.088289    0.637508    0.000000
    28  O1    c     0.620026    0.862250    0.639431    0.000000
    29  O1    c     0.917271    0.745642    0.650763    0.000000
    30  O1    c     0.577162    0.206484    0.646146    0.000000
    31  O1    c     0.124635    0.852031    0.397713    0.000000
    32  O3    c     0.369653    0.093956    0.379780    0.000000
    33  O1    c     0.972589    0.962893    0.458376    0.000000
    34  O1    c     0.466891    0.965136    0.571919    0.000000
    35  O1    c     0.026692    0.983636    0.209462    0.000000
    36  O1    c     0.525492    0.996459    0.330345    0.000000
    37  O1    c     0.023688    0.001054    0.705128    0.000000
    38  O1    c     0.520579    0.971918    0.825184    0.000000
    39  O1    c     0.580610    0.204637    0.136988    0.000000
    40  O1    c     0.918461    0.733429    0.141185    0.000000
    41  O1    c     0.377573    0.101242    0.895424    0.000000
    42  O1    c     0.132365    0.872040    0.888818    0.000000
    43  O3    c     0.405428    0.744570    0.899297    0.000000
    44  O1    c     0.077424    0.209222    0.899578    0.000000
    45  O1    c     0.630133    0.861182    0.149086    0.000000
    46  O1    c     0.876411    0.078253    0.138501    0.000000
    47  O1    c     0.477112    0.944791    0.081609    0.000000
    48  O1    c     0.978965    0.940023    0.955141    0.000000
    49  O1    c     0.157699    0.511818    0.362256    0.000000
    50  O3    c     0.344214    0.425512    0.347825    0.000000
    51  O1    c     0.838122    0.437610    0.672888    0.000000
    52  O1    c     0.654305    0.518729    0.674324    0.000000
    53  O3    c     0.238105    0.209380    0.293482    0.000000
    54  O1    c     0.268879    0.742239    0.304220    0.000000
    55  O1    c     0.727424    0.204482    0.733241    0.000000
    56  O1    c     0.765945    0.750482    0.732240    0.000000
    57  O1    c     0.117350    0.329862    0.143374    0.000000
    58  O3    c     0.382675    0.617607    0.132417    0.000000
    59  O1    c     0.857445    0.215356    0.889091    0.000000
    60  O1    c     0.640342    0.730799    0.894399    0.000000
    61  O1    c     0.881379    0.606446    0.893334    0.000000
    62  O1    c     0.612830    0.333735    0.891857    0.000000
    63  O1    c     0.140029    0.729785    0.142164    0.000000
    64  O3    c     0.357321    0.223210    0.145581    0.000000
    65  O1    c     0.659073    0.511035    0.109762    0.000000
    66  O1    c     0.841549    0.423608    0.111757    0.000000
    67  O3    c     0.339561    0.447779    0.928361    0.000000
    68  O1    c     0.151420    0.519188    0.923917    0.000000
    69  O1    c     0.730248    0.196025    0.048730    0.000000
    70  O1    c     0.769672    0.742858    0.051708    0.000000
    71  O1    c     0.230918    0.207828    0.974428    0.000000
    72  O3    c     0.269217    0.735446    0.993637    0.000000
    73  O1    s     0.091200    0.191296    0.384529    0.000000
    74  O1    s     0.415665    0.750614    0.374024    0.000000
    75  O1    s     0.870978    0.088934    0.643383    0.000000
    76  O1    s     0.618398    0.861581    0.648498    0.000000
    77  O1    s     0.914279    0.752748    0.654735    0.000000
    78  O1    s     0.579584    0.199851    0.653829    0.000000
    79  O1    s     0.122994    0.852262    0.388427    0.000000
    80  O3    s     0.371432    0.096763    0.373394    0.000000
    81  O1    s     0.976780    0.964802    0.463119    0.000000
    82  O1    s     0.471260    0.966987    0.567180    0.000000
    83  O1    s     0.022474    0.980987    0.213449    0.000000
    84  O1    s     0.521551    0.993260    0.324617    0.000000
    85  O1    s     0.020090    0.997467    0.710542    0.000000
    86  O1    s     0.516307    0.971839    0.821619    0.000000
    87  O1    s     0.583699    0.197681    0.132748    0.000000
    88  O1    s     0.916003    0.739766    0.132897    0.000000
    89  O1    s     0.378391    0.100857    0.904532    0.000000
    90  O1    s     0.129642    0.869525    0.894563    0.000000
    91  O3    s     0.403050    0.748525    0.909383    0.000000
    92  O1    s     0.080848    0.202271    0.903484    0.000000
    93  O1    s     0.627811    0.860329    0.143201    0.000000
    94  O1    s     0.877918    0.079293    0.129769    0.000000
    95  O1    s     0.480543    0.948762    0.076595    0.000000
    96  O1    s     0.982578    0.944509    0.959710    0.000000
    97  O1    s     0.158193    0.510589    0.352976    0.000000
    98  O3    s     0.343468    0.424161    0.338519    0.000000
    99  O1    s     0.838002    0.437717    0.681814    0.000000
   100  O1    s     0.654482    0.517462    0.683184    0.000000
   101  O3    s     0.239999    0.220039    0.293984    0.000000
   102  O1    s     0.268000    0.731763    0.303042    0.000000
   103  O1    s     0.728448    0.214971    0.733185    0.000000
   104  O1    s     0.764986    0.739964    0.732713    0.000000
   105  O1    s     0.121800    0.327627    0.143211    0.000000
   106  O3    s     0.377346    0.620333    0.131323    0.000000
   107  O1    s     0.852699    0.217473    0.889007    0.000000
   108  O1    s     0.644951    0.728765    0.894528    0.000000
   109  O1    s     0.877039    0.609956    0.893120    0.000000
   110  O1    s     0.617435    0.331011    0.891898    0.000000
   111  O1    s     0.144726    0.727531    0.142007    0.000000
   112  O3    s     0.352142    0.225947    0.147208    0.000000
   113  O1    s     0.659103    0.510601    0.101056    0.000000
   114  O1    s     0.841376    0.425056    0.102680    0.000000
   115  O3    s     0.339539    0.450619    0.938219    0.000000
   116  O1    s     0.152408    0.518495    0.932850    0.000000
   117  O1    s     0.731379    0.206474    0.048658    0.000000
   118  O1    s     0.768548    0.732162    0.051771    0.000000
   119  O1    s     0.231970    0.218207    0.975942    0.000000
   120  O3    s     0.269126    0.724379    0.992229    0.000000
--------------------------------------------------------------------------------

  Final Cartesian lattice vectors (Angstroms) :

       17.635589    0.269987   -0.084222
        0.118898    7.867121    0.038082
       -0.050550    0.053497   10.275414


  Final cell parameters and derivatives :

--------------------------------------------------------------------------------
       a           17.637857 Angstrom     dE/de1(xx)     0.004358 eV/strain
       b            7.868111 Angstrom     dE/de2(yy)     0.004419 eV/strain
       c           10.275677 Angstrom     dE/de3(zz)     0.003193 eV/strain
       alpha       89.428693 Degrees      dE/de4(yz)    -0.000146 eV/strain
       beta        90.550849 Degrees      dE/de5(xz)    -0.000351 eV/strain
       gamma       88.258416 Degrees      dE/de6(xy)     0.000228 eV/strain
--------------------------------------------------------------------------------

  Primitive cell volume =          1425.223975 Angs**3

  Density of cell =      2.821469 g/cm**3

  Non-primitive cell volume =          1425.223975 Angs**3


  Final internal derivatives :

--------------------------------------------------------------------------------
   No.  Atomic          a             b             c           Radius
        Label          (eV)          (eV)          (eV)        (eV/Angs)
--------------------------------------------------------------------------------
      1 Ge    c       0.000000      0.000000      0.000000      0.000000
      2 Ge    c       0.000833      0.000344      0.000830      0.000000
      3 Ge    c      -0.000522      0.000641      0.000312      0.000000
      4 Ge    c      -0.000309      0.000281     -0.000365      0.000000
      5 Ge    c       0.000437     -0.000300      0.000199      0.000000
      6 Ge    c      -0.002787     -0.000735      0.000845      0.000000
      7 Ge    c       0.000057     -0.000187      0.000477      0.000000
      8 Ge    c       0.002613     -0.001370     -0.001836      0.000000
      9 Ge    c      -0.000614     -0.000089      0.000061      0.000000
     10 Ge    c       0.000527      0.000369      0.000438      0.000000
     11 Ge    c      -0.000129     -0.000142     -0.000802      0.000000
     12 Ge    c      -0.000568      0.000524     -0.000610      0.000000
     13 Ge    c      -0.001243      0.000056     -0.000793      0.000000
     14 Ge    c      -0.000324     -0.000427     -0.000670      0.000000
     15 Ge    c      -0.001647      0.000614     -0.000286      0.000000
     16 Ge    c      -0.000117     -0.000074      0.000274      0.000000
     17 Ge    c       0.000862      0.000384      0.000489      0.000000
     18 Ge    c       0.001547     -0.000637     -0.000233      0.000000
     19 Ge    c      -0.001547      0.000361     -0.000100      0.000000
     20 Ge    c      -0.000064     -0.000112     -0.000140      0.000000
     21 Ge    c      -0.000565      0.000059      0.000986      0.000000
     22 Ge    c      -0.000372     -0.000432      0.000862      0.000000
     23 Si    c       0.001277     -0.000586      0.000304      0.000000
     24 Si    c       0.001615      0.000583     -0.000631      0.000000
     25 O1    c       0.001020      0.000837      0.001032      0.000000
     26 O1    c      -0.000695     -0.001835     -0.000572      0.000000
     27 O1    c      -0.001710      0.000335      0.000315      0.000000
     28 O1    c       0.000716      0.000059      0.001064      0.000000
     29 O1    c      -0.000108     -0.001529      0.000059      0.000000
     30 O1    c       0.000118     -0.000181      0.000447      0.000000
     31 O1    c       0.003718     -0.001968      0.000352      0.000000
     32 O3    c      -0.001791      0.000712     -0.000305      0.000000
     33 O1    c      -0.002693     -0.000119      0.000764      0.000000
     34 O1    c       0.001933      0.000393      0.000116      0.000000
     35 O1    c       0.000361     -0.000498     -0.001912      0.000000
     36 O1    c       0.001077     -0.000023     -0.000710      0.000000
     37 O1    c       0.002635      0.000094      0.000566      0.000000
     38 O1    c      -0.000185     -0.000633      0.000028      0.000000
     39 O1    c      -0.000388      0.000422     -0.000122      0.000000
     40 O1    c       0.000428      0.000501     -0.000077      0.000000
     41 O1    c      -0.002596      0.001061      0.000429      0.000000
     42 O1    c       0.002856     -0.000856      0.000533      0.000000
     43 O3    c      -0.001654     -0.000675      0.000197      0.000000
     44 O1    c       0.003320      0.004289      0.000893      0.000000
     45 O1    c       0.000028      0.000401     -0.001064      0.000000
     46 O1    c      -0.000860      0.000044     -0.000723      0.000000
     47 O1    c       0.000473      0.000480      0.000371      0.000000
     48 O1    c      -0.009198     -0.000035      0.001900      0.000000
     49 O1    c      -0.002331     -0.001624      0.000397      0.000000
     50 O3    c       0.000601      0.000032      0.000149      0.000000
     51 O1    c      -0.000279     -0.000337     -0.000163      0.000000
     52 O1    c       0.000420      0.000197     -0.000158      0.000000
     53 O3    c      -0.000695     -0.000680      0.000049      0.000000
     54 O1    c       0.001550      0.000974      0.000196      0.000000
     55 O1    c       0.000799     -0.000247      0.000078      0.000000
     56 O1    c       0.000529      0.000425      0.000266      0.000000
     57 O1    c      -0.000577     -0.000080      0.001737      0.000000
     58 O3    c       0.000881      0.000091     -0.000949      0.000000
     59 O1    c       0.000659     -0.000386      0.000161      0.000000
     60 O1    c       0.000345     -0.000050     -0.000581      0.000000
     61 O1    c       0.002201      0.000184      0.001836      0.000000
     62 O1    c      -0.000557      0.000065     -0.000590      0.000000
     63 O1    c       0.000330      0.000116      0.000035      0.000000
     64 O3    c      -0.000210      0.000171     -0.000184      0.000000
     65 O1    c       0.000802      0.001020     -0.000215      0.000000
     66 O1    c      -0.000473     -0.000499      0.000699      0.000000
     67 O3    c       0.000296      0.000207     -0.000407      0.000000
     68 O1    c      -0.000440      0.000019     -0.000210      0.000000
     69 O1    c       0.000782     -0.000808     -0.000177      0.000000
     70 O1    c      -0.001932      0.000750     -0.000278      0.000000
     71 O1    c      -0.000168     -0.000974     -0.000169      0.000000
     72 O3    c      -0.000872      0.000805      0.000052      0.000000
     73 O1    s      -0.000034      0.000820     -0.000556      0.000000
     74 O1    s      -0.000089      0.000991      0.001035      0.000000
     75 O1    s       0.000161      0.000240     -0.000258      0.000000
     76 O1    s      -0.000342     -0.000346     -0.001225      0.000000
     77 O1    s      -0.000497      0.000532     -0.000733      0.000000
     78 O1    s      -0.000468      0.000315      0.000017      0.000000
     79 O1    s      -0.000906      0.000376      0.000678      0.000000
     80 O3    s       0.000898     -0.000268     -0.000090      0.000000
     81 O1    s      -0.000557     -0.000118     -0.001253      0.000000
     82 O1    s      -0.000082     -0.000492      0.000315      0.000000
     83 O1    s      -0.000871      0.001093      0.000723      0.000000
     84 O1    s       0.000311      0.000268      0.000670      0.000000
     85 O1    s      -0.000749      0.000014     -0.001211      0.000000
     86 O1    s       0.000640      0.000762     -0.000050      0.000000
     87 O1    s       0.000253     -0.000437      0.000588      0.000000
     88 O1    s       0.000125     -0.000614      0.000016      0.000000
     89 O1    s       0.001655     -0.000356     -0.001254      0.000000
     90 O1    s       0.000667     -0.000515     -0.000363      0.000000
     91 O3    s       0.001525     -0.000046     -0.000299      0.000000
     92 O1    s      -0.000710     -0.001097     -0.001562      0.000000
     93 O1    s      -0.000003     -0.000370      0.000278      0.000000
     94 O1    s       0.000214      0.000396      0.000803      0.000000
     95 O1    s       0.000171     -0.000906      0.000121      0.000000
     96 O1    s       0.001536     -0.000434     -0.000632      0.000000
     97 O1    s       0.002138      0.000579     -0.000670      0.000000
     98 O3    s      -0.000637     -0.000249      0.000356      0.000000
     99 O1    s      -0.000006     -0.000063     -0.000308      0.000000
    100 O1    s      -0.000496      0.000088     -0.000127      0.000000
    101 O3    s      -0.000354      0.000828      0.000176      0.000000
    102 O1    s      -0.000685     -0.000817      0.000086      0.000000
    103 O1    s      -0.000892      0.000067     -0.000250      0.000000
    104 O1    s      -0.001499     -0.000367     -0.000572      0.000000
    105 O1    s      -0.000527     -0.000159     -0.000363      0.000000
    106 O3    s       0.000232      0.000135      0.000394      0.000000
    107 O1    s       0.000639      0.000380      0.000030      0.000000
    108 O1    s      -0.000693     -0.000046      0.000402      0.000000
    109 O1    s       0.000291     -0.000169     -0.000730      0.000000
    110 O1    s      -0.000744     -0.000159     -0.000076      0.000000
    111 O1    s      -0.000673     -0.000174     -0.000218      0.000000
    112 O3    s       0.000827     -0.000292      0.000408      0.000000
    113 O1    s      -0.000696     -0.000183      0.000543      0.000000
    114 O1    s       0.000537      0.000046     -0.000223      0.000000
    115 O3    s      -0.000016     -0.000060     -0.000060      0.000000
    116 O1    s       0.000084      0.000230     -0.000159      0.000000
    117 O1    s       0.000305      0.000505      0.000468      0.000000
    118 O1    s       0.000587     -0.000284      0.000686      0.000000
    119 O1    s       0.000357      0.000593     -0.000240      0.000000
    120 O3    s       0.000523     -0.000590     -0.000056      0.000000
--------------------------------------------------------------------------------
  Maximum abs         0.009198      0.004289      0.001912      0.000000
--------------------------------------------------------------------------------


  Born effective charge tensors : 

-------------------------------------------------------------------------------
  Atom             x           y             z
-------------------------------------------------------------------------------
    1 Ge    x       4.1880      0.2499      0.0840
            y      -0.0609      3.9265      0.0331
            z      -0.8078     -0.1170      4.1531
-------------------------------------------------------------------------------
    2 Ge    x       4.0248      0.2964      0.4563
            y      -0.1317      3.9756      0.0873
            z       0.1995      0.0693      4.4624
-------------------------------------------------------------------------------
    3 Ge    x       4.1812      0.2548     -0.4577
            y      -0.1411      3.9291     -0.0805
            z      -0.2399     -0.0137      4.4315
-------------------------------------------------------------------------------
    4 Ge    x       4.1407      0.2738     -0.0916
            y      -0.1006      3.9254     -0.0258
            z       0.7894      0.1113      4.2636
-------------------------------------------------------------------------------
    5 Ge    x       4.2938      0.2213     -0.4147
            y      -0.1403      3.9586     -0.0359
            z      -0.3358      0.0115      3.9251
-------------------------------------------------------------------------------
    6 Ge    x       4.3157      0.2099     -0.0480
            y      -0.0982      3.9401      0.0124
            z       0.6276      0.1944      3.6678
-------------------------------------------------------------------------------
    7 Ge    x       4.2428      0.1350      0.0226
            y      -0.0963      3.9424     -0.0224
            z      -0.6965     -0.1553      3.6960
-------------------------------------------------------------------------------
    8 Ge    x       4.2554      0.2473      0.4078
            y      -0.1644      3.9513      0.0649
            z       0.3313     -0.0010      3.9907
-------------------------------------------------------------------------------
    9 Ge    x       3.8672      0.1458     -0.2551
            y       0.4821      4.1568     -0.0933
            z      -0.0812     -0.1692      3.5705
-------------------------------------------------------------------------------
   10 Ge    x       3.8429      0.0859      0.2136
            y       0.4561      4.1775      0.1705
            z       0.0910      0.2959      3.4798
-------------------------------------------------------------------------------
   11 Ge    x       4.0049     -0.2347     -0.2803
            y      -0.2411      4.1931      0.0787
            z      -0.0034      0.1885      3.6150
-------------------------------------------------------------------------------
   12 Ge    x       4.0458     -0.2534      0.2791
            y      -0.2659      4.1516     -0.0615
            z       0.0168     -0.1380      3.5852
-------------------------------------------------------------------------------
   13 Ge    x       3.9695      0.0667     -0.1864
            y       0.4584      4.1853     -0.1002
            z      -0.0805     -0.2289      3.6089
-------------------------------------------------------------------------------
   14 Ge    x       3.9418      0.0944      0.2017
            y       0.4594      4.2113      0.0926
            z       0.0591      0.1940      3.5742
-------------------------------------------------------------------------------
   15 Ge    x       3.9903     -0.2619     -0.2924
            y      -0.2801      4.1446      0.0782
            z      -0.0516      0.1397      3.5703
-------------------------------------------------------------------------------
   16 Ge    x       4.0345      0.0693     -0.2898
            y       0.4459      4.1797     -0.0844
            z      -0.1277     -0.1944      3.5099
-------------------------------------------------------------------------------
   17 Ge    x       4.0187      0.0838      0.2838
            y       0.4331      4.2110      0.0890
            z       0.0924      0.1851      3.4411
-------------------------------------------------------------------------------
   18 Ge    x       4.0020     -0.2451     -0.3081
            y      -0.2982      4.1315      0.1487
            z      -0.0365      0.2160      3.3588
-------------------------------------------------------------------------------
   19 Ge    x       3.8822     -0.2783      0.3549
            y      -0.2442      4.1902     -0.0888
            z       0.0403     -0.1850      3.5215
-------------------------------------------------------------------------------
   20 Ge    x       4.0257      0.0955      0.2759
            y       0.4526      4.1792      0.0927
            z       0.1675      0.1863      3.5019
-------------------------------------------------------------------------------
   21 Ge    x       4.0561     -0.2322     -0.3292
            y      -0.2351      4.1919      0.1084
            z      -0.0274      0.1974      3.5433
-------------------------------------------------------------------------------
   22 Ge    x       4.1034     -0.2579      0.3135
            y      -0.2764      4.1531     -0.0469
            z       0.0294     -0.1381      3.4611
-------------------------------------------------------------------------------
   23 Si    x       3.6494     -0.2480      0.2442
            y      -0.2128      3.9583     -0.0986
            z      -0.0147     -0.2196      3.3231
-------------------------------------------------------------------------------
   24 Si    x       3.6624      0.1090     -0.3069
            y       0.3999      3.9223     -0.0967
            z      -0.0577     -0.1850      3.1629
-------------------------------------------------------------------------------
   25 O1    x      -1.9810     -0.8933      0.3506
            y      -0.8734     -2.5312      0.3097
            z       0.4298      0.3449     -1.5858
-------------------------------------------------------------------------------
   26 O1    x      -1.9025     -0.8491     -0.5256
            y      -0.7817     -2.6427     -0.5710
            z      -0.4687     -0.5772     -1.6685
-------------------------------------------------------------------------------
   27 O1    x      -2.1908      0.8937      0.5257
            y       0.9349     -2.3009     -0.5191
            z       0.4817     -0.5451     -1.6792
-------------------------------------------------------------------------------
   28 O1    x      -2.2071      0.8878     -0.2851
            y       0.9566     -2.2607      0.3339
            z      -0.3654      0.3468     -1.6173
-------------------------------------------------------------------------------
   29 O1    x      -1.9637     -0.8467      0.5204
            y      -0.7912     -2.5377      0.5423
            z       0.4735      0.5409     -1.6489
-------------------------------------------------------------------------------
   30 O1    x      -1.9633     -0.8735     -0.3427
            y      -0.8285     -2.5369     -0.2935
            z      -0.4312     -0.3469     -1.5768
-------------------------------------------------------------------------------
   31 O1    x      -2.1485      0.8778      0.3022
            y       0.9514     -2.2895     -0.3585
            z       0.3856     -0.3659     -1.6203
-------------------------------------------------------------------------------
   32 O3    x      -1.9539      0.8460     -0.5152
            y       0.8770     -2.2720      0.5636
            z      -0.4755      0.5925     -1.6064
-------------------------------------------------------------------------------
   33 O1    x      -2.1302     -0.2291      0.9218
            y      -0.0933     -1.2709      0.1227
            z       1.1621      0.2293     -3.0290
-------------------------------------------------------------------------------
   34 O1    x      -2.0425     -0.2346     -0.9104
            y      -0.0784     -1.2864     -0.1318
            z      -1.1203     -0.2740     -3.1368
-------------------------------------------------------------------------------
   35 O1    x      -2.1313     -0.2474     -0.8220
            y      -0.1178     -1.3562     -0.1867
            z      -0.7901     -0.2530     -2.5915
-------------------------------------------------------------------------------
   36 O1    x      -2.1610     -0.2228      0.7812
            y      -0.0958     -1.3027      0.1162
            z       0.7955      0.1465     -2.6707
-------------------------------------------------------------------------------
   37 O1    x      -2.1074     -0.2439     -0.7922
            y      -0.1279     -1.3089     -0.1548
            z      -0.8172     -0.1881     -2.7409
-------------------------------------------------------------------------------
   38 O1    x      -2.1418     -0.2186      0.8783
            y      -0.0942     -1.3556      0.1869
            z       0.8600      0.2541     -2.6675
-------------------------------------------------------------------------------
   39 O1    x      -2.0161     -0.8361      0.5586
            y      -0.7591     -2.5310      0.5601
            z       0.4882      0.5453     -1.5647
-------------------------------------------------------------------------------
   40 O1    x      -2.0563     -0.8648     -0.3481
            y      -0.8124     -2.5142     -0.2516
            z      -0.3885     -0.2920     -1.4580
-------------------------------------------------------------------------------
   41 O1    x      -2.1407      0.9283      0.3051
            y       0.9888     -2.4310     -0.3368
            z       0.3804     -0.3728     -1.5103
-------------------------------------------------------------------------------
   42 O1    x      -2.2085      0.8865     -0.5377
            y       0.9029     -2.3266      0.5506
            z      -0.4515      0.5334     -1.5938
-------------------------------------------------------------------------------
   43 O3    x      -1.9377     -0.8606      0.3873
            y      -0.8153     -2.3279      0.3315
            z       0.4193      0.3830     -1.4234
-------------------------------------------------------------------------------
   44 O1    x      -2.0132     -0.8277     -0.5432
            y      -0.7573     -2.5576     -0.5656
            z      -0.4875     -0.5434     -1.5583
-------------------------------------------------------------------------------
   45 O1    x      -2.2200      0.8958      0.5565
            y       0.9076     -2.3011     -0.5481
            z       0.4745     -0.5371     -1.6110
-------------------------------------------------------------------------------
   46 O1    x      -2.2539      0.9148     -0.2972
            y       0.9588     -2.2956      0.3257
            z      -0.3584      0.3446     -1.4816
-------------------------------------------------------------------------------
   47 O1    x      -2.1789     -0.2449     -0.7357
            y      -0.1634     -1.3873     -0.1923
            z      -0.5076     -0.1561     -2.2615
-------------------------------------------------------------------------------
   48 O1    x      -2.1431     -0.2559      0.7142
            y      -0.1516     -1.3890      0.1886
            z       0.5006      0.1607     -2.2991
-------------------------------------------------------------------------------
   49 O1    x      -1.3387     -0.1441      0.0925
            y      -0.2543     -3.1410     -0.0212
            z       0.0447     -0.0272     -1.3878
-------------------------------------------------------------------------------
   50 O3    x      -1.2683     -0.1903     -0.0806
            y      -0.2984     -3.0164     -0.0716
            z      -0.0364     -0.0651     -1.3089
-------------------------------------------------------------------------------
   51 O1    x      -1.3641     -0.2090      0.0624
            y      -0.3154     -3.1440     -0.0374
            z       0.0176     -0.0352     -1.4051
-------------------------------------------------------------------------------
   52 O1    x      -1.3595     -0.1995     -0.0743
            y      -0.3172     -3.1472     -0.0030
            z      -0.0305      0.0059     -1.3920
-------------------------------------------------------------------------------
   53 O3    x      -2.9109      0.1797      0.0447
            y       0.0929     -1.4401      0.0054
            z       0.0586      0.0372     -1.1517
-------------------------------------------------------------------------------
   54 O1    x      -2.9902      0.2813      0.0645
            y       0.2015     -1.5854     -0.0453
            z       0.0544     -0.0770     -1.2207
-------------------------------------------------------------------------------
   55 O1    x      -3.0581      0.2776      0.0197
            y       0.1960     -1.5809     -0.0148
            z      -0.0012     -0.0484     -1.2243
-------------------------------------------------------------------------------
   56 O1    x      -3.0506      0.2829      0.0080
            y       0.1953     -1.5807      0.0161
            z       0.0355      0.0459     -1.2209
-------------------------------------------------------------------------------
   57 O1    x      -1.4744     -0.0177     -0.1026
            y      -0.0876     -1.4206      0.0120
            z      -0.0663      0.0131     -2.7404
-------------------------------------------------------------------------------
   58 O3    x      -1.3648     -0.0297     -0.0830
            y      -0.0931     -1.3718      0.0555
            z      -0.0591      0.0278     -2.5204
-------------------------------------------------------------------------------
   59 O1    x      -1.5060      0.1074     -0.0446
            y       0.1163     -1.4242      0.0334
            z      -0.0477      0.0334     -2.7189
-------------------------------------------------------------------------------
   60 O1    x      -1.4950      0.1029     -0.0099
            y       0.1114     -1.4221      0.0158
            z      -0.0031      0.0073     -2.7353
-------------------------------------------------------------------------------
   61 O1    x      -1.4547     -0.0078     -0.0490
            y      -0.0771     -1.4369      0.0299
            z      -0.0522      0.0346     -2.7452
-------------------------------------------------------------------------------
   62 O1    x      -1.4637     -0.0123      0.0210
            y      -0.0827     -1.4238      0.0077
            z       0.0073      0.0056     -2.7456
-------------------------------------------------------------------------------
   63 O1    x      -1.5209      0.1158      0.0204
            y       0.1312     -1.4165     -0.0205
            z      -0.0061     -0.0017     -2.7022
-------------------------------------------------------------------------------
   64 O3    x      -1.3702      0.1060      0.1182
            y       0.1126     -1.3699     -0.0079
            z       0.0968     -0.0052     -2.5583
-------------------------------------------------------------------------------
   65 O1    x      -1.4037     -0.2247      0.0781
            y      -0.3169     -3.1551     -0.0387
            z       0.0272     -0.0242     -1.3504
-------------------------------------------------------------------------------
   66 O1    x      -1.3977     -0.2098     -0.0892
            y      -0.3042     -3.1261     -0.0184
            z      -0.0342     -0.0005     -1.3531
-------------------------------------------------------------------------------
   67 O3    x      -1.2815     -0.1819      0.0700
            y      -0.2653     -2.9910     -0.1023
            z       0.0084     -0.1000     -1.2694
-------------------------------------------------------------------------------
   68 O1    x      -1.4061     -0.2264     -0.1159
            y      -0.3111     -3.1274      0.0018
            z      -0.0665     -0.0022     -1.3463
-------------------------------------------------------------------------------
   69 O1    x      -3.0761      0.2994      0.0276
            y       0.2033     -1.5859      0.0085
            z       0.0511      0.0365     -1.1956
-------------------------------------------------------------------------------
   70 O1    x      -3.0814      0.3090      0.0077
            y       0.2114     -1.5944     -0.0124
            z      -0.0023     -0.0474     -1.1942
-------------------------------------------------------------------------------
   71 O1    x      -3.0559      0.2334     -0.0252
            y       0.1268     -1.5690     -0.0351
            z      -0.0772     -0.0594     -1.2008
-------------------------------------------------------------------------------
   72 O3    x      -2.8533      0.3489      0.0155
            y       0.2870     -1.5027     -0.0008
            z       0.0082      0.0317     -1.1288
-------------------------------------------------------------------------------




  Elastic Constant Matrix: (Units=GPa)

-------------------------------------------------------------------------------
  Indices      1         2         3         4         5         6    
-------------------------------------------------------------------------------
       1     26.4044   11.4012    8.0648   -0.2604   -0.9793    7.0347
       2     11.4012   34.1029    6.4577   -0.2148   -0.2923    6.9970
       3      8.0648    6.4577   13.4851    0.0488   -0.2207    1.8541
       4     -0.2604   -0.2148    0.0488    8.3974    1.8362    0.1082
       5     -0.9793   -0.2923   -0.2207    1.8362   15.6065    0.4042
       6      7.0347    6.9970    1.8541    0.1082    0.4042   19.7253
-------------------------------------------------------------------------------


  Elastic Compliance Matrix: (Units=1/GPa)

-------------------------------------------------------------------------------
  Indices      1         2         3         4         5         6    
-------------------------------------------------------------------------------
       1    0.053729 -0.010446 -0.025277  0.001052  0.003035 -0.013148
       2   -0.010446  0.036418 -0.010061  0.000771  0.000007 -0.008252
       3   -0.025277 -0.010061  0.093567 -0.001554 -0.000367  0.003804
       4    0.001052  0.000771 -0.001554  0.122286 -0.014306 -0.000880
       5    0.003035  0.000007 -0.000367 -0.014306  0.066005 -0.002325
       6   -0.013148 -0.008252  0.003804 -0.000880 -0.002325  0.058007
-------------------------------------------------------------------------------

  Mechanical properties :

-------------------------------------------------------------------------------
  Convention :                    Reuss         Voigt         Hill
-------------------------------------------------------------------------------
  Bulk  Modulus (GPa)     =      10.85218      13.98222      12.41720
  Shear Modulus (GPa)     =       9.05313      11.95042      10.50177
-------------------------------------------------------------------------------
  Velocity S-wave (km/s)  =       1.79127       2.05804       1.92927
  Velocity P-wave (km/s)  =       2.85035       3.25623       3.06003
-------------------------------------------------------------------------------
  Compressibility (1/GPa) =    0.09214735
-------------------------------------------------------------------------------
  Stress axis :                     x             y             z
-------------------------------------------------------------------------------
  Youngs Moduli (GPa)     =      18.61182      27.45870      10.68753
-------------------------------------------------------------------------------
  Poissons Ratio (x)      =                     0.28683       0.27015
  Poissons Ratio (y)      =       0.19442                     0.10753
  Poissons Ratio (z)      =       0.47045       0.27626
-------------------------------------------------------------------------------


  Piezoelectric Strain Matrix: (Units=C/m**2)

-------------------------------------------------------------------------------
  Indices      1         2         3         4         5         6    
-------------------------------------------------------------------------------
       x     0.18727  -0.08708   0.31731  -0.03439  -0.04769  -0.22207
       y    -0.63457  -0.52173  -0.12838   0.09481   0.09532   0.12139
       z    -0.07629  -0.11420  -0.05738  -0.15373  -0.34319   0.04035
-------------------------------------------------------------------------------


  Piezoelectric Stress Matrix: (Units=10**-11 C/N)

-------------------------------------------------------------------------------
  Indices      1         2         3         4         5         6    
-------------------------------------------------------------------------------
       x     0.56898  -0.65143   2.50582  -0.36904  -0.16881  -1.32772
       y    -2.66072  -1.20081   0.95563   0.92531   0.27704   1.88967
       z    -0.31892  -0.32388  -0.17737  -1.40043  -2.07577   0.50007
-------------------------------------------------------------------------------


  Static dielectric constant tensor : 

-------------------------------------------------------------------------------
              x         y         z
-------------------------------------------------------------------------------
       x     5.32600   0.01575  -0.04432
       y     0.01575   6.38053   0.05216
       z    -0.04432   0.05216   4.27604
--------------------------------------------------------------------------------

  High frequency dielectric constant tensor : 

-------------------------------------------------------------------------------
              x         y         z
-------------------------------------------------------------------------------
       x     1.53411   0.00268  -0.00053
       y     0.00268   1.54115   0.00008
       z    -0.00053   0.00008   1.49562
-------------------------------------------------------------------------------

  Static refractive indices : 

-------------------------------------------------------------------------------
    1 =    2.06709      2 =    2.30818      3 =    2.52627
-------------------------------------------------------------------------------

  High frequency refractive indices : 

-------------------------------------------------------------------------------
    1 =    1.22295      2 =    1.23823      3 =    1.24179
-------------------------------------------------------------------------------


  Time to end of optimisation =       7.7849 seconds


  Peak dynamic memory used =       5.01 MB 


  Timing analysis for GULP :

--------------------------------------------------------------------------------
  Task / Subroutine                                          Time (Seconds)
--------------------------------------------------------------------------------
  Calculation of reciprocal space energy and derivatives          0.5223
  Calculation of real space energy and derivatives                5.3615
  Calculation of three-body energy and derivatives                0.0434
  Calculation and manipulation of Hessian matrix                  2.1231
  Calculation of matrix inversion                                 0.0314
--------------------------------------------------------------------------------
  Total CPU time                                                  7.7849
--------------------------------------------------------------------------------


  Dump file written as c00011.vasp.grs
  CIF file written as c00011.vasp.cif


  Job Finished at 18:35.23 30th October    2025                               

