********************************************************************************
*                       GENERAL UTILITY LATTICE PROGRAM                        *
*                                 Julian Gale                                  *
*                       Curtin Institute for Computation                       *
*                    School of Molecular and Life Sciences                     *
*                    Curtin University, Western Australia                      *
********************************************************************************
* Version = 6.1.2 * Last modified =   3rd November 2022                        *
********************************************************************************
*  optimise     - perform optimisation run                                     *
*  conp         - constant pressure calculation                                *
*  property     - calculate properties for final geometry                      *
********************************************************************************

  Job Started  at 11:42.56 31st October    2025                               

  Number of CPUs =     1


  Total number of configurations input =      1

********************************************************************************
*  Input for Configuration =   1 : c00016.vasp                                 *
********************************************************************************

  Formula = Ge20Si4O48                                                  

  Number of irreducible atoms/shells =     120


  Total number atoms/shells =     120

  Dimensionality = 3               :  Bulk   



  Cartesian lattice vectors (Angstroms) :

       17.182800    0.000000    0.000000
        0.000000    7.513760    0.000000
        0.000000    0.000000   10.447700

  Cell parameters (Angstroms/Degrees):

  a =      17.1828    alpha =  90.0000
  b =       7.5138    beta  =  90.0000
  c =      10.4477    gamma =  90.0000

  Initial cell volume =        1348.875752 Angs**3

  Temperature of configuration =   0.00     K 

  Pressure of configuration =         0.000 GPa 

  Fractional coordinates of asymmetric unit :

--------------------------------------------------------------------------------
   No.  Atomic       x           y          z         Charge      Occupancy
        Label      (Frac)      (Frac)     (Frac)        (e)         (Frac)  
--------------------------------------------------------------------------------
      1 Ge    c    0.052090    0.000000    0.372270     4.00000    1.000000    
      2 Ge    c    0.447910 *  0.000000 *  0.372270 *   4.00000    1.000000    
      3 Ge    c    0.947910 *  0.000000 *  0.627730 *   4.00000    1.000000    
      4 Ge    c    0.552090 *  0.000000 *  0.627730 *   4.00000    1.000000    
      5 Ge    c    0.556730 *  0.000000 *  0.122130 *   4.00000    1.000000    
      6 Ge    c    0.943270 *  0.000000 *  0.122130 *   4.00000    1.000000    
      7 Ge    c    0.443270 *  0.000000 *  0.877870 *   4.00000    1.000000    
      8 Ge    c    0.056730 *  0.000000 *  0.877870 *   4.00000    1.000000    
      9 Ge    c    0.160190 *  0.293910 *  0.273440 *   4.00000    1.000000    
     10 Ge    c    0.339810 *  0.706090 *  0.273440 *   4.00000    1.000000    
     11 Ge    c    0.839810 *  0.293910 *  0.726560 *   4.00000    1.000000    
     12 Ge    c    0.660190 *  0.706090 *  0.726560 *   4.00000    1.000000    
     13 Ge    c    0.839810 *  0.706090 *  0.726560 *   4.00000    1.000000    
     14 Ge    c    0.660190 *  0.293910 *  0.726560 *   4.00000    1.000000    
     15 Ge    c    0.160190 *  0.706090 *  0.273440 *   4.00000    1.000000    
     16 Ge    c    0.660660 *  0.294090 *  0.017440 *   4.00000    1.000000    
     17 Ge    c    0.839340 *  0.705910 *  0.017440 *   4.00000    1.000000    
     18 Ge    c    0.339340 *  0.294090 *  0.982560 *   4.00000    1.000000    
     19 Ge    c    0.160660 *  0.705910 *  0.982560 *   4.00000    1.000000    
     20 Ge    c    0.160660 *  0.294090 *  0.982560 *   4.00000    1.000000    
     21 Si    c    0.339810 *  0.293910 *  0.273440 *   4.00000    1.000000    
     22 Si    c    0.339340 *  0.705910 *  0.982560 *   4.00000    1.000000    
     23 Si    c    0.660660 *  0.705910 *  0.017440 *   4.00000    1.000000    
     24 Si    c    0.839340 *  0.294090 *  0.017440 *   4.00000    1.000000    
     25 O1    c    0.106570 *  0.174340 *  0.366200 *   1.73396    1.000000    
     26 O1    c    0.393430 *  0.825660 *  0.366200 *   1.73396    1.000000    
     27 O1    c    0.893430 *  0.174340 *  0.633800 *   1.73396    1.000000    
     28 O1    c    0.606570 *  0.825660 *  0.633800 *   1.73396    1.000000    
     29 O1    c    0.893430 *  0.825660 *  0.633800 *   1.73396    1.000000    
     30 O1    c    0.606570 *  0.174340 *  0.633800 *   1.73396    1.000000    
     31 O1    c    0.106570 *  0.825660 *  0.366200 *   1.73396    1.000000    
     32 O3    c    0.393430 *  0.174340 *  0.366200 *   1.33043    1.000000    
     33 O1    c    0.000000 *  0.000000 *  0.500000 *   1.73396    1.000000    
     34 O1    c    0.500000 *  0.000000 *  0.500000 *   1.73396    1.000000    
     35 O1    c    0.994520 *  0.000000 *  0.250840 *   1.73396    1.000000    
     36 O1    c    0.505480 *  0.000000 *  0.250840 *   1.73396    1.000000    
     37 O1    c    0.005480 *  0.000000 *  0.749160 *   1.73396    1.000000    
     38 O1    c    0.494520 *  0.000000 *  0.749160 *   1.73396    1.000000    
     39 O1    c    0.610230 *  0.175520 *  0.115390 *   1.73396    1.000000    
     40 O1    c    0.889770 *  0.824480 *  0.115390 *   1.73396    1.000000    
     41 O1    c    0.389770 *  0.175520 *  0.884610 *   1.73396    1.000000    
     42 O1    c    0.110230 *  0.824480 *  0.884610 *   1.73396    1.000000    
     43 O3    c    0.389770 *  0.824480 *  0.884610 *   1.33043    1.000000    
     44 O1    c    0.110230 *  0.175520 *  0.884610 *   1.73396    1.000000    
     45 O3    c    0.610230 *  0.824480 *  0.115390 *   1.33043    1.000000    
     46 O3    c    0.889770 *  0.175520 *  0.115390 *   1.33043    1.000000    
     47 O1    c    0.500000 *  0.000000 *  0.000000 *   1.73396    1.000000    
     48 O1    c    0.000000 *  0.000000 *  0.000000 *   1.73396    1.000000    
     49 O1    c    0.151750 *  0.500000 *  0.313330 *   1.73396    1.000000    
     50 O3    c    0.348250 *  0.500000 *  0.313330 *   1.33043    1.000000    
     51 O1    c    0.848250 *  0.500000 *  0.686670 *   1.73396    1.000000    
     52 O1    c    0.651750 *  0.500000 *  0.686670 *   1.73396    1.000000    
     53 O3    c    0.250000 *  0.234950 *  0.285720 *   1.33043    1.000000    
     54 O1    c    0.250000 *  0.765050 *  0.285720 *   1.73396    1.000000    
     55 O1    c    0.750000 *  0.234950 *  0.714280 *   1.73396    1.000000    
     56 O1    c    0.750000 *  0.765050 *  0.714280 *   1.73396    1.000000    
     57 O1    c    0.131410 *  0.268650 *  0.127790 *   1.73396    1.000000    
     58 O3    c    0.368590 *  0.731350 *  0.127790 *   1.33043    1.000000    
     59 O3    c    0.868590 *  0.268650 *  0.872210 *   1.33043    1.000000    
     60 O3    c    0.631410 *  0.731350 *  0.872210 *   1.33043    1.000000    
     61 O1    c    0.868590 *  0.731350 *  0.872210 *   1.73396    1.000000    
     62 O1    c    0.631410 *  0.268650 *  0.872210 *   1.73396    1.000000    
     63 O1    c    0.131410 *  0.731350 *  0.127790 *   1.73396    1.000000    
     64 O3    c    0.368590 *  0.268650 *  0.127790 *   1.33043    1.000000    
     65 O3    c    0.653920 *  0.500000 *  0.058200 *   1.33043    1.000000    
     66 O3    c    0.846080 *  0.500000 *  0.058200 *   1.33043    1.000000    
     67 O3    c    0.346080 *  0.500000 *  0.941800 *   1.33043    1.000000    
     68 O1    c    0.153920 *  0.500000 *  0.941800 *   1.73396    1.000000    
     69 O3    c    0.750000 *  0.231060 *  0.027050 *   1.33043    1.000000    
     70 O3    c    0.750000 *  0.768940 *  0.027050 *   1.33043    1.000000    
     71 O1    c    0.250000 *  0.231060 *  0.972950 *   1.73396    1.000000    
     72 O3    c    0.250000 *  0.768940 *  0.972950 *   1.33043    1.000000    
     73 O1    s    0.106570 *  0.174340 *  0.366200 *  -3.73396    1.000000    
     74 O1    s    0.393430 *  0.825660 *  0.366200 *  -3.73396    1.000000    
     75 O1    s    0.893430 *  0.174340 *  0.633800 *  -3.73396    1.000000    
     76 O1    s    0.606570 *  0.825660 *  0.633800 *  -3.73396    1.000000    
     77 O1    s    0.893430 *  0.825660 *  0.633800 *  -3.73396    1.000000    
     78 O1    s    0.606570 *  0.174340 *  0.633800 *  -3.73396    1.000000    
     79 O1    s    0.106570 *  0.825660 *  0.366200 *  -3.73396    1.000000    
     80 O3    s    0.393430 *  0.174340 *  0.366200 *  -3.33043    1.000000    
     81 O1    s    0.000000 *  0.000000 *  0.500000 *  -3.73396    1.000000    
     82 O1    s    0.500000 *  0.000000 *  0.500000 *  -3.73396    1.000000    
     83 O1    s    0.994520 *  0.000000 *  0.250840 *  -3.73396    1.000000    
     84 O1    s    0.505480 *  0.000000 *  0.250840 *  -3.73396    1.000000    
     85 O1    s    0.005480 *  0.000000 *  0.749160 *  -3.73396    1.000000    
     86 O1    s    0.494520 *  0.000000 *  0.749160 *  -3.73396    1.000000    
     87 O1    s    0.610230 *  0.175520 *  0.115390 *  -3.73396    1.000000    
     88 O1    s    0.889770 *  0.824480 *  0.115390 *  -3.73396    1.000000    
     89 O1    s    0.389770 *  0.175520 *  0.884610 *  -3.73396    1.000000    
     90 O1    s    0.110230 *  0.824480 *  0.884610 *  -3.73396    1.000000    
     91 O3    s    0.389770 *  0.824480 *  0.884610 *  -3.33043    1.000000    
     92 O1    s    0.110230 *  0.175520 *  0.884610 *  -3.73396    1.000000    
     93 O3    s    0.610230 *  0.824480 *  0.115390 *  -3.33043    1.000000    
     94 O3    s    0.889770 *  0.175520 *  0.115390 *  -3.33043    1.000000    
     95 O1    s    0.500000 *  0.000000 *  0.000000 *  -3.73396    1.000000    
     96 O1    s    0.000000 *  0.000000 *  0.000000 *  -3.73396    1.000000    
     97 O1    s    0.151750 *  0.500000 *  0.313330 *  -3.73396    1.000000    
     98 O3    s    0.348250 *  0.500000 *  0.313330 *  -3.33043    1.000000    
     99 O1    s    0.848250 *  0.500000 *  0.686670 *  -3.73396    1.000000    
    100 O1    s    0.651750 *  0.500000 *  0.686670 *  -3.73396    1.000000    
    101 O3    s    0.250000 *  0.234950 *  0.285720 *  -3.33043    1.000000    
    102 O1    s    0.250000 *  0.765050 *  0.285720 *  -3.73396    1.000000    
    103 O1    s    0.750000 *  0.234950 *  0.714280 *  -3.73396    1.000000    
    104 O1    s    0.750000 *  0.765050 *  0.714280 *  -3.73396    1.000000    
    105 O1    s    0.131410 *  0.268650 *  0.127790 *  -3.73396    1.000000    
    106 O3    s    0.368590 *  0.731350 *  0.127790 *  -3.33043    1.000000    
    107 O3    s    0.868590 *  0.268650 *  0.872210 *  -3.33043    1.000000    
    108 O3    s    0.631410 *  0.731350 *  0.872210 *  -3.33043    1.000000    
    109 O1    s    0.868590 *  0.731350 *  0.872210 *  -3.73396    1.000000    
    110 O1    s    0.631410 *  0.268650 *  0.872210 *  -3.73396    1.000000    
    111 O1    s    0.131410 *  0.731350 *  0.127790 *  -3.73396    1.000000    
    112 O3    s    0.368590 *  0.268650 *  0.127790 *  -3.33043    1.000000    
    113 O3    s    0.653920 *  0.500000 *  0.058200 *  -3.33043    1.000000    
    114 O3    s    0.846080 *  0.500000 *  0.058200 *  -3.33043    1.000000    
    115 O3    s    0.346080 *  0.500000 *  0.941800 *  -3.33043    1.000000    
    116 O1    s    0.153920 *  0.500000 *  0.941800 *  -3.73396    1.000000    
    117 O3    s    0.750000 *  0.231060 *  0.027050 *  -3.33043    1.000000    
    118 O3    s    0.750000 *  0.768940 *  0.027050 *  -3.33043    1.000000    
    119 O1    s    0.250000 *  0.231060 *  0.972950 *  -3.73396    1.000000    
    120 O3    s    0.250000 *  0.768940 *  0.972950 *  -3.33043    1.000000    
--------------------------------------------------------------------------------



********************************************************************************
*  General input information                                                   *
********************************************************************************

  Species output for all configurations : 

--------------------------------------------------------------------------------
  Species    Type    Atomic    Atomic    Charge       Radii (Angs)     Library
                     Number     Mass       (e)     Cova   Ionic  VDW   Symbol
--------------------------------------------------------------------------------
    Ge       Core       32      72.61   4.000000   1.170  0.000  1.750 Ge       
    Si       Core       14      28.09   4.000000   1.200  0.000  2.100 Si       
    O1       Core        8      16.00   1.733957   0.730  0.000  1.360 O1       
    O2       Core        8      16.00   0.870733   0.730  0.000  0.000 O2       
    O3       Core        8      16.00   1.330431   0.730  0.000  1.360 O3       
    O1       Shell       8       0.00  -3.733957   0.730  0.000  0.000 O1       
    O2       Shell       8       0.00  -2.870733   0.730  0.000  0.000 O2       
    O3       Shell       8       0.00  -3.330431   0.730  0.000  0.000 O3       
--------------------------------------------------------------------------------


  Lattice summation method               =    Ewald          (3-D)
                                         =    Parry          (2-D)
                                         =    Saunders et al (1-D)
  Accuracy factor for lattice sums       =   12.000


  Analytic derivatives to be used

  Time limit = Infinity

  Maximum range for interatomic potentials =    100000.000000 Angstroms

  General interatomic potentials :

--------------------------------------------------------------------------------
Atom  Types   Potential      Parameter       Value         Units   Cutoffs(Ang)
  1     2                                                            Min /  Max 
--------------------------------------------------------------------------------
Si   c O1   s Buckingham    Buckingham A     1315.2478    eV        0.000 16.000
                            Buckingham rho  0.31775900    Ang       
                            Buckingham C     10.141118    eV*Ang^6  
--------------------------------------------------------------------------------
Si   c O2   s Buckingham    Buckingham A     1315.2478    eV        0.000 16.000
                            Buckingham rho  0.31775900    Ang       
                            Buckingham C     10.141118    eV*Ang^6  
--------------------------------------------------------------------------------
Si   c O3   s Buckingham    Buckingham A     1315.2478    eV        0.000 16.000
                            Buckingham rho  0.31775900    Ang       
                            Buckingham C     10.141118    eV*Ang^6  
--------------------------------------------------------------------------------
Ge   c O1   s Buckingham    Buckingham A     1497.3996    eV        0.000 16.000
                            Buckingham rho  0.32564600    Ang       
                            Buckingham C     16.808599    eV*Ang^6  
--------------------------------------------------------------------------------
Ge   c O2   s Buckingham    Buckingham A     1497.3996    eV        0.000 16.000
                            Buckingham rho  0.32564600    Ang       
                            Buckingham C     16.808599    eV*Ang^6  
--------------------------------------------------------------------------------
Ge   c O3   s Buckingham    Buckingham A     1497.3996    eV        0.000 16.000
                            Buckingham rho  0.32564600    Ang       
                            Buckingham C     16.808599    eV*Ang^6  
--------------------------------------------------------------------------------
O1   s O1   s Buckingham    Buckingham A     22764.000    eV        0.000 16.000
                            Buckingham rho  0.14900000    Ang       
                            Buckingham C     10.937044    eV*Ang^6  
--------------------------------------------------------------------------------
O1   s O2   s Buckingham    Buckingham A     22764.000    eV        0.000 16.000
                            Buckingham rho  0.14900000    Ang       
                            Buckingham C     10.937044    eV*Ang^6  
--------------------------------------------------------------------------------
O1   s O3   s Buckingham    Buckingham A     22764.000    eV        0.000 16.000
                            Buckingham rho  0.14900000    Ang       
                            Buckingham C     10.937044    eV*Ang^6  
--------------------------------------------------------------------------------
O2   s O2   s Buckingham    Buckingham A     22764.000    eV        0.000 16.000
                            Buckingham rho  0.14900000    Ang       
                            Buckingham C     10.937044    eV*Ang^6  
--------------------------------------------------------------------------------
O2   s O3   s Buckingham    Buckingham A     22764.000    eV        0.000 16.000
                            Buckingham rho  0.14900000    Ang       
                            Buckingham C     10.937044    eV*Ang^6  
--------------------------------------------------------------------------------
O3   s O3   s Buckingham    Buckingham A     22764.000    eV        0.000 16.000
                            Buckingham rho  0.14900000    Ang       
                            Buckingham C     10.937044    eV*Ang^6  
--------------------------------------------------------------------------------
O1   c O1   s Spring (c-s)  Spring k 2       180.31577    eV*Ang^-2 0.000  0.800
                            Spring k 4       0.0000000    eV*Ang^-4 
--------------------------------------------------------------------------------
O2   c O2   s Spring (c-s)  Spring k 2       75.969800    eV*Ang^-2 0.000  0.800
                            Spring k 4       0.0000000    eV*Ang^-4 
--------------------------------------------------------------------------------
O3   c O3   s Spring (c-s)  Spring k 2       128.14270    eV*Ang^-2 0.000  0.800
                            Spring k 4       0.0000000    eV*Ang^-4 
--------------------------------------------------------------------------------

  General Three-body potentials :

--------------------------------------------------------------------------------
  Atoms       Potential      Parameter       Value         Units   Cutoffs(Ang)
  1 / 2 / 3                                                          Min /  Max 
--------------------------------------------------------------------------------
Si    core    Harmonic      Three-body cnst  1.2614000    eV*rad^-2 0.000  1.900
O1    shel                  Three-body angl  109.47000    degrees   0.000  1.900
O1    shel                  Three-body k4    0.0000000    eV*rad^-4 0.000  3.500
                            Three-body k3    0.0000000    eV*rad^-3 
--------------------------------------------------------------------------------
Si    core    Harmonic      Three-body cnst  1.2614000    eV*rad^-2 0.000  1.900
O1    shel                  Three-body angl  109.47000    degrees   0.000  1.900
õ(1   shel                  Three-body k4    0.0000000    eV*rad^-4 0.000  3.500
                            Three-body k3    0.0000000    eV*rad^-3 
--------------------------------------------------------------------------------
Si    core    Harmonic      Three-body cnst  1.2614000    eV*rad^-2 0.000  1.900
õ(1   shel                  Three-body angl  109.47000    degrees   0.000  1.900
õ(1   shel                  Three-body k4    0.0000000    eV*rad^-4 0.000  3.500
                            Three-body k3    0.0000000    eV*rad^-3 
--------------------------------------------------------------------------------
Si    core    Harmonic      Three-body cnst  1.2614000    eV*rad^-2 0.000  1.900
O1    shel                  Three-body angl  109.47000    degrees   0.000  1.900
O2    shel                  Three-body k4    0.0000000    eV*rad^-4 0.000  3.500
                            Three-body k3    0.0000000    eV*rad^-3 
--------------------------------------------------------------------------------
Si    core    Harmonic      Three-body cnst  1.2614000    eV*rad^-2 0.000  1.900
O1    shel                  Three-body angl  109.47000    degrees   0.000  1.900
õ(2   shel                  Three-body k4    0.0000000    eV*rad^-4 0.000  3.500
                            Three-body k3    0.0000000    eV*rad^-3 
--------------------------------------------------------------------------------
Si    core    Harmonic      Three-body cnst  1.2614000    eV*rad^-2 0.000  1.900
O2    shel                  Three-body angl  109.47000    degrees   0.000  1.900
õ(1   shel                  Three-body k4    0.0000000    eV*rad^-4 0.000  3.500
                            Three-body k3    0.0000000    eV*rad^-3 
--------------------------------------------------------------------------------
Si    core    Harmonic      Three-body cnst  1.2614000    eV*rad^-2 0.000  1.900
õ(1   shel                  Three-body angl  109.47000    degrees   0.000  1.900
õ(2   shel                  Three-body k4    0.0000000    eV*rad^-4 0.000  3.500
                            Three-body k3    0.0000000    eV*rad^-3 
--------------------------------------------------------------------------------
Si    core    Harmonic      Three-body cnst  1.2614000    eV*rad^-2 0.000  1.900
O2    shel                  Three-body angl  109.47000    degrees   0.000  1.900
O2    shel                  Three-body k4    0.0000000    eV*rad^-4 0.000  3.500
                            Three-body k3    0.0000000    eV*rad^-3 
--------------------------------------------------------------------------------
Si    core    Harmonic      Three-body cnst  1.2614000    eV*rad^-2 0.000  1.900
O2    shel                  Three-body angl  109.47000    degrees   0.000  1.900
õ(2   shel                  Three-body k4    0.0000000    eV*rad^-4 0.000  3.500
                            Three-body k3    0.0000000    eV*rad^-3 
--------------------------------------------------------------------------------
Si    core    Harmonic      Three-body cnst  1.2614000    eV*rad^-2 0.000  1.900
õ(2   shel                  Three-body angl  109.47000    degrees   0.000  1.900
õ(2   shel                  Three-body k4    0.0000000    eV*rad^-4 0.000  3.500
                            Three-body k3    0.0000000    eV*rad^-3 
--------------------------------------------------------------------------------

********************************************************************************
*  Output for configuration   1 : c00016.vasp                                  *
********************************************************************************


  Components of energy : 

--------------------------------------------------------------------------------
  Interatomic potentials     =         896.59869970 eV    
  Three-body potentials      =           0.00000000 eV    
  Monopole - monopole (real) =       -2676.00317478 eV    
  Monopole - monopole (recip)=       -1115.35404472 eV    
  Monopole - monopole (total)=       -3791.35721950 eV    
--------------------------------------------------------------------------------
  Total lattice energy       =       -2894.75851980 eV    
--------------------------------------------------------------------------------
  Total lattice energy       =         -279299.9467 kJ/(mole unit cells)
--------------------------------------------------------------------------------


  Number of variables =      363

  Maximum number of calculations  =          1000
  Maximum Hessian update interval =            10
  Maximum step size               =   0.100000000
  Maximum parameter tolerance     =   0.000010000
  Maximum function  tolerance     =   0.000010000
  Maximum gradient  tolerance     =   0.001000000
  Maximum gradient  component     =   0.010000000

  Symmetry not applied to optimisation

  Cell parameters to be optimised using strains

  Newton-Raphson optimiser to be used

  BFGS hessian update to be used

  Lower half triangular hessian to be used

  Minimiser to switch to RFO
  When gradient norm is less than     0.050000

  Dumpfile to be written after every cycle

  Start of bulk optimisation :

  Cycle:      0 Energy:     -2894.758520  Gnorm:      5.784814  CPU:    0.125
  ** Hessian calculated **
  Cycle:      1 Energy:     -2938.394885  Gnorm:      1.395870  CPU:    0.281
  ** Hessian calculated **
  Cycle:      2 Energy:     -2943.188120  Gnorm:      0.676274  CPU:    0.496
  Cycle:      3 Energy:     -2944.188037  Gnorm:      0.389813  CPU:    0.607
  Cycle:      4 Energy:     -2944.794224  Gnorm:      0.331423  CPU:    0.739
  Cycle:      5 Energy:     -2945.555434  Gnorm:      0.269818  CPU:    0.870
  Cycle:      6 Energy:     -2946.306078  Gnorm:      0.238402  CPU:    0.999
  Cycle:      7 Energy:     -2946.575737  Gnorm:      0.146061  CPU:    1.108
  Cycle:      8 Energy:     -2946.670984  Gnorm:      0.110215  CPU:    1.216
  Cycle:      9 Energy:     -2946.727388  Gnorm:      0.092396  CPU:    1.347
  Cycle:     10 Energy:     -2946.774707  Gnorm:      0.083970  CPU:    1.480
  Cycle:     11 Energy:     -2946.827187  Gnorm:      0.082695  CPU:    1.608
  ** Hessian calculated **
  Cycle:     12 Energy:     -2946.839469  Gnorm:      0.081524  CPU:    1.843
  Cycle:     13 Energy:     -2946.858275  Gnorm:      0.079569  CPU:    1.995
  Cycle:     14 Energy:     -2946.880063  Gnorm:      0.076777  CPU:    2.144
  Cycle:     15 Energy:     -2946.893694  Gnorm:      0.073888  CPU:    2.278
  ** Hessian calculated **
  Cycle:     16 Energy:     -2946.905570  Gnorm:      0.064408  CPU:    2.519
  Cycle:     17 Energy:     -2946.922390  Gnorm:      0.058643  CPU:    2.647
  Cycle:     18 Energy:     -2946.945427  Gnorm:      0.054150  CPU:    2.776
  Cycle:     19 Energy:     -2946.973055  Gnorm:      0.049664  CPU:    2.905
  ** Hessian has required structure
  Cycle:     20 Energy:     -2946.980259  Gnorm:      0.087459  CPU:    3.071
  ** Hessian has required structure
  Cycle:     21 Energy:     -2946.993571  Gnorm:      0.105575  CPU:    3.258
  ** Hessian has required structure
  Cycle:     22 Energy:     -2947.008065  Gnorm:      0.097261  CPU:    3.434
  ** Hessian has required structure
  Cycle:     23 Energy:     -2947.012541  Gnorm:      0.100995  CPU:    3.580
  ** Hessian has required structure
  Cycle:     24 Energy:     -2947.017138  Gnorm:      0.126568  CPU:    3.728
  ** Hessian has required structure
  Cycle:     25 Energy:     -2947.032549  Gnorm:      0.069803  CPU:    3.884
  ** Hessian has wrong structure
  ** Imaginary eigenvectors =   6
  ** Hessian has wrong structure
  ** Imaginary eigenvectors =   5
  Cycle:     26 Energy:     -2947.136116  Gnorm:      0.094117  CPU:    4.505
  ** Hessian has wrong structure
  ** Imaginary eigenvectors =   4
  ** Hessian has wrong structure
  ** Imaginary eigenvectors =   3
  Cycle:     27 Energy:     -2947.273074  Gnorm:      0.143951  CPU:    5.103
  ** Hessian has wrong structure
  ** Imaginary eigenvectors =   2
  ** Hessian has required structure
  Cycle:     28 Energy:     -2947.655429  Gnorm:      0.110519  CPU:    5.747
  ** Hessian has required structure
  Cycle:     29 Energy:     -2947.828583  Gnorm:      0.080807  CPU:    5.929
  ** Hessian has required structure
  Cycle:     30 Energy:     -2947.961326  Gnorm:      0.067584  CPU:    6.111
  ** Hessian has required structure
  Cycle:     31 Energy:     -2948.004115  Gnorm:      0.064200  CPU:    6.291
  ** Hessian has required structure
  Cycle:     32 Energy:     -2948.029978  Gnorm:      0.039930  CPU:    6.443
  ** Hessian has required structure
  Cycle:     33 Energy:     -2948.043508  Gnorm:      0.053043  CPU:    6.617
  ** Hessian has required structure
  Cycle:     34 Energy:     -2948.062038  Gnorm:      0.055659  CPU:    6.794
  ** Hessian has required structure
  Cycle:     35 Energy:     -2948.075172  Gnorm:      0.053670  CPU:    6.955
  ** Hessian has required structure
  Cycle:     36 Energy:     -2948.087007  Gnorm:      0.036579  CPU:    7.157
  ** Hessian has required structure
  Cycle:     37 Energy:     -2948.095571  Gnorm:      0.022700  CPU:    7.344
  ** Hessian has required structure
  Cycle:     38 Energy:     -2948.103265  Gnorm:      0.012482  CPU:    7.652
  ** Hessian has required structure
  Cycle:     39 Energy:     -2948.105234  Gnorm:      0.007005  CPU:    7.854
  ** Hessian has required structure
  Cycle:     40 Energy:     -2948.105791  Gnorm:      0.003514  CPU:    8.055
  ** Hessian has required structure
  Cycle:     41 Energy:     -2948.105954  Gnorm:      0.001870  CPU:    8.260
  ** Hessian has required structure
  Cycle:     42 Energy:     -2948.105994  Gnorm:      0.000897  CPU:    8.465
  ** Hessian has required structure
  Cycle:     43 Energy:     -2948.106005  Gnorm:      0.000477  CPU:    8.667
  ** Hessian has required structure
  Cycle:     44 Energy:     -2948.106007  Gnorm:      0.000373  CPU:    8.827
  ** Hessian has required structure
  Cycle:     45 Energy:     -2948.106008  Gnorm:      0.000298  CPU:    8.989
  ** Hessian has required structure
  Cycle:     46 Energy:     -2948.106009  Gnorm:      0.000220  CPU:    9.150
  ** Hessian has required structure
  Cycle:     47 Energy:     -2948.106009  Gnorm:      0.000166  CPU:    9.311
  ** Hessian has required structure
  Cycle:     48 Energy:     -2948.106010  Gnorm:      0.000116  CPU:    9.574
  ** Hessian has required structure


  **** Optimisation achieved ****


  Final energy =   -2948.10600973 eV      
  Final Gnorm  =       0.00008142

  Components of energy : 

--------------------------------------------------------------------------------
  Interatomic potentials     =         780.13797510 eV    
  Three-body potentials      =           0.00000000 eV    
  Monopole - monopole (real) =       -1567.00613837 eV    
  Monopole - monopole (recip)=       -2161.23784647 eV    
  Monopole - monopole (total)=       -3728.24398484 eV    
--------------------------------------------------------------------------------
  Total lattice energy       =       -2948.10600973 eV    
--------------------------------------------------------------------------------
  Total lattice energy       =         -284447.1640 kJ/(mole unit cells)
--------------------------------------------------------------------------------

  Final fractional coordinates of atoms :

--------------------------------------------------------------------------------
   No.  Atomic        x           y          z          Radius
        Label       (Frac)      (Frac)     (Frac)       (Angs) 
--------------------------------------------------------------------------------
     1  Ge    c     0.052090    0.000000    0.372270    0.000000
     2  Ge    c     0.445589    0.045154    0.373455    0.000000
     3  Ge    c     0.947829    0.059785    0.623657    0.000000
     4  Ge    c     0.547438    0.003731    0.628364    0.000000
     5  Ge    c     0.561434    0.999828    0.138202    0.000000
     6  Ge    c     0.941842    0.055176    0.129003    0.000000
     7  Ge    c     0.450977    0.055304    0.892243    0.000000
     8  Ge    c     0.049242    0.004347    0.880026    0.000000
     9  Ge    c     0.174268    0.284243    0.259059    0.000000
    10  Ge    c     0.326823    0.751691    0.263525    0.000000
    11  Ge    c     0.849383    0.370750    0.699769    0.000000
    12  Ge    c     0.646551    0.693023    0.705698    0.000000
    13  Ge    c     0.825176    0.777403    0.701817    0.000000
    14  Ge    c     0.671000    0.284332    0.706632    0.000000
    15  Ge    c     0.145635    0.684901    0.261502    0.000000
    16  Ge    c     0.674830    0.293791    0.019343    0.000000
    17  Ge    c     0.826858    0.763111    0.014789    0.000000
    18  Ge    c     0.352383    0.371578    0.948727    0.000000
    19  Ge    c     0.153320    0.694295    0.943520    0.000000
    20  Ge    c     0.172996    0.292551    0.944192    0.000000
    21  Si    c     0.352115    0.355119    0.255771    0.000000
    22  Si    c     0.329448    0.769297    0.956079    0.000000
    23  Si    c     0.648583    0.689698    0.014052    0.000000
    24  Si    c     0.852844    0.368669    0.008267    0.000000
    25  O1    c     0.131455    0.125748    0.348576    0.000000
    26  O1    c     0.377144    0.889437    0.357934    0.000000
    27  O1    c     0.914233    0.263945    0.608660    0.000000
    28  O1    c     0.581994    0.800524    0.613395    0.000000
    29  O1    c     0.874855    0.913844    0.601408    0.000000
    30  O1    c     0.620216    0.151935    0.608078    0.000000
    31  O1    c     0.076080    0.792943    0.341096    0.000000
    32  O3    c     0.412884    0.246574    0.335899    0.000000
    33  O1    c     0.025502    0.019372    0.532531    0.000000
    34  O1    c     0.470784    0.046212    0.535523    0.000000
    35  O1    c     0.973274    0.062314    0.286675    0.000000
    36  O1    c     0.528764    0.997675    0.295469    0.000000
    37  O1    c     0.972773    0.037451    0.785434    0.000000
    38  O1    c     0.523159    0.014324    0.790969    0.000000
    39  O1    c     0.634478    0.147257    0.122987    0.000000
    40  O1    c     0.869076    0.907014    0.115822    0.000000
    41  O1    c     0.416442    0.257972    0.863012    0.000000
    42  O1    c     0.091380    0.810431    0.853869    0.000000
    43  O3    c     0.377223    0.906191    0.873180    0.000000
    44  O1    c     0.119342    0.156840    0.853560    0.000000
    45  O3    c     0.590192    0.796171    0.098524    0.000000
    46  O3    c     0.913856    0.259625    0.086475    0.000000
    47  O1    c     0.483615    0.054540    0.049119    0.000000
    48  O1    c     0.019221    0.999886    0.039589    0.000000
    49  O1    c     0.153830    0.480516    0.322147    0.000000
    50  O3    c     0.340986    0.541992    0.315347    0.000000
    51  O1    c     0.836698    0.572785    0.643258    0.000000
    52  O1    c     0.659245    0.491856    0.651052    0.000000
    53  O3    c     0.271493    0.253989    0.257168    0.000000
    54  O1    c     0.232027    0.790582    0.275338    0.000000
    55  O1    c     0.766803    0.249229    0.700320    0.000000
    56  O1    c     0.729655    0.813381    0.701636    0.000000
    57  O1    c     0.141611    0.274384    0.102466    0.000000
    58  O3    c     0.357954    0.776710    0.104854    0.000000
    59  O3    c     0.879316    0.390829    0.859754    0.000000
    60  O3    c     0.618628    0.673886    0.867423    0.000000
    61  O1    c     0.858661    0.793791    0.859040    0.000000
    62  O1    c     0.640370    0.263317    0.865722    0.000000
    63  O1    c     0.122193    0.669912    0.100896    0.000000
    64  O3    c     0.381176    0.378033    0.109350    0.000000
    65  O3    c     0.656999    0.499410    0.072115    0.000000
    66  O3    c     0.845711    0.556323    0.068283    0.000000
    67  O3    c     0.342073    0.580175    0.897534    0.000000
    68  O1    c     0.162124    0.496088    0.881105    0.000000
    69  O3    c     0.772099    0.268385    0.013684    0.000000
    70  O3    c     0.729602    0.789017    0.014096    0.000000
    71  O1    c     0.268406    0.257599    0.940566    0.000000
    72  O3    c     0.240088    0.804863    0.952107    0.000000
    73  O1    s     0.128725    0.128607    0.343300    0.000000
    74  O1    s     0.378466    0.890572    0.351550    0.000000
    75  O1    s     0.911879    0.256895    0.616515    0.000000
    76  O1    s     0.584316    0.807271    0.621393    0.000000
    77  O1    s     0.876423    0.914148    0.610650    0.000000
    78  O1    s     0.618830    0.151351    0.617154    0.000000
    79  O1    s     0.079513    0.800359    0.337452    0.000000
    80  O3    s     0.409531    0.241089    0.331024    0.000000
    81  O1    s     0.021270    0.021146    0.528080    0.000000
    82  O1    s     0.475111    0.042738    0.531275    0.000000
    83  O1    s     0.976706    0.057225    0.281363    0.000000
    84  O1    s     0.525084    0.001315    0.289672    0.000000
    85  O1    s     0.977191    0.036408    0.781605    0.000000
    86  O1    s     0.518959    0.016934    0.787703    0.000000
    87  O1    s     0.632164    0.147676    0.116013    0.000000
    88  O1    s     0.871226    0.906869    0.108928    0.000000
    89  O1    s     0.413953    0.252476    0.871619    0.000000
    90  O1    s     0.093128    0.815430    0.862695    0.000000
    91  O3    s     0.377996    0.903674    0.882979    0.000000
    92  O1    s     0.118393    0.156295    0.862625    0.000000
    93  O3    s     0.593734    0.801605    0.093269    0.000000
    94  O3    s     0.909971    0.254424    0.082013    0.000000
    95  O1    s     0.487073    0.050424    0.044259    0.000000
    96  O1    s     0.015580    0.004363    0.034912    0.000000
    97  O1    s     0.154717    0.481132    0.313034    0.000000
    98  O3    s     0.340978    0.540060    0.305747    0.000000
    99  O1    s     0.836872    0.571386    0.651915    0.000000
   100  O1    s     0.659092    0.492911    0.659399    0.000000
   101  O3    s     0.271493    0.265745    0.257179    0.000000
   102  O1    s     0.233004    0.779940    0.273433    0.000000
   103  O1    s     0.765686    0.260547    0.700768    0.000000
   104  O1    s     0.730867    0.802112    0.701960    0.000000
   105  O1    s     0.146293    0.276396    0.102628    0.000000
   106  O3    s     0.352912    0.774137    0.103373    0.000000
   107  O3    s     0.874510    0.387193    0.861781    0.000000
   108  O3    s     0.623595    0.676834    0.869150    0.000000
   109  O1    s     0.853903    0.790344    0.859533    0.000000
   110  O1    s     0.645094    0.267043    0.865859    0.000000
   111  O1    s     0.126309    0.672856    0.101388    0.000000
   112  O3    s     0.376081    0.375293    0.111161    0.000000
   113  O3    s     0.657557    0.501814    0.062528    0.000000
   114  O3    s     0.844966    0.554127    0.058500    0.000000
   115  O3    s     0.341754    0.580553    0.906942    0.000000
   116  O1    s     0.162220    0.497062    0.890589    0.000000
   117  O3    s     0.772035    0.279755    0.013617    0.000000
   118  O3    s     0.729659    0.777696    0.014140    0.000000
   119  O1    s     0.267346    0.268758    0.941461    0.000000
   120  O3    s     0.242199    0.793264    0.951878    0.000000
--------------------------------------------------------------------------------

  Final Cartesian lattice vectors (Angstroms) :

       17.613393   -0.150907    0.012548
       -0.067043    7.822256    0.045247
        0.006666    0.064020   10.304197


  Final cell parameters and derivatives :

--------------------------------------------------------------------------------
       a           17.614043 Angstrom     dE/de1(xx)     0.006820 eV/strain
       b            7.822674 Angstrom     dE/de2(yy)     0.006444 eV/strain
       c           10.304398 Angstrom     dE/de3(zz)     0.003479 eV/strain
       alpha       89.312950 Degrees      dE/de4(yz)    -0.000120 eV/strain
       beta        89.925171 Degrees      dE/de5(xz)     0.000370 eV/strain
       gamma       90.981687 Degrees      dE/de6(xy)     0.000656 eV/strain
--------------------------------------------------------------------------------

  Primitive cell volume =          1419.519852 Angs**3

  Density of cell =      2.728647 g/cm**3

  Non-primitive cell volume =          1419.519852 Angs**3


  Final internal derivatives :

--------------------------------------------------------------------------------
   No.  Atomic          a             b             c           Radius
        Label          (eV)          (eV)          (eV)        (eV/Angs)
--------------------------------------------------------------------------------
      1 Ge    c       0.000000      0.000000      0.000000      0.000000
      2 Ge    c       0.000860      0.000878      0.000900      0.000000
      3 Ge    c       0.002300      0.000660      0.000743      0.000000
      4 Ge    c       0.000219     -0.000338      0.001344      0.000000
      5 Ge    c       0.001542     -0.000939      0.000130      0.000000
      6 Ge    c      -0.002312     -0.000488      0.000807      0.000000
      7 Ge    c      -0.001375      0.000557      0.001098      0.000000
      8 Ge    c       0.001324     -0.000884      0.001507      0.000000
      9 Ge    c      -0.000687     -0.001141      0.001233      0.000000
     10 Ge    c       0.000538      0.000544     -0.000392      0.000000
     11 Ge    c       0.001502     -0.000350     -0.000389      0.000000
     12 Ge    c      -0.002588      0.001069      0.000028      0.000000
     13 Ge    c       0.001330      0.000760      0.000103      0.000000
     14 Ge    c      -0.002057     -0.000796     -0.000158      0.000000
     15 Ge    c       0.001642      0.000420      0.000985      0.000000
     16 Ge    c      -0.000265     -0.000534      0.000432      0.000000
     17 Ge    c       0.000642      0.000591      0.000256      0.000000
     18 Ge    c       0.004895     -0.001477     -0.000923      0.000000
     19 Ge    c      -0.003856      0.001175      0.000596      0.000000
     20 Ge    c      -0.002632     -0.000825     -0.001475      0.000000
     21 Si    c      -0.000643     -0.000305      0.000429      0.000000
     22 Si    c       0.002819      0.000971     -0.000204      0.000000
     23 Si    c      -0.000284      0.000792      0.000048      0.000000
     24 Si    c      -0.001152      0.000233      0.000601      0.000000
     25 O1    c       0.004167      0.002846     -0.001247      0.000000
     26 O1    c      -0.003520     -0.001868     -0.000096      0.000000
     27 O1    c      -0.000673      0.001055     -0.001174      0.000000
     28 O1    c       0.002264     -0.000542      0.000160      0.000000
     29 O1    c      -0.004030     -0.002169     -0.000368      0.000000
     30 O1    c       0.002062      0.000984      0.000370      0.000000
     31 O1    c      -0.002323     -0.000468      0.000760      0.000000
     32 O3    c      -0.000626     -0.000057      0.000379      0.000000
     33 O1    c      -0.000336      0.000517     -0.000615      0.000000
     34 O1    c      -0.005971     -0.000485     -0.003700      0.000000
     35 O1    c      -0.003778      0.000485     -0.000251      0.000000
     36 O1    c       0.001237     -0.000221     -0.000208      0.000000
     37 O1    c      -0.004750     -0.001028     -0.002482      0.000000
     38 O1    c       0.003768      0.001035     -0.001477      0.000000
     39 O1    c       0.002698      0.001188     -0.000758      0.000000
     40 O1    c      -0.002833     -0.001660     -0.000308      0.000000
     41 O1    c      -0.002329      0.001464      0.000978      0.000000
     42 O1    c       0.000741     -0.000087     -0.000543      0.000000
     43 O3    c      -0.002218     -0.000632      0.000646      0.000000
     44 O1    c       0.005133      0.002711      0.000274      0.000000
     45 O3    c      -0.000222      0.000275      0.000459      0.000000
     46 O3    c      -0.000397      0.001560      0.000830      0.000000
     47 O1    c      -0.002401     -0.000066     -0.000963      0.000000
     48 O1    c       0.007673     -0.001240     -0.003852      0.000000
     49 O1    c      -0.000809      0.000247      0.000992      0.000000
     50 O3    c       0.000256     -0.000938      0.000398      0.000000
     51 O1    c       0.001156      0.000102     -0.001280      0.000000
     52 O1    c      -0.000816     -0.000832     -0.000938      0.000000
     53 O3    c      -0.000128     -0.000100      0.000180      0.000000
     54 O1    c      -0.000735      0.000640      0.000162      0.000000
     55 O1    c      -0.002591     -0.002271      0.000177      0.000000
     56 O1    c       0.002281      0.002007     -0.000092      0.000000
     57 O1    c      -0.001376      0.000463      0.000141      0.000000
     58 O3    c      -0.000462     -0.000707      0.000417      0.000000
     59 O3    c       0.002392      0.000160     -0.001702      0.000000
     60 O3    c       0.000307     -0.000358     -0.000311      0.000000
     61 O1    c       0.000903      0.000158     -0.000413      0.000000
     62 O1    c      -0.001169     -0.000044     -0.000144      0.000000
     63 O1    c      -0.001605      0.000368     -0.004612      0.000000
     64 O3    c      -0.000628      0.000550     -0.000819      0.000000
     65 O3    c      -0.000874     -0.000700      0.000216      0.000000
     66 O3    c       0.000815     -0.000257      0.000488      0.000000
     67 O3    c       0.000884      0.001517     -0.000289      0.000000
     68 O1    c      -0.002072     -0.001745     -0.002043      0.000000
     69 O3    c      -0.003374     -0.000924     -0.000229      0.000000
     70 O3    c       0.000015      0.000603      0.000022      0.000000
     71 O1    c      -0.002532     -0.002196     -0.000062      0.000000
     72 O3    c       0.003913      0.001995      0.000393      0.000000
     73 O1    s      -0.000510     -0.001101      0.000433      0.000000
     74 O1    s       0.001882      0.000873     -0.000177      0.000000
     75 O1    s       0.001315     -0.000547      0.000986      0.000000
     76 O1    s      -0.002648     -0.000388     -0.000367      0.000000
     77 O1    s       0.001726      0.000927     -0.000144      0.000000
     78 O1    s      -0.000680      0.000084     -0.000795      0.000000
     79 O1    s       0.001199     -0.000340      0.000161      0.000000
     80 O3    s       0.001420      0.000757     -0.000273      0.000000
     81 O1    s       0.000338     -0.000584      0.001343      0.000000
     82 O1    s       0.004501      0.000489      0.001853      0.000000
     83 O1    s       0.001033     -0.000072      0.000592      0.000000
     84 O1    s      -0.000260      0.000112      0.000830      0.000000
     85 O1    s       0.002485      0.001266      0.001442      0.000000
     86 O1    s      -0.002263     -0.001423      0.001795      0.000000
     87 O1    s      -0.001786     -0.000422      0.000329      0.000000
     88 O1    s      -0.000081      0.000326      0.000552      0.000000
     89 O1    s       0.001518     -0.000828     -0.000997      0.000000
     90 O1    s      -0.001339     -0.000430     -0.000180      0.000000
     91 O3    s       0.001181     -0.000053     -0.000735      0.000000
     92 O1    s      -0.002956     -0.001342      0.000073      0.000000
     93 O3    s      -0.000501     -0.000200      0.000038      0.000000
     94 O3    s       0.001742     -0.000233      0.000220      0.000000
     95 O1    s       0.001354      0.000306      0.000551      0.000000
     96 O1    s      -0.002421      0.001238      0.001962      0.000000
     97 O1    s       0.001131     -0.000781     -0.000090      0.000000
     98 O3    s      -0.000055      0.000408      0.000146      0.000000
     99 O1    s      -0.001449      0.000435      0.000518      0.000000
    100 O1    s       0.000573      0.000452      0.000131      0.000000
    101 O3    s      -0.000286      0.000044     -0.000365      0.000000
    102 O1    s       0.001431     -0.000196      0.000341      0.000000
    103 O1    s       0.001011      0.001537     -0.000712      0.000000
    104 O1    s      -0.001136     -0.001645     -0.000140      0.000000
    105 O1    s       0.000349     -0.000813     -0.000186      0.000000
    106 O3    s      -0.000050      0.000553     -0.000816      0.000000
    107 O3    s       0.002123     -0.000281      0.000306      0.000000
    108 O3    s      -0.001310      0.000368      0.000067      0.000000
    109 O1    s      -0.000401     -0.000327      0.000023      0.000000
    110 O1    s       0.000546      0.000030      0.000258      0.000000
    111 O1    s      -0.001138     -0.000474      0.002126      0.000000
    112 O3    s       0.002262     -0.000735      0.001104      0.000000
    113 O3    s       0.000642      0.000007      0.000436      0.000000
    114 O3    s      -0.000649      0.000767      0.000269      0.000000
    115 O3    s      -0.001321     -0.000097     -0.000193      0.000000
    116 O1    s       0.002615      0.000653      0.000983      0.000000
    117 O3    s      -0.000555      0.000348      0.000654      0.000000
    118 O3    s       0.000206     -0.000350      0.000019      0.000000
    119 O1    s       0.000020      0.001617     -0.000026      0.000000
    120 O3    s      -0.000462     -0.001605     -0.000535      0.000000
--------------------------------------------------------------------------------
  Maximum abs         0.007673      0.002846      0.004612      0.000000
--------------------------------------------------------------------------------


  Born effective charge tensors : 

-------------------------------------------------------------------------------
  Atom             x           y             z
-------------------------------------------------------------------------------
    1 Ge    x       4.2232     -0.3112     -0.4483
            y       0.1670      3.9009      0.0930
            z      -0.2126      0.0470      4.4737
-------------------------------------------------------------------------------
    2 Ge    x       4.1580     -0.1688      0.4387
            y       0.1549      3.9303     -0.0701
            z       0.1969      0.0656      4.4633
-------------------------------------------------------------------------------
    3 Ge    x       4.1316     -0.2507      0.0399
            y       0.0833      3.9296      0.0323
            z      -0.8269      0.1760      4.2237
-------------------------------------------------------------------------------
    4 Ge    x       4.1223     -0.2258     -0.0289
            y       0.1030      3.9161     -0.0315
            z       0.8574     -0.1939      4.3226
-------------------------------------------------------------------------------
    5 Ge    x       4.3078     -0.1834     -0.4121
            y       0.1935      3.9276      0.1166
            z      -0.3556      0.0174      3.9154
-------------------------------------------------------------------------------
    6 Ge    x       4.2880     -0.1633      0.4025
            y       0.1986      3.9309     -0.0943
            z       0.3407      0.0443      3.9521
-------------------------------------------------------------------------------
    7 Ge    x       4.2520     -0.2228      0.0322
            y       0.0681      3.9715     -0.0208
            z      -0.6742      0.1590      3.6733
-------------------------------------------------------------------------------
    8 Ge    x       4.4022     -0.1670     -0.0851
            y       0.0469      3.9243      0.0158
            z       0.6397     -0.1318      3.6400
-------------------------------------------------------------------------------
    9 Ge    x       3.8833      0.2807     -0.2693
            y       0.2522      4.1957     -0.0582
            z      -0.0113     -0.1922      3.5768
-------------------------------------------------------------------------------
   10 Ge    x       3.9510      0.2192      0.2747
            y       0.2744      4.1528      0.1726
            z       0.0279      0.2521      3.4974
-------------------------------------------------------------------------------
   11 Ge    x       3.8561     -0.0689     -0.3000
            y      -0.4407      4.2075      0.1116
            z      -0.1214      0.2005      3.5177
-------------------------------------------------------------------------------
   12 Ge    x       3.8635     -0.0861      0.2993
            y      -0.4463      4.2031     -0.1095
            z       0.1160     -0.1903      3.5324
-------------------------------------------------------------------------------
   13 Ge    x       4.0008      0.2476     -0.3196
            y       0.2883      4.1565     -0.1019
            z      -0.0412     -0.1511      3.5837
-------------------------------------------------------------------------------
   14 Ge    x       4.0039      0.2498      0.3030
            y       0.2995      4.1696      0.1228
            z       0.0415      0.1664      3.5956
-------------------------------------------------------------------------------
   15 Ge    x       3.9913     -0.0990     -0.1838
            y      -0.4851      4.1761      0.0852
            z      -0.1346      0.1983      3.5824
-------------------------------------------------------------------------------
   16 Ge    x       3.8889      0.2804     -0.3317
            y       0.2901      4.1641     -0.1415
            z      -0.0239     -0.2001      3.4751
-------------------------------------------------------------------------------
   17 Ge    x       3.8975      0.2777      0.3241
            y       0.2906      4.1553      0.1480
            z       0.0230      0.2181      3.4837
-------------------------------------------------------------------------------
   18 Ge    x       3.9464     -0.0947     -0.2908
            y      -0.4401      4.1652      0.1510
            z      -0.1012      0.2495      3.3159
-------------------------------------------------------------------------------
   19 Ge    x       3.9803     -0.1399      0.3284
            y      -0.4802      4.1302     -0.0835
            z       0.1191     -0.1719      3.4394
-------------------------------------------------------------------------------
   20 Ge    x       4.1066      0.2758      0.3369
            y       0.3499      4.1348      0.0463
            z       0.0981      0.1163      3.4447
-------------------------------------------------------------------------------
   21 Si    x       3.6708     -0.0897      0.1910
            y      -0.4466      3.9190     -0.1057
            z       0.0679     -0.2395      3.3096
-------------------------------------------------------------------------------
   22 Si    x       3.7714      0.2579     -0.2829
            y       0.2791      3.8991     -0.0655
            z      -0.0118     -0.1522      3.1719
-------------------------------------------------------------------------------
   23 Si    x       3.7308     -0.0897     -0.2722
            y      -0.4176      3.9154      0.1111
            z      -0.1157      0.2112      3.2380
-------------------------------------------------------------------------------
   24 Si    x       3.7433     -0.0983      0.2530
            y      -0.4280      3.9126     -0.0704
            z       0.1201     -0.2102      3.2237
-------------------------------------------------------------------------------
   25 O1    x      -2.2520     -0.8957      0.5256
            y      -0.9458     -2.3075      0.5119
            z       0.4795      0.5316     -1.6381
-------------------------------------------------------------------------------
   26 O1    x      -2.1352     -0.9331     -0.5241
            y      -0.9943     -2.4206     -0.5255
            z      -0.4966     -0.5630     -1.6892
-------------------------------------------------------------------------------
   27 O1    x      -1.9614      0.8603      0.3846
            y       0.8216     -2.4908     -0.3326
            z       0.4591     -0.3702     -1.6229
-------------------------------------------------------------------------------
   28 O1    x      -1.9728      0.8697     -0.3859
            y       0.8240     -2.4736      0.3265
            z      -0.4556      0.3572     -1.6412
-------------------------------------------------------------------------------
   29 O1    x      -2.1738     -0.8771      0.3260
            y      -0.9412     -2.2513      0.3591
            z       0.4019      0.3616     -1.6481
-------------------------------------------------------------------------------
   30 O1    x      -2.1873     -0.8884     -0.3450
            y      -0.9552     -2.2566     -0.3726
            z      -0.4244     -0.3738     -1.6551
-------------------------------------------------------------------------------
   31 O1    x      -1.9794      0.8334      0.4979
            y       0.7801     -2.5558     -0.5239
            z       0.4673     -0.5215     -1.6225
-------------------------------------------------------------------------------
   32 O3    x      -1.9094      0.8521     -0.5410
            y       0.8085     -2.3391      0.5539
            z      -0.4926      0.5664     -1.5876
-------------------------------------------------------------------------------
   33 O1    x      -2.0777      0.2559      0.9258
            y       0.1021     -1.2797     -0.1669
            z       1.1409     -0.2991     -3.0958
-------------------------------------------------------------------------------
   34 O1    x      -2.0620      0.2060     -0.9491
            y       0.0861     -1.2828      0.1140
            z      -1.1593      0.1892     -3.1720
-------------------------------------------------------------------------------
   35 O1    x      -2.1466      0.2513     -0.8367
            y       0.1321     -1.3281      0.1450
            z      -0.8579      0.1570     -2.7446
-------------------------------------------------------------------------------
   36 O1    x      -2.2166      0.2447      0.8209
            y       0.1332     -1.3189     -0.1306
            z       0.8505     -0.1530     -2.6818
-------------------------------------------------------------------------------
   37 O1    x      -2.1588      0.1953     -0.8405
            y       0.0866     -1.3372      0.1441
            z      -0.8088      0.1893     -2.5948
-------------------------------------------------------------------------------
   38 O1    x      -2.1105      0.2045      0.8753
            y       0.0795     -1.3533     -0.1462
            z       0.8288     -0.1951     -2.6792
-------------------------------------------------------------------------------
   39 O1    x      -2.1493     -0.9039      0.5237
            y      -0.9362     -2.4159      0.5559
            z       0.4422      0.5349     -1.6042
-------------------------------------------------------------------------------
   40 O1    x      -2.1709     -0.9151     -0.5254
            y      -0.9475     -2.4130     -0.5463
            z      -0.4485     -0.5338     -1.5982
-------------------------------------------------------------------------------
   41 O1    x      -2.0423      0.8878      0.3407
            y       0.8414     -2.5844     -0.2431
            z       0.4035     -0.3157     -1.4693
-------------------------------------------------------------------------------
   42 O1    x      -2.1277      0.9158     -0.3468
            y       0.9013     -2.4782      0.2627
            z      -0.3970      0.3005     -1.4632
-------------------------------------------------------------------------------
   43 O3    x      -2.0831     -0.8813      0.3393
            y      -0.9226     -2.2235      0.3730
            z       0.4018      0.4012     -1.4052
-------------------------------------------------------------------------------
   44 O1    x      -2.2539     -0.9176     -0.3149
            y      -0.9788     -2.2969     -0.3159
            z      -0.3921     -0.3423     -1.4887
-------------------------------------------------------------------------------
   45 O3    x      -1.9210      0.8321      0.5887
            y       0.7410     -2.3485     -0.6086
            z       0.4917     -0.5779     -1.5300
-------------------------------------------------------------------------------
   46 O3    x      -1.9606      0.8516     -0.5655
            y       0.7629     -2.3566      0.5724
            z      -0.4848      0.5553     -1.4896
-------------------------------------------------------------------------------
   47 O1    x      -2.2364      0.2337     -0.7651
            y       0.1326     -1.3840      0.1252
            z      -0.5134      0.0977     -2.2251
-------------------------------------------------------------------------------
   48 O1    x      -2.2189      0.2365      0.7450
            y       0.1533     -1.3832     -0.1501
            z       0.5009     -0.1117     -2.2600
-------------------------------------------------------------------------------
   49 O1    x      -1.3752      0.2074      0.0978
            y       0.3174     -3.1168     -0.0100
            z       0.0603     -0.0072     -1.3969
-------------------------------------------------------------------------------
   50 O3    x      -1.2640      0.1759     -0.0435
            y       0.2769     -3.0157     -0.1390
            z       0.0018     -0.1231     -1.3143
-------------------------------------------------------------------------------
   51 O1    x      -1.3331      0.1827      0.0731
            y       0.2729     -3.1730      0.0080
            z       0.0162      0.0384     -1.4011
-------------------------------------------------------------------------------
   52 O1    x      -1.3384      0.1873     -0.0677
            y       0.2771     -3.1947     -0.0326
            z      -0.0139     -0.0571     -1.3871
-------------------------------------------------------------------------------
   53 O3    x      -2.8459     -0.3195      0.0108
            y      -0.2748     -1.5089      0.0178
            z       0.0075      0.0528     -1.1498
-------------------------------------------------------------------------------
   54 O1    x      -3.0435     -0.2115      0.0096
            y      -0.1205     -1.5703     -0.0429
            z       0.0477     -0.0732     -1.2275
-------------------------------------------------------------------------------
   55 O1    x      -2.9739     -0.2897      0.0261
            y      -0.1861     -1.6127     -0.0262
            z       0.0247     -0.0579     -1.2250
-------------------------------------------------------------------------------
   56 O1    x      -2.9781     -0.2786      0.0304
            y      -0.1792     -1.6063      0.0275
            z       0.0168      0.0590     -1.2240
-------------------------------------------------------------------------------
   57 O1    x      -1.5177     -0.1108     -0.0697
            y      -0.1227     -1.4191     -0.0099
            z      -0.0637      0.0161     -2.6998
-------------------------------------------------------------------------------
   58 O3    x      -1.3766     -0.1017     -0.0564
            y      -0.1110     -1.3732      0.0518
            z      -0.0239      0.0490     -2.5408
-------------------------------------------------------------------------------
   59 O3    x      -1.3600      0.0154      0.0479
            y       0.0845     -1.3577      0.0214
            z       0.0238      0.0158     -2.5797
-------------------------------------------------------------------------------
   60 O3    x      -1.3735      0.0188     -0.0919
            y       0.0857     -1.3519     -0.0174
            z      -0.0650     -0.0122     -2.5729
-------------------------------------------------------------------------------
   61 O1    x      -1.5036     -0.1238      0.0173
            y      -0.1414     -1.4468      0.0943
            z      -0.0175      0.0552     -2.6827
-------------------------------------------------------------------------------
   62 O1    x      -1.5080     -0.1280     -0.0491
            y      -0.1492     -1.4497     -0.0883
            z      -0.0170     -0.0551     -2.6806
-------------------------------------------------------------------------------
   63 O1    x      -1.4696      0.0143      0.0410
            y       0.0880     -1.4279      0.0207
            z       0.0318      0.0317     -2.7379
-------------------------------------------------------------------------------
   64 O3    x      -1.3546      0.0258      0.1288
            y       0.0957     -1.3715      0.0946
            z       0.1035      0.0750     -2.5554
-------------------------------------------------------------------------------
   65 O3    x      -1.3174      0.1994      0.0783
            y       0.2827     -3.0144      0.1195
            z       0.0255      0.1182     -1.2457
-------------------------------------------------------------------------------
   66 O3    x      -1.3192      0.1924     -0.0774
            y       0.2757     -2.9985     -0.1529
            z      -0.0264     -0.1406     -1.2559
-------------------------------------------------------------------------------
   67 O3    x      -1.3043      0.1646      0.0932
            y       0.2417     -2.9890     -0.1197
            z       0.0393     -0.0884     -1.2653
-------------------------------------------------------------------------------
   68 O1    x      -1.3794      0.1337     -0.0951
            y       0.1984     -3.1240     -0.0255
            z      -0.0398     -0.0376     -1.3510
-------------------------------------------------------------------------------
   69 O3    x      -2.8823     -0.3226      0.0525
            y      -0.2412     -1.5142      0.0244
            z       0.0168      0.0521     -1.1238
-------------------------------------------------------------------------------
   70 O3    x      -2.8878     -0.3205     -0.0010
            y      -0.2399     -1.5114     -0.0207
            z       0.0271     -0.0454     -1.1228
-------------------------------------------------------------------------------
   71 O1    x      -3.0287     -0.2848     -0.0412
            y      -0.1845     -1.6023     -0.0275
            z      -0.0465     -0.0679     -1.1889
-------------------------------------------------------------------------------
   72 O3    x      -2.9282     -0.1742     -0.0662
            y      -0.0657     -1.4587     -0.0026
            z      -0.0840      0.0293     -1.1168
-------------------------------------------------------------------------------




  Elastic Constant Matrix: (Units=GPa)

-------------------------------------------------------------------------------
  Indices      1         2         3         4         5         6    
-------------------------------------------------------------------------------
       1     26.4668   10.7831    8.4784   -0.1583    0.4798   -6.0918
       2     10.7831   33.1850    6.2559   -0.2136    0.4059   -6.3028
       3      8.4784    6.2559   13.8857    0.1999    0.6118   -1.4632
       4     -0.1583   -0.2136    0.1999    7.8699   -1.8868    0.6101
       5      0.4798    0.4059    0.6118   -1.8868   15.2434    0.8847
       6     -6.0918   -6.3028   -1.4632    0.6101    0.8847   19.4620
-------------------------------------------------------------------------------


  Elastic Compliance Matrix: (Units=1/GPa)

-------------------------------------------------------------------------------
  Indices      1         2         3         4         5         6    
-------------------------------------------------------------------------------
       1    0.053043 -0.010040 -0.026627  0.000361 -0.000949  0.011381
       2   -0.010040  0.036737 -0.009543  0.000241 -0.000717  0.008062
       3   -0.026627 -0.009543  0.092300 -0.003480 -0.002797 -0.004250
       4    0.000361  0.000241 -0.003480  0.131554  0.016693 -0.004953
       5   -0.000949 -0.000717 -0.002797  0.016693  0.068082 -0.004358
       6    0.011381  0.008062 -0.004250 -0.004953 -0.004358  0.057589
-------------------------------------------------------------------------------

  Mechanical properties :

-------------------------------------------------------------------------------
  Convention :                    Reuss         Voigt         Hill
-------------------------------------------------------------------------------
  Bulk  Modulus (GPa)     =      11.15350      13.84136      12.49743
  Shear Modulus (GPa)     =       8.90292      11.71642      10.30967
-------------------------------------------------------------------------------
  Velocity S-wave (km/s)  =       1.80631       2.07216       1.94379
  Velocity P-wave (km/s)  =       2.90481       3.28599       3.10126
-------------------------------------------------------------------------------
  Compressibility (1/GPa) =    0.08965794
-------------------------------------------------------------------------------
  Stress axis :                     x             y             z
-------------------------------------------------------------------------------
  Youngs Moduli (GPa)     =      18.85275      27.22032      10.83426
-------------------------------------------------------------------------------
  Poissons Ratio (x)      =                     0.27330       0.28849
  Poissons Ratio (y)      =       0.18929                     0.10339
  Poissons Ratio (z)      =       0.50200       0.25976
-------------------------------------------------------------------------------


  Piezoelectric Strain Matrix: (Units=C/m**2)

-------------------------------------------------------------------------------
  Indices      1         2         3         4         5         6    
-------------------------------------------------------------------------------
       x     0.07108  -0.08798   0.08524  -0.13049  -0.54802   0.01296
       y     0.24278   0.13344  -0.04921  -0.83696   0.33367   0.19908
       z    -0.29967   0.57190   1.21081   0.15180   0.04150   0.30914
-------------------------------------------------------------------------------


  Piezoelectric Stress Matrix: (Units=10**-11 C/N)

-------------------------------------------------------------------------------
  Indices      1         2         3         4         5         6    
-------------------------------------------------------------------------------
       x     0.30044  -0.42930   0.87461  -2.66714  -3.97882   0.35183
       y     1.44953   0.40985  -1.11464 -10.52312   0.76898   1.82046
       z    -5.03444   1.49632  11.23215   1.49474   0.05000   1.29253
-------------------------------------------------------------------------------


  Static dielectric constant tensor : 

-------------------------------------------------------------------------------
              x         y         z
-------------------------------------------------------------------------------
       x     5.32008   0.02458  -0.00295
       y     0.02458   6.29526   0.09937
       z    -0.00295   0.09937   4.22097
--------------------------------------------------------------------------------

  High frequency dielectric constant tensor : 

-------------------------------------------------------------------------------
              x         y         z
-------------------------------------------------------------------------------
       x     1.54505  -0.00332   0.00006
       y    -0.00332   1.55259   0.00027
       z     0.00006   0.00027   1.50346
-------------------------------------------------------------------------------

  Static refractive indices : 

-------------------------------------------------------------------------------
    1 =    2.05334      2 =    2.30640      3 =    2.51010
-------------------------------------------------------------------------------

  High frequency refractive indices : 

-------------------------------------------------------------------------------
    1 =    1.22615      2 =    1.24250      3 =    1.24653
-------------------------------------------------------------------------------


  Time to end of optimisation =       9.9560 seconds


  Peak dynamic memory used =       5.01 MB 


  Timing analysis for GULP :

--------------------------------------------------------------------------------
  Task / Subroutine                                          Time (Seconds)
--------------------------------------------------------------------------------
  Calculation of reciprocal space energy and derivatives          0.6616
  Calculation of real space energy and derivatives                6.8509
  Calculation of three-body energy and derivatives                0.0844
  Calculation and manipulation of Hessian matrix                  2.7118
  Calculation of matrix inversion                                 0.0352
  Global summation overhead                                       0.0002
--------------------------------------------------------------------------------
  Total CPU time                                                  9.9560
--------------------------------------------------------------------------------


  Dump file written as c00016.vasp.grs
  CIF file written as c00016.vasp.cif


  Job Finished at 11:43.06 31st October    2025                               

