********************************************************************************
*                       GENERAL UTILITY LATTICE PROGRAM                        *
*                                 Julian Gale                                  *
*                       Curtin Institute for Computation                       *
*                    School of Molecular and Life Sciences                     *
*                    Curtin University, Western Australia                      *
********************************************************************************
* Version = 6.1.2 * Last modified =   3rd November 2022                        *
********************************************************************************
*  optimise     - perform optimisation run                                     *
*  conp         - constant pressure calculation                                *
*  property     - calculate properties for final geometry                      *
********************************************************************************

  Job Started  at 12:03.38 31st October    2025                               

  Number of CPUs =     1


  Total number of configurations input =      1

********************************************************************************
*  Input for Configuration =   1 : c00094.vasp                                 *
********************************************************************************

  Formula = Ge20Si4O48                                                  

  Number of irreducible atoms/shells =     120


  Total number atoms/shells =     120

  Dimensionality = 3               :  Bulk   



  Cartesian lattice vectors (Angstroms) :

       17.182800    0.000000    0.000000
        0.000000    7.513760    0.000000
        0.000000    0.000000   10.447700

  Cell parameters (Angstroms/Degrees):

  a =      17.1828    alpha =  90.0000
  b =       7.5138    beta  =  90.0000
  c =      10.4477    gamma =  90.0000

  Initial cell volume =        1348.875752 Angs**3

  Temperature of configuration =   0.00     K 

  Pressure of configuration =         0.000 GPa 

  Fractional coordinates of asymmetric unit :

--------------------------------------------------------------------------------
   No.  Atomic       x           y          z         Charge      Occupancy
        Label      (Frac)      (Frac)     (Frac)        (e)         (Frac)  
--------------------------------------------------------------------------------
      1 Ge    c    0.052090    0.000000    0.372270     4.00000    1.000000    
      2 Ge    c    0.447910 *  0.000000 *  0.372270 *   4.00000    1.000000    
      3 Ge    c    0.947910 *  0.000000 *  0.627730 *   4.00000    1.000000    
      4 Ge    c    0.552090 *  0.000000 *  0.627730 *   4.00000    1.000000    
      5 Ge    c    0.556730 *  0.000000 *  0.122130 *   4.00000    1.000000    
      6 Ge    c    0.943270 *  0.000000 *  0.122130 *   4.00000    1.000000    
      7 Ge    c    0.443270 *  0.000000 *  0.877870 *   4.00000    1.000000    
      8 Ge    c    0.056730 *  0.000000 *  0.877870 *   4.00000    1.000000    
      9 Ge    c    0.160190 *  0.293910 *  0.273440 *   4.00000    1.000000    
     10 Ge    c    0.339810 *  0.706090 *  0.273440 *   4.00000    1.000000    
     11 Ge    c    0.839810 *  0.293910 *  0.726560 *   4.00000    1.000000    
     12 Ge    c    0.660190 *  0.706090 *  0.726560 *   4.00000    1.000000    
     13 Ge    c    0.839810 *  0.706090 *  0.726560 *   4.00000    1.000000    
     14 Ge    c    0.160190 *  0.706090 *  0.273440 *   4.00000    1.000000    
     15 Ge    c    0.660660 *  0.294090 *  0.017440 *   4.00000    1.000000    
     16 Ge    c    0.839340 *  0.705910 *  0.017440 *   4.00000    1.000000    
     17 Ge    c    0.339340 *  0.294090 *  0.982560 *   4.00000    1.000000    
     18 Ge    c    0.160660 *  0.294090 *  0.982560 *   4.00000    1.000000    
     19 Ge    c    0.660660 *  0.705910 *  0.017440 *   4.00000    1.000000    
     20 Ge    c    0.839340 *  0.294090 *  0.017440 *   4.00000    1.000000    
     21 Si    c    0.660190 *  0.293910 *  0.726560 *   4.00000    1.000000    
     22 Si    c    0.339810 *  0.293910 *  0.273440 *   4.00000    1.000000    
     23 Si    c    0.160660 *  0.705910 *  0.982560 *   4.00000    1.000000    
     24 Si    c    0.339340 *  0.705910 *  0.982560 *   4.00000    1.000000    
     25 O1    c    0.106570 *  0.174340 *  0.366200 *   1.73396    1.000000    
     26 O1    c    0.393430 *  0.825660 *  0.366200 *   1.73396    1.000000    
     27 O1    c    0.893430 *  0.174340 *  0.633800 *   1.73396    1.000000    
     28 O1    c    0.606570 *  0.825660 *  0.633800 *   1.73396    1.000000    
     29 O1    c    0.893430 *  0.825660 *  0.633800 *   1.73396    1.000000    
     30 O3    c    0.606570 *  0.174340 *  0.633800 *   1.33043    1.000000    
     31 O1    c    0.106570 *  0.825660 *  0.366200 *   1.73396    1.000000    
     32 O3    c    0.393430 *  0.174340 *  0.366200 *   1.33043    1.000000    
     33 O1    c    0.000000 *  0.000000 *  0.500000 *   1.73396    1.000000    
     34 O1    c    0.500000 *  0.000000 *  0.500000 *   1.73396    1.000000    
     35 O1    c    0.994520 *  0.000000 *  0.250840 *   1.73396    1.000000    
     36 O1    c    0.505480 *  0.000000 *  0.250840 *   1.73396    1.000000    
     37 O1    c    0.005480 *  0.000000 *  0.749160 *   1.73396    1.000000    
     38 O1    c    0.494520 *  0.000000 *  0.749160 *   1.73396    1.000000    
     39 O1    c    0.610230 *  0.175520 *  0.115390 *   1.73396    1.000000    
     40 O1    c    0.889770 *  0.824480 *  0.115390 *   1.73396    1.000000    
     41 O1    c    0.389770 *  0.175520 *  0.884610 *   1.73396    1.000000    
     42 O3    c    0.110230 *  0.824480 *  0.884610 *   1.33043    1.000000    
     43 O3    c    0.389770 *  0.824480 *  0.884610 *   1.33043    1.000000    
     44 O1    c    0.110230 *  0.175520 *  0.884610 *   1.73396    1.000000    
     45 O1    c    0.610230 *  0.824480 *  0.115390 *   1.73396    1.000000    
     46 O1    c    0.889770 *  0.175520 *  0.115390 *   1.73396    1.000000    
     47 O1    c    0.500000 *  0.000000 *  0.000000 *   1.73396    1.000000    
     48 O1    c    0.000000 *  0.000000 *  0.000000 *   1.73396    1.000000    
     49 O1    c    0.151750 *  0.500000 *  0.313330 *   1.73396    1.000000    
     50 O3    c    0.348250 *  0.500000 *  0.313330 *   1.33043    1.000000    
     51 O1    c    0.848250 *  0.500000 *  0.686670 *   1.73396    1.000000    
     52 O3    c    0.651750 *  0.500000 *  0.686670 *   1.33043    1.000000    
     53 O3    c    0.250000 *  0.234950 *  0.285720 *   1.33043    1.000000    
     54 O1    c    0.250000 *  0.765050 *  0.285720 *   1.73396    1.000000    
     55 O3    c    0.750000 *  0.234950 *  0.714280 *   1.33043    1.000000    
     56 O1    c    0.750000 *  0.765050 *  0.714280 *   1.73396    1.000000    
     57 O1    c    0.131410 *  0.268650 *  0.127790 *   1.73396    1.000000    
     58 O3    c    0.368590 *  0.731350 *  0.127790 *   1.33043    1.000000    
     59 O1    c    0.868590 *  0.268650 *  0.872210 *   1.73396    1.000000    
     60 O1    c    0.631410 *  0.731350 *  0.872210 *   1.73396    1.000000    
     61 O1    c    0.868590 *  0.731350 *  0.872210 *   1.73396    1.000000    
     62 O3    c    0.631410 *  0.268650 *  0.872210 *   1.33043    1.000000    
     63 O3    c    0.131410 *  0.731350 *  0.127790 *   1.33043    1.000000    
     64 O3    c    0.368590 *  0.268650 *  0.127790 *   1.33043    1.000000    
     65 O1    c    0.653920 *  0.500000 *  0.058200 *   1.73396    1.000000    
     66 O1    c    0.846080 *  0.500000 *  0.058200 *   1.73396    1.000000    
     67 O3    c    0.346080 *  0.500000 *  0.941800 *   1.33043    1.000000    
     68 O3    c    0.153920 *  0.500000 *  0.941800 *   1.33043    1.000000    
     69 O1    c    0.750000 *  0.231060 *  0.027050 *   1.73396    1.000000    
     70 O1    c    0.750000 *  0.768940 *  0.027050 *   1.73396    1.000000    
     71 O1    c    0.250000 *  0.231060 *  0.972950 *   1.73396    1.000000    
     72 O2    c    0.250000 *  0.768940 *  0.972950 *   0.87073    1.000000    
     73 O1    s    0.106570 *  0.174340 *  0.366200 *  -3.73396    1.000000    
     74 O1    s    0.393430 *  0.825660 *  0.366200 *  -3.73396    1.000000    
     75 O1    s    0.893430 *  0.174340 *  0.633800 *  -3.73396    1.000000    
     76 O1    s    0.606570 *  0.825660 *  0.633800 *  -3.73396    1.000000    
     77 O1    s    0.893430 *  0.825660 *  0.633800 *  -3.73396    1.000000    
     78 O3    s    0.606570 *  0.174340 *  0.633800 *  -3.33043    1.000000    
     79 O1    s    0.106570 *  0.825660 *  0.366200 *  -3.73396    1.000000    
     80 O3    s    0.393430 *  0.174340 *  0.366200 *  -3.33043    1.000000    
     81 O1    s    0.000000 *  0.000000 *  0.500000 *  -3.73396    1.000000    
     82 O1    s    0.500000 *  0.000000 *  0.500000 *  -3.73396    1.000000    
     83 O1    s    0.994520 *  0.000000 *  0.250840 *  -3.73396    1.000000    
     84 O1    s    0.505480 *  0.000000 *  0.250840 *  -3.73396    1.000000    
     85 O1    s    0.005480 *  0.000000 *  0.749160 *  -3.73396    1.000000    
     86 O1    s    0.494520 *  0.000000 *  0.749160 *  -3.73396    1.000000    
     87 O1    s    0.610230 *  0.175520 *  0.115390 *  -3.73396    1.000000    
     88 O1    s    0.889770 *  0.824480 *  0.115390 *  -3.73396    1.000000    
     89 O1    s    0.389770 *  0.175520 *  0.884610 *  -3.73396    1.000000    
     90 O3    s    0.110230 *  0.824480 *  0.884610 *  -3.33043    1.000000    
     91 O3    s    0.389770 *  0.824480 *  0.884610 *  -3.33043    1.000000    
     92 O1    s    0.110230 *  0.175520 *  0.884610 *  -3.73396    1.000000    
     93 O1    s    0.610230 *  0.824480 *  0.115390 *  -3.73396    1.000000    
     94 O1    s    0.889770 *  0.175520 *  0.115390 *  -3.73396    1.000000    
     95 O1    s    0.500000 *  0.000000 *  0.000000 *  -3.73396    1.000000    
     96 O1    s    0.000000 *  0.000000 *  0.000000 *  -3.73396    1.000000    
     97 O1    s    0.151750 *  0.500000 *  0.313330 *  -3.73396    1.000000    
     98 O3    s    0.348250 *  0.500000 *  0.313330 *  -3.33043    1.000000    
     99 O1    s    0.848250 *  0.500000 *  0.686670 *  -3.73396    1.000000    
    100 O3    s    0.651750 *  0.500000 *  0.686670 *  -3.33043    1.000000    
    101 O3    s    0.250000 *  0.234950 *  0.285720 *  -3.33043    1.000000    
    102 O1    s    0.250000 *  0.765050 *  0.285720 *  -3.73396    1.000000    
    103 O3    s    0.750000 *  0.234950 *  0.714280 *  -3.33043    1.000000    
    104 O1    s    0.750000 *  0.765050 *  0.714280 *  -3.73396    1.000000    
    105 O1    s    0.131410 *  0.268650 *  0.127790 *  -3.73396    1.000000    
    106 O3    s    0.368590 *  0.731350 *  0.127790 *  -3.33043    1.000000    
    107 O1    s    0.868590 *  0.268650 *  0.872210 *  -3.73396    1.000000    
    108 O1    s    0.631410 *  0.731350 *  0.872210 *  -3.73396    1.000000    
    109 O1    s    0.868590 *  0.731350 *  0.872210 *  -3.73396    1.000000    
    110 O3    s    0.631410 *  0.268650 *  0.872210 *  -3.33043    1.000000    
    111 O3    s    0.131410 *  0.731350 *  0.127790 *  -3.33043    1.000000    
    112 O3    s    0.368590 *  0.268650 *  0.127790 *  -3.33043    1.000000    
    113 O1    s    0.653920 *  0.500000 *  0.058200 *  -3.73396    1.000000    
    114 O1    s    0.846080 *  0.500000 *  0.058200 *  -3.73396    1.000000    
    115 O3    s    0.346080 *  0.500000 *  0.941800 *  -3.33043    1.000000    
    116 O3    s    0.153920 *  0.500000 *  0.941800 *  -3.33043    1.000000    
    117 O1    s    0.750000 *  0.231060 *  0.027050 *  -3.73396    1.000000    
    118 O1    s    0.750000 *  0.768940 *  0.027050 *  -3.73396    1.000000    
    119 O1    s    0.250000 *  0.231060 *  0.972950 *  -3.73396    1.000000    
    120 O2    s    0.250000 *  0.768940 *  0.972950 *  -2.87073    1.000000    
--------------------------------------------------------------------------------



********************************************************************************
*  General input information                                                   *
********************************************************************************

  Species output for all configurations : 

--------------------------------------------------------------------------------
  Species    Type    Atomic    Atomic    Charge       Radii (Angs)     Library
                     Number     Mass       (e)     Cova   Ionic  VDW   Symbol
--------------------------------------------------------------------------------
    Ge       Core       32      72.61   4.000000   1.170  0.000  1.750 Ge       
    Si       Core       14      28.09   4.000000   1.200  0.000  2.100 Si       
    O1       Core        8      16.00   1.733957   0.730  0.000  1.360 O1       
    O2       Core        8      16.00   0.870733   0.730  0.000  1.360 O2       
    O3       Core        8      16.00   1.330431   0.730  0.000  1.360 O3       
    O1       Shell       8       0.00  -3.733957   0.730  0.000  0.000 O1       
    O2       Shell       8       0.00  -2.870733   0.730  0.000  0.000 O2       
    O3       Shell       8       0.00  -3.330431   0.730  0.000  0.000 O3       
--------------------------------------------------------------------------------


  Lattice summation method               =    Ewald          (3-D)
                                         =    Parry          (2-D)
                                         =    Saunders et al (1-D)
  Accuracy factor for lattice sums       =   12.000


  Analytic derivatives to be used

  Time limit = Infinity

  Maximum range for interatomic potentials =    100000.000000 Angstroms

  General interatomic potentials :

--------------------------------------------------------------------------------
Atom  Types   Potential      Parameter       Value         Units   Cutoffs(Ang)
  1     2                                                            Min /  Max 
--------------------------------------------------------------------------------
Si   c O1   s Buckingham    Buckingham A     1315.2478    eV        0.000 16.000
                            Buckingham rho  0.31775900    Ang       
                            Buckingham C     10.141118    eV*Ang^6  
--------------------------------------------------------------------------------
Si   c O2   s Buckingham    Buckingham A     1315.2478    eV        0.000 16.000
                            Buckingham rho  0.31775900    Ang       
                            Buckingham C     10.141118    eV*Ang^6  
--------------------------------------------------------------------------------
Si   c O3   s Buckingham    Buckingham A     1315.2478    eV        0.000 16.000
                            Buckingham rho  0.31775900    Ang       
                            Buckingham C     10.141118    eV*Ang^6  
--------------------------------------------------------------------------------
Ge   c O1   s Buckingham    Buckingham A     1497.3996    eV        0.000 16.000
                            Buckingham rho  0.32564600    Ang       
                            Buckingham C     16.808599    eV*Ang^6  
--------------------------------------------------------------------------------
Ge   c O2   s Buckingham    Buckingham A     1497.3996    eV        0.000 16.000
                            Buckingham rho  0.32564600    Ang       
                            Buckingham C     16.808599    eV*Ang^6  
--------------------------------------------------------------------------------
Ge   c O3   s Buckingham    Buckingham A     1497.3996    eV        0.000 16.000
                            Buckingham rho  0.32564600    Ang       
                            Buckingham C     16.808599    eV*Ang^6  
--------------------------------------------------------------------------------
O1   s O1   s Buckingham    Buckingham A     22764.000    eV        0.000 16.000
                            Buckingham rho  0.14900000    Ang       
                            Buckingham C     10.937044    eV*Ang^6  
--------------------------------------------------------------------------------
O1   s O2   s Buckingham    Buckingham A     22764.000    eV        0.000 16.000
                            Buckingham rho  0.14900000    Ang       
                            Buckingham C     10.937044    eV*Ang^6  
--------------------------------------------------------------------------------
O1   s O3   s Buckingham    Buckingham A     22764.000    eV        0.000 16.000
                            Buckingham rho  0.14900000    Ang       
                            Buckingham C     10.937044    eV*Ang^6  
--------------------------------------------------------------------------------
O2   s O2   s Buckingham    Buckingham A     22764.000    eV        0.000 16.000
                            Buckingham rho  0.14900000    Ang       
                            Buckingham C     10.937044    eV*Ang^6  
--------------------------------------------------------------------------------
O2   s O3   s Buckingham    Buckingham A     22764.000    eV        0.000 16.000
                            Buckingham rho  0.14900000    Ang       
                            Buckingham C     10.937044    eV*Ang^6  
--------------------------------------------------------------------------------
O3   s O3   s Buckingham    Buckingham A     22764.000    eV        0.000 16.000
                            Buckingham rho  0.14900000    Ang       
                            Buckingham C     10.937044    eV*Ang^6  
--------------------------------------------------------------------------------
O1   c O1   s Spring (c-s)  Spring k 2       180.31577    eV*Ang^-2 0.000  0.800
                            Spring k 4       0.0000000    eV*Ang^-4 
--------------------------------------------------------------------------------
O2   c O2   s Spring (c-s)  Spring k 2       75.969800    eV*Ang^-2 0.000  0.800
                            Spring k 4       0.0000000    eV*Ang^-4 
--------------------------------------------------------------------------------
O3   c O3   s Spring (c-s)  Spring k 2       128.14270    eV*Ang^-2 0.000  0.800
                            Spring k 4       0.0000000    eV*Ang^-4 
--------------------------------------------------------------------------------

  General Three-body potentials :

--------------------------------------------------------------------------------
  Atoms       Potential      Parameter       Value         Units   Cutoffs(Ang)
  1 / 2 / 3                                                          Min /  Max 
--------------------------------------------------------------------------------
Si    core    Harmonic      Three-body cnst  1.2614000    eV*rad^-2 0.000  1.900
O1    shel                  Three-body angl  109.47000    degrees   0.000  1.900
O1    shel                  Three-body k4    0.0000000    eV*rad^-4 0.000  3.500
                            Three-body k3    0.0000000    eV*rad^-3 
--------------------------------------------------------------------------------
Si    core    Harmonic      Three-body cnst  1.2614000    eV*rad^-2 0.000  1.900
O1    shel                  Three-body angl  109.47000    degrees   0.000  1.900
õ(1   shel                  Three-body k4    0.0000000    eV*rad^-4 0.000  3.500
                            Three-body k3    0.0000000    eV*rad^-3 
--------------------------------------------------------------------------------
Si    core    Harmonic      Three-body cnst  1.2614000    eV*rad^-2 0.000  1.900
õ(1   shel                  Three-body angl  109.47000    degrees   0.000  1.900
õ(1   shel                  Three-body k4    0.0000000    eV*rad^-4 0.000  3.500
                            Three-body k3    0.0000000    eV*rad^-3 
--------------------------------------------------------------------------------
Si    core    Harmonic      Three-body cnst  1.2614000    eV*rad^-2 0.000  1.900
O1    shel                  Three-body angl  109.47000    degrees   0.000  1.900
O2    shel                  Three-body k4    0.0000000    eV*rad^-4 0.000  3.500
                            Three-body k3    0.0000000    eV*rad^-3 
--------------------------------------------------------------------------------
Si    core    Harmonic      Three-body cnst  1.2614000    eV*rad^-2 0.000  1.900
O1    shel                  Three-body angl  109.47000    degrees   0.000  1.900
õ(2   shel                  Three-body k4    0.0000000    eV*rad^-4 0.000  3.500
                            Three-body k3    0.0000000    eV*rad^-3 
--------------------------------------------------------------------------------
Si    core    Harmonic      Three-body cnst  1.2614000    eV*rad^-2 0.000  1.900
O2    shel                  Three-body angl  109.47000    degrees   0.000  1.900
õ(1   shel                  Three-body k4    0.0000000    eV*rad^-4 0.000  3.500
                            Three-body k3    0.0000000    eV*rad^-3 
--------------------------------------------------------------------------------
Si    core    Harmonic      Three-body cnst  1.2614000    eV*rad^-2 0.000  1.900
õ(1   shel                  Three-body angl  109.47000    degrees   0.000  1.900
õ(2   shel                  Three-body k4    0.0000000    eV*rad^-4 0.000  3.500
                            Three-body k3    0.0000000    eV*rad^-3 
--------------------------------------------------------------------------------
Si    core    Harmonic      Three-body cnst  1.2614000    eV*rad^-2 0.000  1.900
O2    shel                  Three-body angl  109.47000    degrees   0.000  1.900
O2    shel                  Three-body k4    0.0000000    eV*rad^-4 0.000  3.500
                            Three-body k3    0.0000000    eV*rad^-3 
--------------------------------------------------------------------------------
Si    core    Harmonic      Three-body cnst  1.2614000    eV*rad^-2 0.000  1.900
O2    shel                  Three-body angl  109.47000    degrees   0.000  1.900
õ(2   shel                  Three-body k4    0.0000000    eV*rad^-4 0.000  3.500
                            Three-body k3    0.0000000    eV*rad^-3 
--------------------------------------------------------------------------------
Si    core    Harmonic      Three-body cnst  1.2614000    eV*rad^-2 0.000  1.900
õ(2   shel                  Three-body angl  109.47000    degrees   0.000  1.900
õ(2   shel                  Three-body k4    0.0000000    eV*rad^-4 0.000  3.500
                            Three-body k3    0.0000000    eV*rad^-3 
--------------------------------------------------------------------------------

********************************************************************************
*  Output for configuration   1 : c00094.vasp                                  *
********************************************************************************


  Components of energy : 

--------------------------------------------------------------------------------
  Interatomic potentials     =         896.62540446 eV    
  Three-body potentials      =           0.00000000 eV    
  Monopole - monopole (real) =       -2676.00317478 eV    
  Monopole - monopole (recip)=       -1115.35404472 eV    
  Monopole - monopole (total)=       -3791.35721950 eV    
--------------------------------------------------------------------------------
  Total lattice energy       =       -2894.73181504 eV    
--------------------------------------------------------------------------------
  Total lattice energy       =         -279297.3701 kJ/(mole unit cells)
--------------------------------------------------------------------------------


  Number of variables =      363

  Maximum number of calculations  =          1000
  Maximum Hessian update interval =            10
  Maximum step size               =   0.100000000
  Maximum parameter tolerance     =   0.000010000
  Maximum function  tolerance     =   0.000010000
  Maximum gradient  tolerance     =   0.001000000
  Maximum gradient  component     =   0.010000000

  Symmetry not applied to optimisation

  Cell parameters to be optimised using strains

  Newton-Raphson optimiser to be used

  BFGS hessian update to be used

  Lower half triangular hessian to be used

  Minimiser to switch to RFO
  When gradient norm is less than     0.050000

  Dumpfile to be written after every cycle

  Start of bulk optimisation :

  Cycle:      0 Energy:     -2894.731815  Gnorm:      5.776484  CPU:    0.137
  ** Hessian calculated **
  Cycle:      1 Energy:     -2938.281329  Gnorm:      1.376748  CPU:    0.320
  ** Hessian calculated **
  Cycle:      2 Energy:     -2943.048697  Gnorm:      0.650014  CPU:    0.591
  Cycle:      3 Energy:     -2944.018825  Gnorm:      0.353927  CPU:    0.711
  Cycle:      4 Energy:     -2944.582033  Gnorm:      0.302433  CPU:    0.870
  Cycle:      5 Energy:     -2945.288487  Gnorm:      0.253477  CPU:    1.028
  Cycle:      6 Energy:     -2946.023258  Gnorm:      0.232253  CPU:    1.213
  Cycle:      7 Energy:     -2946.352116  Gnorm:      0.153867  CPU:    1.329
  Cycle:      8 Energy:     -2946.473386  Gnorm:      0.112204  CPU:    1.443
  Cycle:      9 Energy:     -2946.534695  Gnorm:      0.090520  CPU:    1.577
  Cycle:     10 Energy:     -2946.580285  Gnorm:      0.082211  CPU:    1.719
  Cycle:     11 Energy:     -2946.627976  Gnorm:      0.085209  CPU:    1.858
  ** Hessian calculated **
  Cycle:     12 Energy:     -2946.652459  Gnorm:      0.083595  CPU:    2.111
  Cycle:     13 Energy:     -2946.687252  Gnorm:      0.081109  CPU:    2.269
  Cycle:     14 Energy:     -2946.715497  Gnorm:      0.078668  CPU:    2.428
  Cycle:     15 Energy:     -2946.721914  Gnorm:      0.077559  CPU:    2.565
  ** Hessian calculated **
  Cycle:     16 Energy:     -2946.779135  Gnorm:      0.073187  CPU:    2.817
  Cycle:     17 Energy:     -2946.871497  Gnorm:      0.064913  CPU:    2.982
  Cycle:     18 Energy:     -2946.929573  Gnorm:      0.061108  CPU:    3.105
  ** Hessian calculated **
  Cycle:     19 Energy:     -2947.067860  Gnorm:      0.063665  CPU:    3.357
  Cycle:     20 Energy:     -2947.113896  Gnorm:      0.059656  CPU:    3.454
  ** Hessian calculated **
  Cycle:     21 Energy:     -2947.129627  Gnorm:      0.034196  CPU:    3.686
  ** Hessian has required structure
  Cycle:     22 Energy:     -2947.132760  Gnorm:      0.059214  CPU:    3.857
  ** Hessian has required structure
  Cycle:     23 Energy:     -2947.138071  Gnorm:      0.062532  CPU:    4.026
  ** Hessian has required structure
  Cycle:     24 Energy:     -2947.141549  Gnorm:      0.070923  CPU:    4.192
  ** Hessian has required structure
  Cycle:     25 Energy:     -2947.145953  Gnorm:      0.060605  CPU:    4.362
  ** Hessian has required structure
  Cycle:     26 Energy:     -2947.149031  Gnorm:      0.049293  CPU:    4.531
  ** Hessian has required structure
  Cycle:     27 Energy:     -2947.150280  Gnorm:      0.043821  CPU:    4.702
  ** Hessian has required structure
  Cycle:     28 Energy:     -2947.152315  Gnorm:      0.056528  CPU:    4.893
  ** Hessian has required structure
  Cycle:     29 Energy:     -2947.154811  Gnorm:      0.055248  CPU:    5.052
  ** Hessian has required structure
  Cycle:     30 Energy:     -2947.158304  Gnorm:      0.057431  CPU:    5.258
  ** Hessian has wrong structure
  ** Imaginary eigenvectors =   5
  Cycle:     31 Energy:     -2947.199210  Gnorm:      0.072114  CPU:    5.797
  ** Hessian has wrong structure
  ** Imaginary eigenvectors =   4
  ** Hessian has wrong structure
  ** Imaginary eigenvectors =   2
  Cycle:     32 Energy:     -2947.277803  Gnorm:      0.103087  CPU:    6.339
  ** Hessian has wrong structure
  ** Imaginary eigenvectors =   2
  ** Hessian has required structure
  Cycle:     33 Energy:     -2947.430593  Gnorm:      0.129146  CPU:    6.890
  ** Hessian has required structure
  Cycle:     34 Energy:     -2947.680919  Gnorm:      0.095694  CPU:    7.092
  ** Hessian has required structure
  Cycle:     35 Energy:     -2947.770782  Gnorm:      0.073083  CPU:    7.251
  ** Hessian has required structure
  Cycle:     36 Energy:     -2947.843942  Gnorm:      0.065722  CPU:    7.445
  ** Hessian has required structure
  Cycle:     37 Energy:     -2947.894859  Gnorm:      0.053448  CPU:    7.638
  ** Hessian has required structure
  Cycle:     38 Energy:     -2947.923613  Gnorm:      0.062587  CPU:    7.834
  ** Hessian has required structure
  Cycle:     39 Energy:     -2947.940541  Gnorm:      0.035360  CPU:    8.028
  ** Hessian has required structure
  Cycle:     40 Energy:     -2947.947875  Gnorm:      0.031287  CPU:    8.226
  ** Hessian has required structure
  Cycle:     41 Energy:     -2947.954074  Gnorm:      0.019439  CPU:    8.424
  ** Hessian has required structure
  Cycle:     42 Energy:     -2947.957566  Gnorm:      0.017570  CPU:    8.627
  ** Hessian has required structure
  Cycle:     43 Energy:     -2947.964075  Gnorm:      0.013846  CPU:    8.940
  ** Hessian has required structure
  Cycle:     44 Energy:     -2947.969507  Gnorm:      0.010313  CPU:    9.137
  ** Hessian has required structure
  Cycle:     45 Energy:     -2947.971014  Gnorm:      0.005461  CPU:    9.339
  ** Hessian has required structure
  Cycle:     46 Energy:     -2947.971546  Gnorm:      0.003547  CPU:    9.548
  ** Hessian has required structure
  Cycle:     47 Energy:     -2947.971807  Gnorm:      0.001741  CPU:    9.762
  ** Hessian has required structure
  Cycle:     48 Energy:     -2947.971955  Gnorm:      0.001983  CPU:    9.964
  ** Hessian has required structure
  Cycle:     49 Energy:     -2947.972077  Gnorm:      0.001091  CPU:   10.162
  ** Hessian has required structure
  Cycle:     50 Energy:     -2947.972167  Gnorm:      0.001412  CPU:   10.361
  ** Hessian has required structure
  Cycle:     51 Energy:     -2947.972306  Gnorm:      0.001602  CPU:   10.573
  ** Hessian has required structure
  Cycle:     52 Energy:     -2947.972598  Gnorm:      0.002932  CPU:   10.812
  ** Hessian has wrong structure
  ** Imaginary eigenvectors =   1
  Cycle:     53 Energy:     -2947.973763  Gnorm:      0.008557  CPU:   11.256
  ** Hessian has required structure
  Cycle:     54 Energy:     -2947.976688  Gnorm:      0.010427  CPU:   11.581
  ** Hessian has required structure
  Cycle:     55 Energy:     -2947.979161  Gnorm:      0.007600  CPU:   11.795
  ** Hessian has required structure
  Cycle:     56 Energy:     -2947.980445  Gnorm:      0.002650  CPU:   11.987
  ** Hessian has required structure
  Cycle:     57 Energy:     -2947.981080  Gnorm:      0.003088  CPU:   12.200
  ** Hessian has required structure
  Cycle:     58 Energy:     -2947.981589  Gnorm:      0.002004  CPU:   12.413
  ** Hessian has required structure
  Cycle:     59 Energy:     -2947.981735  Gnorm:      0.001095  CPU:   12.626
  ** Hessian has required structure
  Cycle:     60 Energy:     -2947.981783  Gnorm:      0.000509  CPU:   12.841
  ** Hessian has required structure
  Cycle:     61 Energy:     -2947.981798  Gnorm:      0.000281  CPU:   13.051
  ** Hessian has required structure
  Cycle:     62 Energy:     -2947.981799  Gnorm:      0.000210  CPU:   13.228
  ** Hessian has required structure
  Cycle:     63 Energy:     -2947.981799  Gnorm:      0.000188  CPU:   13.399
  ** Hessian has required structure
  Cycle:     64 Energy:     -2947.981799  Gnorm:      0.000186  CPU:   13.706
  ** Hessian has required structure
  Cycle:     65 Energy:     -2947.981799  Gnorm:      0.000185  CPU:   13.875
  ** Hessian has required structure
  Cycle:     66 Energy:     -2947.981799  Gnorm:      0.000184  CPU:   14.050
  ** Hessian has required structure
  Cycle:     67 Energy:     -2947.981799  Gnorm:      0.000184  CPU:   14.221
  ** Hessian has required structure
  Cycle:     68 Energy:     -2947.981799  Gnorm:      0.000184  CPU:   14.392
  ** Hessian has required structure
  Cycle:     69 Energy:     -2947.981799  Gnorm:      0.000182  CPU:   14.667
  ** Hessian has required structure
  Cycle:     70 Energy:     -2947.981799  Gnorm:      0.000180  CPU:   14.963
  ** Hessian has required structure
  Cycle:     71 Energy:     -2947.981799  Gnorm:      0.000180  CPU:   15.133
  ** Hessian has required structure
  Cycle:     72 Energy:     -2947.981799  Gnorm:      0.000179  CPU:   15.310
  ** Hessian has required structure
  Cycle:     73 Energy:     -2947.981799  Gnorm:      0.000178  CPU:   15.597
  ** Hessian has required structure
  Cycle:     74 Energy:     -2947.981800  Gnorm:      0.000177  CPU:   15.895
  ** Hessian has required structure
  Cycle:     75 Energy:     -2947.981800  Gnorm:      0.000176  CPU:   16.072
  ** Hessian has required structure
  Cycle:     76 Energy:     -2947.981800  Gnorm:      0.000176  CPU:   16.347
  ** Hessian has required structure
  Cycle:     77 Energy:     -2947.981800  Gnorm:      0.000174  CPU:   16.641
  ** Hessian has required structure
  Cycle:     78 Energy:     -2947.981800  Gnorm:      0.000174  CPU:   16.808
  ** Hessian has required structure
  Cycle:     79 Energy:     -2947.981800  Gnorm:      0.000174  CPU:   17.080
  ** Hessian has required structure
  Cycle:     80 Energy:     -2947.981800  Gnorm:      0.000172  CPU:   17.413
  ** Hessian has required structure
  Cycle:     81 Energy:     -2947.981800  Gnorm:      0.000172  CPU:   17.687
  ** Hessian has required structure
  Cycle:     82 Energy:     -2947.981799  Gnorm:      0.000172  CPU:   18.138
  ** Hessian calculated **
  Cycle:     83 Energy:     -2947.981799  Gnorm:      0.000121  CPU:   18.344
  ** Hessian has required structure
  ** Hessian has required structure
  Cycle:     84 Energy:     -2947.981800  Gnorm:      0.000085  CPU:   18.665
  ** Hessian has required structure
  Cycle:     85 Energy:     -2947.981800  Gnorm:      0.000059  CPU:   18.835
  ** Hessian has required structure


  **** Optimisation achieved ****


  Final energy =   -2947.98179996 eV      
  Final Gnorm  =       0.00004156

  Components of energy : 

--------------------------------------------------------------------------------
  Interatomic potentials     =         779.52107772 eV    
  Three-body potentials      =           0.00000000 eV    
  Monopole - monopole (real) =       -1564.05469096 eV    
  Monopole - monopole (recip)=       -2163.44818672 eV    
  Monopole - monopole (total)=       -3727.50287769 eV    
--------------------------------------------------------------------------------
  Total lattice energy       =       -2947.98179996 eV    
--------------------------------------------------------------------------------
  Total lattice energy       =         -284435.1797 kJ/(mole unit cells)
--------------------------------------------------------------------------------

  Final fractional coordinates of atoms :

--------------------------------------------------------------------------------
   No.  Atomic        x           y          z          Radius
        Label       (Frac)      (Frac)     (Frac)       (Angs) 
--------------------------------------------------------------------------------
     1  Ge    c     0.052090    0.000000    0.372270    0.000000
     2  Ge    c     0.446629    0.059654    0.371612    0.000000
     3  Ge    c     0.943083    0.048686    0.617306    0.000000
     4  Ge    c     0.548832    0.004552    0.629351    0.000000
     5  Ge    c     0.548844    0.993717    0.119094    0.000000
     6  Ge    c     0.952960    0.057911    0.111977    0.000000
     7  Ge    c     0.440588    0.058299    0.871369    0.000000
     8  Ge    c     0.058215    0.010332    0.860172    0.000000
     9  Ge    c     0.171635    0.287952    0.289709    0.000000
    10  Ge    c     0.329061    0.763019    0.298901    0.000000
    11  Ge    c     0.847765    0.361105    0.733201    0.000000
    12  Ge    c     0.639457    0.681873    0.739055    0.000000
    13  Ge    c     0.822659    0.759272    0.728281    0.000000
    14  Ge    c     0.148521    0.691759    0.298283    0.000000
    15  Ge    c     0.674201    0.284390    0.053385    0.000000
    16  Ge    c     0.827184    0.770581    0.043628    0.000000
    17  Ge    c     0.354821    0.379519    0.986110    0.000000
    18  Ge    c     0.171156    0.308387    0.974771    0.000000
    19  Ge    c     0.646526    0.684559    0.053531    0.000000
    20  Ge    c     0.853061    0.369536    0.052285    0.000000
    21  Si    c     0.668639    0.289907    0.742309    0.000000
    22  Si    c     0.349678    0.365886    0.293832    0.000000
    23  Si    c     0.151087    0.701951    0.989701    0.000000
    24  Si    c     0.329536    0.771075    0.992251    0.000000
    25  O1    c     0.127157    0.144719    0.391099    0.000000
    26  O1    c     0.380996    0.895347    0.397984    0.000000
    27  O1    c     0.912977    0.248950    0.650225    0.000000
    28  O1    c     0.575634    0.797477    0.649185    0.000000
    29  O1    c     0.867287    0.909734    0.631985    0.000000
    30  O3    c     0.624142    0.141913    0.665482    0.000000
    31  O1    c     0.085153    0.797747    0.390811    0.000000
    32  O3    c     0.405113    0.256359    0.385078    0.000000
    33  O1    c     0.973371    0.043548    0.457457    0.000000
    34  O1    c     0.524997    0.039861    0.467887    0.000000
    35  O1    c     0.028678    0.017672    0.208106    0.000000
    36  O1    c     0.473654    0.039890    0.211772    0.000000
    37  O1    c     0.023715    0.995031    0.703149    0.000000
    38  O1    c     0.466578    0.044336    0.711371    0.000000
    39  O1    c     0.622545    0.140784    0.142225    0.000000
    40  O1    c     0.878198    0.913642    0.134693    0.000000
    41  O1    c     0.418521    0.266335    0.901487    0.000000
    42  O3    c     0.099178    0.818910    0.900793    0.000000
    43  O3    c     0.362293    0.924431    0.904451    0.000000
    44  O1    c     0.125129    0.172842    0.869932    0.000000
    45  O1    c     0.585038    0.795410    0.146501    0.000000
    46  O1    c     0.920308    0.259570    0.136733    0.000000
    47  O1    c     0.519311    0.000974    0.958090    0.000000
    48  O1    c     0.980065    0.047428    0.951057    0.000000
    49  O1    c     0.154394    0.486601    0.350026    0.000000
    50  O3    c     0.339188    0.552172    0.350161    0.000000
    51  O1    c     0.840081    0.561111    0.667462    0.000000
    52  O3    c     0.649671    0.475689    0.682799    0.000000
    53  O3    c     0.268920    0.263090    0.284007    0.000000
    54  O1    c     0.234469    0.802133    0.309115    0.000000
    55  O3    c     0.758525    0.259070    0.733916    0.000000
    56  O1    c     0.726579    0.786008    0.730340    0.000000
    57  O1    c     0.139573    0.270604    0.130661    0.000000
    58  O3    c     0.361133    0.787704    0.139581    0.000000
    59  O1    c     0.878277    0.384413    0.890779    0.000000
    60  O1    c     0.610167    0.671685    0.897069    0.000000
    61  O1    c     0.857972    0.778910    0.884615    0.000000
    62  O3    c     0.642787    0.285252    0.892145    0.000000
    63  O3    c     0.119143    0.689225    0.135409    0.000000
    64  O3    c     0.382814    0.382025    0.148372    0.000000
    65  O1    c     0.660942    0.485769    0.114257    0.000000
    66  O1    c     0.841556    0.569095    0.108991    0.000000
    67  O3    c     0.353100    0.590849    0.934077    0.000000
    68  O3    c     0.151956    0.516245    0.928248    0.000000
    69  O1    c     0.769221    0.248755    0.059589    0.000000
    70  O1    c     0.731285    0.801541    0.044546    0.000000
    71  O1    c     0.267154    0.282924    0.966505    0.000000
    72  O2    c     0.237814    0.778037    0.000605    0.000000
    73  O1    s     0.125174    0.145349    0.381914    0.000000
    74  O1    s     0.381752    0.897001    0.388445    0.000000
    75  O1    s     0.910229    0.242360    0.654126    0.000000
    76  O1    s     0.578407    0.804279    0.654407    0.000000
    77  O1    s     0.869771    0.908977    0.638302    0.000000
    78  O3    s     0.622478    0.145683    0.670349    0.000000
    79  O1    s     0.087395    0.804851    0.382608    0.000000
    80  O3    s     0.402987    0.251768    0.375322    0.000000
    81  O1    s     0.977500    0.040446    0.462075    0.000000
    82  O1    s     0.520527    0.038803    0.472052    0.000000
    83  O1    s     0.024160    0.019710    0.211855    0.000000
    84  O1    s     0.477747    0.037629    0.216011    0.000000
    85  O1    s     0.020377    0.000078    0.708374    0.000000
    86  O1    s     0.470634    0.042460    0.717258    0.000000
    87  O1    s     0.621332    0.141650    0.133405    0.000000
    88  O1    s     0.879653    0.912932    0.125942    0.000000
    89  O1    s     0.415170    0.259907    0.905874    0.000000
    90  O3    s     0.101285    0.822147    0.906782    0.000000
    91  O3    s     0.365021    0.919288    0.910757    0.000000
    92  O1    s     0.123622    0.171047    0.877376    0.000000
    93  O1    s     0.586924    0.801669    0.137688    0.000000
    94  O1    s     0.917572    0.253437    0.128605    0.000000
    95  O1    s     0.515475    0.004816    0.962998    0.000000
    96  O1    s     0.984076    0.045369    0.955617    0.000000
    97  O1    s     0.155200    0.488317    0.341457    0.000000
    98  O3    s     0.339458    0.549661    0.340738    0.000000
    99  O1    s     0.839398    0.560435    0.676839    0.000000
   100  O3    s     0.650624    0.474135    0.692482    0.000000
   101  O3    s     0.268796    0.274524    0.285344    0.000000
   102  O1    s     0.235456    0.791090    0.307509    0.000000
   103  O3    s     0.756814    0.269725    0.734668    0.000000
   104  O1    s     0.727439    0.776136    0.730828    0.000000
   105  O1    s     0.144194    0.274599    0.130629    0.000000
   106  O3    s     0.355771    0.784300    0.137702    0.000000
   107  O1    s     0.874063    0.381536    0.890624    0.000000
   108  O1    s     0.615058    0.673407    0.896391    0.000000
   109  O1    s     0.853172    0.776895    0.884667    0.000000
   110  O3    s     0.647643    0.285631    0.890230    0.000000
   111  O3    s     0.124423    0.690639    0.133653    0.000000
   112  O3    s     0.377504    0.380287    0.149447    0.000000
   113  O1    s     0.660760    0.487015    0.105177    0.000000
   114  O1    s     0.841442    0.567652    0.099957    0.000000
   115  O3    s     0.351043    0.591618    0.943490    0.000000
   116  O3    s     0.153348    0.518489    0.937881    0.000000
   117  O1    s     0.767856    0.260033    0.058563    0.000000
   118  O1    s     0.732459    0.790928    0.045098    0.000000
   119  O1    s     0.266504    0.292377    0.968654    0.000000
   120  O2    s     0.238490    0.769661    0.998676    0.000000
--------------------------------------------------------------------------------

  Final Cartesian lattice vectors (Angstroms) :

       17.578529   -0.260090   -0.095376
       -0.116721    7.855784    0.048075
       -0.062706    0.075073   10.257304


  Final cell parameters and derivatives :

--------------------------------------------------------------------------------
       a           17.580711 Angstrom     dE/de1(xx)     0.003014 eV/strain
       b            7.856798 Angstrom     dE/de2(yy)     0.001208 eV/strain
       c           10.257771 Angstrom     dE/de3(zz)     0.001306 eV/strain
       alpha       89.224925 Degrees      dE/de4(yz)    -0.000672 eV/strain
       beta        90.667243 Degrees      dE/de5(xz)    -0.000045 eV/strain
       gamma       91.700762 Degrees      dE/de6(xy)    -0.000276 eV/strain
--------------------------------------------------------------------------------

  Primitive cell volume =          1416.042939 Angs**3

  Density of cell =      2.735347 g/cm**3

  Non-primitive cell volume =          1416.042939 Angs**3


  Final internal derivatives :

--------------------------------------------------------------------------------
   No.  Atomic          a             b             c           Radius
        Label          (eV)          (eV)          (eV)        (eV/Angs)
--------------------------------------------------------------------------------
      1 Ge    c       0.000000      0.000000      0.000000      0.000000
      2 Ge    c      -0.000214      0.000070     -0.000194      0.000000
      3 Ge    c       0.000316      0.000045      0.000101      0.000000
      4 Ge    c       0.000155     -0.000102     -0.000043      0.000000
      5 Ge    c       0.000104     -0.000021     -0.000075      0.000000
      6 Ge    c      -0.000852      0.000320      0.000221      0.000000
      7 Ge    c      -0.000020      0.000169     -0.000009      0.000000
      8 Ge    c      -0.002026      0.001490     -0.002487      0.000000
      9 Ge    c      -0.000625     -0.000162     -0.000192      0.000000
     10 Ge    c       0.000734      0.000015      0.000398      0.000000
     11 Ge    c      -0.000245      0.000021     -0.000238      0.000000
     12 Ge    c      -0.000083     -0.000099      0.000058      0.000000
     13 Ge    c       0.000311     -0.000081     -0.000068      0.000000
     14 Ge    c       0.000345     -0.000428      0.000065      0.000000
     15 Ge    c      -0.000329      0.000173     -0.000058      0.000000
     16 Ge    c       0.000089      0.000179      0.000049      0.000000
     17 Ge    c       0.000579     -0.000096      0.000081      0.000000
     18 Ge    c      -0.000517      0.000473      0.000509      0.000000
     19 Ge    c      -0.000288     -0.000012     -0.000065      0.000000
     20 Ge    c       0.000053      0.000014      0.000021      0.000000
     21 Si    c      -0.000308     -0.000055      0.000012      0.000000
     22 Si    c       0.000376      0.000002     -0.000047      0.000000
     23 Si    c       0.002944     -0.003196      0.001174      0.000000
     24 Si    c       0.000040     -0.000157      0.000305      0.000000
     25 O1    c       0.000985      0.000498      0.000146      0.000000
     26 O1    c      -0.000562     -0.000206     -0.000259      0.000000
     27 O1    c       0.000238     -0.000166     -0.000139      0.000000
     28 O1    c      -0.000157      0.000220     -0.000017      0.000000
     29 O1    c      -0.000133     -0.000135      0.000026      0.000000
     30 O3    c       0.000392      0.000278      0.000206      0.000000
     31 O1    c      -0.000633     -0.000083      0.000703      0.000000
     32 O3    c      -0.000071      0.000013     -0.000025      0.000000
     33 O1    c      -0.000739      0.000089      0.000515      0.000000
     34 O1    c       0.000395     -0.000007      0.000348      0.000000
     35 O1    c       0.001530     -0.000008      0.000547      0.000000
     36 O1    c      -0.000230     -0.000002      0.000057      0.000000
     37 O1    c       0.001704     -0.000112      0.001585      0.000000
     38 O1    c      -0.000277      0.000040      0.000311      0.000000
     39 O1    c      -0.000356     -0.000124      0.000005      0.000000
     40 O1    c      -0.000329     -0.000171     -0.000214      0.000000
     41 O1    c      -0.000457      0.000070      0.000189      0.000000
     42 O3    c      -0.000258     -0.000658     -0.003357      0.000000
     43 O3    c      -0.000146     -0.000107      0.000186      0.000000
     44 O1    c       0.002815      0.001506     -0.000137      0.000000
     45 O1    c       0.000047      0.000133     -0.000141      0.000000
     46 O1    c       0.000254     -0.000259      0.000002      0.000000
     47 O1    c       0.000220     -0.000034      0.000273      0.000000
     48 O1    c      -0.007276      0.000687      0.002633      0.000000
     49 O1    c      -0.000392      0.000241      0.000208      0.000000
     50 O3    c       0.000081      0.000181     -0.000097      0.000000
     51 O1    c      -0.000075      0.000146      0.000101      0.000000
     52 O3    c      -0.000064      0.000181      0.000118      0.000000
     53 O3    c       0.000412     -0.000275     -0.000063      0.000000
     54 O1    c       0.000337      0.000689      0.000071      0.000000
     55 O3    c       0.000162     -0.000041      0.000003      0.000000
     56 O1    c      -0.000300      0.000005      0.000015      0.000000
     57 O1    c       0.000248     -0.000281     -0.000249      0.000000
     58 O3    c       0.000724      0.000059     -0.000783      0.000000
     59 O1    c       0.000256     -0.000106      0.000406      0.000000
     60 O1    c       0.000173      0.000013     -0.000014      0.000000
     61 O1    c      -0.000232      0.000108     -0.000019      0.000000
     62 O3    c       0.000163      0.000012     -0.000056      0.000000
     63 O3    c      -0.003814      0.000861      0.001662      0.000000
     64 O3    c      -0.000022      0.000069     -0.000248      0.000000
     65 O1    c       0.000067     -0.000272     -0.000195      0.000000
     66 O1    c       0.000033     -0.000263      0.000009      0.000000
     67 O3    c      -0.000402      0.000327      0.000234      0.000000
     68 O3    c       0.000719      0.001078      0.000660      0.000000
     69 O1    c       0.000139     -0.000153     -0.000044      0.000000
     70 O1    c      -0.000103      0.000105     -0.000020      0.000000
     71 O1    c      -0.000173     -0.000158     -0.000092      0.000000
     72 O2    c       0.004026      0.000809      0.000869      0.000000
     73 O1    s      -0.000105     -0.000252      0.000102      0.000000
     74 O1    s       0.000405      0.000052      0.000185      0.000000
     75 O1    s      -0.000178      0.000190      0.000117      0.000000
     76 O1    s       0.000147     -0.000124      0.000026      0.000000
     77 O1    s      -0.000310      0.000007     -0.000040      0.000000
     78 O3    s      -0.000167     -0.000116     -0.000056      0.000000
     79 O1    s       0.000009     -0.000039     -0.000059      0.000000
     80 O3    s       0.000180     -0.000023      0.000047      0.000000
     81 O1    s      -0.000064     -0.000014     -0.000495      0.000000
     82 O1    s      -0.000198     -0.000029     -0.000184      0.000000
     83 O1    s      -0.001246     -0.000173     -0.000372      0.000000
     84 O1    s       0.000408     -0.000026     -0.000047      0.000000
     85 O1    s      -0.001579      0.000190     -0.001727      0.000000
     86 O1    s       0.000163     -0.000041     -0.000184      0.000000
     87 O1    s       0.000221      0.000051     -0.000038      0.000000
     88 O1    s       0.000164     -0.000024      0.000039      0.000000
     89 O1    s       0.000470     -0.000060     -0.000144      0.000000
     90 O3    s      -0.000635     -0.000231     -0.000690      0.000000
     91 O3    s       0.000014     -0.000070     -0.000246      0.000000
     92 O1    s       0.000901      0.000119     -0.000780      0.000000
     93 O1    s      -0.000090     -0.000039      0.000076      0.000000
     94 O1    s      -0.000211      0.000230     -0.000017      0.000000
     95 O1    s      -0.000029      0.000021     -0.000117      0.000000
     96 O1    s       0.000306     -0.000330     -0.001067      0.000000
     97 O1    s       0.000706     -0.000399     -0.000099      0.000000
     98 O3    s      -0.000135     -0.000020      0.000183      0.000000
     99 O1    s      -0.000044     -0.000029      0.000060      0.000000
    100 O3    s       0.000082     -0.000075     -0.000006      0.000000
    101 O3    s      -0.000236      0.000260      0.000013      0.000000
    102 O1    s       0.000746     -0.000632     -0.000038      0.000000
    103 O3    s      -0.000306      0.000050     -0.000028      0.000000
    104 O1    s       0.000103     -0.000048     -0.000021      0.000000
    105 O1    s      -0.000119      0.000747      0.000322      0.000000
    106 O3    s      -0.000201     -0.000066      0.000515      0.000000
    107 O1    s       0.000101      0.000196     -0.000107      0.000000
    108 O1    s      -0.000006     -0.000012     -0.000035      0.000000
    109 O1    s       0.000301     -0.000188      0.000157      0.000000
    110 O3    s      -0.000061     -0.000015      0.000001      0.000000
    111 O3    s      -0.002973     -0.000882      0.000984      0.000000
    112 O3    s       0.000181     -0.000107      0.000156      0.000000
    113 O1    s      -0.000022      0.000144      0.000098      0.000000
    114 O1    s       0.000111      0.000178     -0.000196      0.000000
    115 O3    s       0.000441      0.000034     -0.000202      0.000000
    116 O3    s       0.000319     -0.001620     -0.000147      0.000000
    117 O1    s      -0.000142      0.000157      0.000099      0.000000
    118 O1    s       0.000177     -0.000112      0.000025      0.000000
    119 O1    s       0.000175      0.000038      0.000000      0.000000
    120 O2    s       0.002945     -0.000188     -0.001376      0.000000
--------------------------------------------------------------------------------
  Maximum abs         0.007276      0.003196      0.003357      0.000000
--------------------------------------------------------------------------------


  Born effective charge tensors : 

-------------------------------------------------------------------------------
  Atom             x           y             z
-------------------------------------------------------------------------------
    1 Ge    x       4.1560     -0.2686      0.0252
            y       0.1022      3.9363     -0.0026
            z      -0.8613      0.1923      4.1888
-------------------------------------------------------------------------------
    2 Ge    x       4.0742     -0.1492     -0.0252
            y       0.0766      3.9344      0.0095
            z       0.8632     -0.0774      4.2615
-------------------------------------------------------------------------------
    3 Ge    x       4.2811     -0.2637     -0.4454
            y       0.1409      3.9192      0.1132
            z      -0.2383      0.0063      4.4286
-------------------------------------------------------------------------------
    4 Ge    x       4.0993     -0.3313      0.4466
            y       0.1123      3.9679     -0.0272
            z       0.1633     -0.1100      4.4952
-------------------------------------------------------------------------------
    5 Ge    x       4.3464     -0.1957      0.0465
            y       0.0665      3.9603      0.0257
            z      -0.6441      0.1804      3.6267
-------------------------------------------------------------------------------
    6 Ge    x       4.3412     -0.2117     -0.0468
            y       0.1096      3.9344      0.0299
            z       0.6400     -0.1138      3.6607
-------------------------------------------------------------------------------
    7 Ge    x       4.1599     -0.3141     -0.4505
            y       0.1609      4.0071      0.0264
            z      -0.3651      0.0559      3.9807
-------------------------------------------------------------------------------
    8 Ge    x       4.3183     -0.1053      0.3736
            y       0.1109      3.9579     -0.0845
            z       0.3678      0.0573      3.9584
-------------------------------------------------------------------------------
    9 Ge    x       3.8575      0.2939     -0.3193
            y       0.2962      4.1666     -0.1092
            z      -0.0360     -0.1479      3.5823
-------------------------------------------------------------------------------
   10 Ge    x       3.9297      0.2302      0.3088
            y       0.3149      4.1140      0.1914
            z       0.0438      0.2245      3.4995
-------------------------------------------------------------------------------
   11 Ge    x       3.9767     -0.1287     -0.2087
            y      -0.5025      4.1314      0.0840
            z      -0.1053      0.2085      3.6024
-------------------------------------------------------------------------------
   12 Ge    x       3.9403     -0.1012      0.1457
            y      -0.4622      4.1836     -0.1609
            z       0.0405     -0.2764      3.5622
-------------------------------------------------------------------------------
   13 Ge    x       4.0023      0.2645     -0.2876
            y       0.2416      4.1953     -0.0563
            z      -0.0238     -0.1621      3.5985
-------------------------------------------------------------------------------
   14 Ge    x       3.8784     -0.0969     -0.3010
            y      -0.4319      4.1998      0.1227
            z      -0.1344      0.1627      3.5294
-------------------------------------------------------------------------------
   15 Ge    x       4.0874      0.2356     -0.3498
            y       0.2773      4.1411     -0.0880
            z      -0.0720     -0.1756      3.4043
-------------------------------------------------------------------------------
   16 Ge    x       4.1117      0.2651      0.3393
            y       0.2886      4.1560      0.0766
            z       0.0414      0.1603      3.4553
-------------------------------------------------------------------------------
   17 Ge    x       3.9544     -0.1308     -0.2640
            y      -0.4205      4.1961      0.1803
            z      -0.1395      0.2699      3.3799
-------------------------------------------------------------------------------
   18 Ge    x       3.9937      0.2563      0.2938
            y       0.2586      4.1604      0.1877
            z       0.0492      0.2014      3.4942
-------------------------------------------------------------------------------
   19 Ge    x       4.0081     -0.1068     -0.3045
            y      -0.4406      4.2049      0.1054
            z      -0.0787      0.1782      3.4323
-------------------------------------------------------------------------------
   20 Ge    x       4.0389     -0.0962      0.2852
            y      -0.4541      4.1879     -0.0605
            z       0.1211     -0.1553      3.4366
-------------------------------------------------------------------------------
   21 Si    x       3.7370      0.2489      0.2000
            y       0.2077      3.9542      0.0625
            z      -0.0079      0.2378      3.3232
-------------------------------------------------------------------------------
   22 Si    x       3.5849     -0.1005      0.2581
            y      -0.4083      3.9322     -0.1333
            z       0.0456     -0.2051      3.3032
-------------------------------------------------------------------------------
   23 Si    x       3.4743     -0.2604      0.3349
            y      -0.4412      3.8420     -0.0856
            z       0.1020     -0.1818      3.2604
-------------------------------------------------------------------------------
   24 Si    x       3.3421      0.3263     -0.3204
            y       0.1638      3.9268     -0.0901
            z      -0.0096     -0.1920      3.2262
-------------------------------------------------------------------------------
   25 O1    x      -2.1502     -0.8803      0.3301
            y      -0.9456     -2.3056      0.4114
            z       0.3853      0.3828     -1.6396
-------------------------------------------------------------------------------
   26 O1    x      -2.0616     -0.9031     -0.3282
            y      -0.9583     -2.3992     -0.3687
            z      -0.4122     -0.3911     -1.6742
-------------------------------------------------------------------------------
   27 O1    x      -2.0252      0.8882      0.5331
            y       0.8415     -2.5484     -0.5639
            z       0.4885     -0.5553     -1.6498
-------------------------------------------------------------------------------
   28 O1    x      -1.9171      0.8544     -0.4872
            y       0.7934     -2.6747      0.4994
            z      -0.4408      0.5148     -1.6300
-------------------------------------------------------------------------------
   29 O1    x      -2.1925     -0.8931      0.5039
            y      -0.9464     -2.3143      0.4987
            z       0.4608      0.5238     -1.6612
-------------------------------------------------------------------------------
   30 O3    x      -2.0404     -0.8788     -0.5191
            y      -0.9144     -2.2807     -0.5450
            z      -0.4872     -0.5770     -1.5732
-------------------------------------------------------------------------------
   31 O1    x      -1.9543      0.8699      0.3860
            y       0.8226     -2.5033     -0.3274
            z       0.4628     -0.3615     -1.6370
-------------------------------------------------------------------------------
   32 O3    x      -1.8676      0.8519     -0.4093
            y       0.8278     -2.3191      0.3954
            z      -0.4647      0.4341     -1.5572
-------------------------------------------------------------------------------
   33 O1    x      -2.1422      0.2456      0.9272
            y       0.1010     -1.2759     -0.1279
            z       1.1796     -0.2364     -3.0345
-------------------------------------------------------------------------------
   34 O1    x      -2.0789      0.2093     -0.9638
            y       0.0656     -1.2955      0.1449
            z      -1.1694      0.2901     -3.1693
-------------------------------------------------------------------------------
   35 O1    x      -2.1262      0.2216     -0.8207
            y       0.0976     -1.3546      0.1600
            z      -0.7699      0.1978     -2.5918
-------------------------------------------------------------------------------
   36 O1    x      -2.1445      0.2467      0.8509
            y       0.1367     -1.3739     -0.2200
            z       0.8140     -0.2809     -2.5765
-------------------------------------------------------------------------------
   37 O1    x      -2.1879      0.1975     -0.8308
            y       0.1132     -1.3145      0.0937
            z      -0.8859      0.0967     -2.7382
-------------------------------------------------------------------------------
   38 O1    x      -2.1409      0.2269      0.8024
            y       0.0737     -1.3067     -0.1295
            z       0.8315     -0.1975     -2.7516
-------------------------------------------------------------------------------
   39 O1    x      -2.2592     -0.9358      0.3116
            y      -0.9717     -2.3003      0.3269
            z       0.3814      0.3602     -1.4979
-------------------------------------------------------------------------------
   40 O1    x      -2.2733     -0.9219     -0.3107
            y      -0.9623     -2.2962     -0.3363
            z      -0.3628     -0.3476     -1.4821
-------------------------------------------------------------------------------
   41 O1    x      -1.9574      0.8491      0.5410
            y       0.7462     -2.6928     -0.5759
            z       0.4771     -0.5669     -1.5637
-------------------------------------------------------------------------------
   42 O3    x      -1.9432      0.8878     -0.6085
            y       0.8309     -2.3709      0.6439
            z      -0.5138      0.6004     -1.5568
-------------------------------------------------------------------------------
   43 O3    x      -1.9576     -0.8233      0.5297
            y      -0.8329     -2.3042      0.6173
            z       0.4499      0.5933     -1.5375
-------------------------------------------------------------------------------
   44 O1    x      -2.0890     -0.9003     -0.5072
            y      -0.9409     -2.4591     -0.5451
            z      -0.4451     -0.5205     -1.6206
-------------------------------------------------------------------------------
   45 O1    x      -2.0349      0.8623      0.3566
            y       0.8288     -2.5060     -0.2786
            z       0.3937     -0.3098     -1.4834
-------------------------------------------------------------------------------
   46 O1    x      -2.0989      0.8835     -0.3391
            y       0.8198     -2.4941      0.2211
            z      -0.3990      0.2806     -1.4375
-------------------------------------------------------------------------------
   47 O1    x      -2.1964      0.2376     -0.6889
            y       0.1215     -1.3815      0.1641
            z      -0.4674      0.1404     -2.2348
-------------------------------------------------------------------------------
   48 O1    x      -2.2114      0.2053      0.7449
            y       0.1246     -1.3639     -0.1528
            z       0.5015     -0.1348     -2.2837
-------------------------------------------------------------------------------
   49 O1    x      -1.3422      0.1827      0.1044
            y       0.2760     -3.1758     -0.0309
            z       0.0497      0.0126     -1.3772
-------------------------------------------------------------------------------
   50 O3    x      -1.2471      0.1777     -0.0523
            y       0.2423     -3.0207     -0.1201
            z      -0.0002     -0.1121     -1.3020
-------------------------------------------------------------------------------
   51 O1    x      -1.3597      0.1501      0.0891
            y       0.2712     -3.1339      0.0315
            z       0.0429      0.0317     -1.4070
-------------------------------------------------------------------------------
   52 O3    x      -1.3023      0.2130     -0.0840
            y       0.3270     -2.9841      0.0952
            z      -0.0538      0.1039     -1.3110
-------------------------------------------------------------------------------
   53 O3    x      -2.8052     -0.3307     -0.0267
            y      -0.2664     -1.5158      0.0036
            z      -0.0313      0.0296     -1.1467
-------------------------------------------------------------------------------
   54 O1    x      -2.9933     -0.2158      0.0102
            y      -0.1090     -1.5729     -0.0453
            z       0.0327     -0.0717     -1.2394
-------------------------------------------------------------------------------
   55 O3    x      -2.9723     -0.1706      0.0673
            y      -0.0942     -1.4312     -0.0116
            z       0.0738     -0.0498     -1.1588
-------------------------------------------------------------------------------
   56 O1    x      -3.0768     -0.2812      0.0708
            y      -0.2083     -1.5750      0.0283
            z       0.0487      0.0614     -1.2161
-------------------------------------------------------------------------------
   57 O1    x      -1.5012     -0.1335     -0.0488
            y      -0.1525     -1.4552      0.0815
            z      -0.0289      0.0693     -2.6773
-------------------------------------------------------------------------------
   58 O3    x      -1.4197     -0.1248     -0.1209
            y      -0.1305     -1.3544     -0.0200
            z      -0.0707      0.0029     -2.5330
-------------------------------------------------------------------------------
   59 O1    x      -1.4760      0.0127     -0.1156
            y       0.0850     -1.4251     -0.0379
            z      -0.0839     -0.0443     -2.7526
-------------------------------------------------------------------------------
   60 O1    x      -1.4738      0.0351      0.0270
            y       0.1014     -1.4386     -0.0540
            z       0.0067     -0.0351     -2.6960
-------------------------------------------------------------------------------
   61 O1    x      -1.5032     -0.1111     -0.0608
            y      -0.1173     -1.4292     -0.0538
            z      -0.0559     -0.0565     -2.7048
-------------------------------------------------------------------------------
   62 O3    x      -1.3850     -0.0838      0.0820
            y      -0.0848     -1.3505      0.0255
            z       0.0739      0.0093     -2.6025
-------------------------------------------------------------------------------
   63 O3    x      -1.4190      0.0313      0.1403
            y       0.0857     -1.3350      0.0347
            z       0.1050      0.0351     -2.5648
-------------------------------------------------------------------------------
   64 O3    x      -1.3641      0.0361      0.1592
            y       0.0964     -1.3727      0.0891
            z       0.1380      0.0694     -2.5445
-------------------------------------------------------------------------------
   65 O1    x      -1.3919      0.2232      0.0811
            y       0.3076     -3.1217     -0.0071
            z       0.0269     -0.0250     -1.3701
-------------------------------------------------------------------------------
   66 O1    x      -1.3992      0.1950     -0.0924
            y       0.2874     -3.1277      0.0101
            z      -0.0383     -0.0068     -1.3475
-------------------------------------------------------------------------------
   67 O3    x      -1.3409      0.2302      0.1443
            y       0.3181     -2.9744     -0.1139
            z       0.0903     -0.1051     -1.2593
-------------------------------------------------------------------------------
   68 O3    x      -1.2983      0.0966     -0.0996
            y       0.1861     -3.0371     -0.2037
            z      -0.0429     -0.1711     -1.2486
-------------------------------------------------------------------------------
   69 O1    x      -3.0544     -0.2741     -0.0034
            y      -0.1738     -1.5860      0.0219
            z      -0.0409      0.0538     -1.2009
-------------------------------------------------------------------------------
   70 O1    x      -3.0733     -0.2881      0.0577
            y      -0.1976     -1.5963      0.0025
            z       0.0613     -0.0294     -1.1859
-------------------------------------------------------------------------------
   71 O1    x      -3.0749     -0.2477     -0.0594
            y      -0.1607     -1.5646     -0.0626
            z      -0.0485     -0.0808     -1.2013
-------------------------------------------------------------------------------
   72 O2    x      -2.3690     -0.1830     -0.0079
            y      -0.1290     -1.2965      0.0141
            z      -0.0246      0.0353     -1.0602
-------------------------------------------------------------------------------




  Elastic Constant Matrix: (Units=GPa)

-------------------------------------------------------------------------------
  Indices      1         2         3         4         5         6    
-------------------------------------------------------------------------------
       1     25.7473   10.1024    7.9405    0.4204   -0.1388   -7.6079
       2     10.1024   31.8364    5.2808   -0.9840    0.5934   -8.2642
       3      7.9405    5.2808   12.8608   -0.2177   -0.2892   -2.1794
       4      0.4204   -0.9840   -0.2177    8.0195   -2.4882   -0.4626
       5     -0.1388    0.5934   -0.2892   -2.4882   14.9198    0.2618
       6     -7.6079   -8.2642   -2.1794   -0.4626    0.2618   20.1401
-------------------------------------------------------------------------------


  Elastic Compliance Matrix: (Units=1/GPa)

-------------------------------------------------------------------------------
  Indices      1         2         3         4         5         6    
-------------------------------------------------------------------------------
       1    0.055362 -0.009421 -0.028039 -0.004202 -0.000599  0.013925
       2   -0.009421  0.038971 -0.008138  0.005387 -0.001102  0.011690
       3   -0.028039 -0.008138  0.097977  0.003764  0.002647 -0.003277
       4   -0.004202  0.005387  0.003764  0.132687  0.021881  0.003793
       5   -0.000599 -0.001102  0.002647  0.021881  0.070778 -0.000809
       6    0.013925  0.011690 -0.003277  0.003793 -0.000809  0.059452
-------------------------------------------------------------------------------

  Mechanical properties :

-------------------------------------------------------------------------------
  Convention :                    Reuss         Voigt         Hill
-------------------------------------------------------------------------------
  Bulk  Modulus (GPa)     =       9.88968      13.01021      11.44995
  Shear Modulus (GPa)     =       8.61878      11.75727      10.18803
-------------------------------------------------------------------------------
  Velocity S-wave (km/s)  =       1.77508       2.07323       1.92992
  Velocity P-wave (km/s)  =       2.79584       3.23842       3.02523
-------------------------------------------------------------------------------
  Compressibility (1/GPa) =    0.10111554
-------------------------------------------------------------------------------
  Stress axis :                     x             y             z
-------------------------------------------------------------------------------
  Youngs Moduli (GPa)     =      18.06277      25.65980      10.20650
-------------------------------------------------------------------------------
  Poissons Ratio (x)      =                     0.24174       0.28618
  Poissons Ratio (y)      =       0.17017                     0.08306
  Poissons Ratio (z)      =       0.50645       0.20882
-------------------------------------------------------------------------------


  Piezoelectric Strain Matrix: (Units=C/m**2)

-------------------------------------------------------------------------------
  Indices      1         2         3         4         5         6    
-------------------------------------------------------------------------------
       x     0.07356  -0.34094  -0.10508   0.08113   0.50687  -0.05237
       y    -0.05002   0.22465   0.24450   0.88916  -0.24238  -0.01704
       z     0.35047  -0.44597  -1.14562   0.17329   0.15206  -0.10410
-------------------------------------------------------------------------------


  Piezoelectric Stress Matrix: (Units=10**-11 C/N)

-------------------------------------------------------------------------------
  Indices      1         2         3         4         5         6    
-------------------------------------------------------------------------------
       x     0.88573  -1.38587  -0.77644   1.91155   3.77461  -0.58329
       y    -1.55695   1.20942   2.62902  11.49522   0.27445   0.36844
       z     5.34573  -1.18098 -11.70454   1.77382   1.18873  -0.22338
-------------------------------------------------------------------------------


  Static dielectric constant tensor : 

-------------------------------------------------------------------------------
              x         y         z
-------------------------------------------------------------------------------
       x     5.23852  -0.01196   0.00053
       y    -0.01196   6.32558   0.08268
       z     0.00053   0.08268   4.27193
--------------------------------------------------------------------------------

  High frequency dielectric constant tensor : 

-------------------------------------------------------------------------------
              x         y         z
-------------------------------------------------------------------------------
       x     1.54632  -0.00273  -0.00007
       y    -0.00273   1.55543   0.00041
       z    -0.00007   0.00041   1.50609
-------------------------------------------------------------------------------

  Static refractive indices : 

-------------------------------------------------------------------------------
    1 =    2.06606      2 =    2.28875      3 =    2.51576
-------------------------------------------------------------------------------

  High frequency refractive indices : 

-------------------------------------------------------------------------------
    1 =    1.22723      2 =    1.24321      3 =    1.24747
-------------------------------------------------------------------------------


  Time to end of optimisation =      19.2495 seconds


  Peak dynamic memory used =       5.01 MB 


  Timing analysis for GULP :

--------------------------------------------------------------------------------
  Task / Subroutine                                          Time (Seconds)
--------------------------------------------------------------------------------
  Calculation of reciprocal space energy and derivatives          1.2247
  Calculation of real space energy and derivatives               12.7564
  Calculation of three-body energy and derivatives                0.1677
  Calculation and manipulation of Hessian matrix                  5.4516
  Calculation of matrix inversion                                 0.0763
  Global summation overhead                                       0.0003
--------------------------------------------------------------------------------
  Total CPU time                                                 19.2495
--------------------------------------------------------------------------------


  Dump file written as c00094.vasp.grs
  CIF file written as c00094.vasp.cif


  Job Finished at 12:03.57 31st October    2025                               

