********************************************************************************
*                       GENERAL UTILITY LATTICE PROGRAM                        *
*                                 Julian Gale                                  *
*                       Curtin Institute for Computation                       *
*                    School of Molecular and Life Sciences                     *
*                    Curtin University, Western Australia                      *
********************************************************************************
* Version = 6.1.2 * Last modified =   3rd November 2022                        *
********************************************************************************
*  optimise     - perform optimisation run                                     *
*  conp         - constant pressure calculation                                *
*  property     - calculate properties for final geometry                      *
********************************************************************************

  Job Started  at 12:13.10 31st October    2025                               

  Number of CPUs =     1


  Total number of configurations input =      1

********************************************************************************
*  Input for Configuration =   1 : c00135.vasp                                 *
********************************************************************************

  Formula = Ge20Si4O48                                                  

  Number of irreducible atoms/shells =     120


  Total number atoms/shells =     120

  Dimensionality = 3               :  Bulk   



  Cartesian lattice vectors (Angstroms) :

       17.182800    0.000000    0.000000
        0.000000    7.513760    0.000000
        0.000000    0.000000   10.447700

  Cell parameters (Angstroms/Degrees):

  a =      17.1828    alpha =  90.0000
  b =       7.5138    beta  =  90.0000
  c =      10.4477    gamma =  90.0000

  Initial cell volume =        1348.875752 Angs**3

  Temperature of configuration =   0.00     K 

  Pressure of configuration =         0.000 GPa 

  Fractional coordinates of asymmetric unit :

--------------------------------------------------------------------------------
   No.  Atomic       x           y          z         Charge      Occupancy
        Label      (Frac)      (Frac)     (Frac)        (e)         (Frac)  
--------------------------------------------------------------------------------
      1 Ge    c    0.052090    0.000000    0.372270     4.00000    1.000000    
      2 Ge    c    0.447910 *  0.000000 *  0.372270 *   4.00000    1.000000    
      3 Ge    c    0.947910 *  0.000000 *  0.627730 *   4.00000    1.000000    
      4 Ge    c    0.552090 *  0.000000 *  0.627730 *   4.00000    1.000000    
      5 Ge    c    0.556730 *  0.000000 *  0.122130 *   4.00000    1.000000    
      6 Ge    c    0.943270 *  0.000000 *  0.122130 *   4.00000    1.000000    
      7 Ge    c    0.443270 *  0.000000 *  0.877870 *   4.00000    1.000000    
      8 Ge    c    0.056730 *  0.000000 *  0.877870 *   4.00000    1.000000    
      9 Ge    c    0.160190 *  0.293910 *  0.273440 *   4.00000    1.000000    
     10 Ge    c    0.339810 *  0.706090 *  0.273440 *   4.00000    1.000000    
     11 Ge    c    0.839810 *  0.293910 *  0.726560 *   4.00000    1.000000    
     12 Ge    c    0.839810 *  0.706090 *  0.726560 *   4.00000    1.000000    
     13 Ge    c    0.660190 *  0.293910 *  0.726560 *   4.00000    1.000000    
     14 Ge    c    0.160190 *  0.706090 *  0.273440 *   4.00000    1.000000    
     15 Ge    c    0.660660 *  0.294090 *  0.017440 *   4.00000    1.000000    
     16 Ge    c    0.839340 *  0.705910 *  0.017440 *   4.00000    1.000000    
     17 Ge    c    0.339340 *  0.294090 *  0.982560 *   4.00000    1.000000    
     18 Ge    c    0.339340 *  0.705910 *  0.982560 *   4.00000    1.000000    
     19 Ge    c    0.160660 *  0.294090 *  0.982560 *   4.00000    1.000000    
     20 Ge    c    0.839340 *  0.294090 *  0.017440 *   4.00000    1.000000    
     21 Si    c    0.660190 *  0.706090 *  0.726560 *   4.00000    1.000000    
     22 Si    c    0.339810 *  0.293910 *  0.273440 *   4.00000    1.000000    
     23 Si    c    0.160660 *  0.705910 *  0.982560 *   4.00000    1.000000    
     24 Si    c    0.660660 *  0.705910 *  0.017440 *   4.00000    1.000000    
     25 O1    c    0.106570 *  0.174340 *  0.366200 *   1.73396    1.000000    
     26 O1    c    0.393430 *  0.825660 *  0.366200 *   1.73396    1.000000    
     27 O1    c    0.893430 *  0.174340 *  0.633800 *   1.73396    1.000000    
     28 O3    c    0.606570 *  0.825660 *  0.633800 *   1.33043    1.000000    
     29 O1    c    0.893430 *  0.825660 *  0.633800 *   1.73396    1.000000    
     30 O1    c    0.606570 *  0.174340 *  0.633800 *   1.73396    1.000000    
     31 O1    c    0.106570 *  0.825660 *  0.366200 *   1.73396    1.000000    
     32 O3    c    0.393430 *  0.174340 *  0.366200 *   1.33043    1.000000    
     33 O1    c    0.000000 *  0.000000 *  0.500000 *   1.73396    1.000000    
     34 O1    c    0.500000 *  0.000000 *  0.500000 *   1.73396    1.000000    
     35 O1    c    0.994520 *  0.000000 *  0.250840 *   1.73396    1.000000    
     36 O1    c    0.505480 *  0.000000 *  0.250840 *   1.73396    1.000000    
     37 O1    c    0.005480 *  0.000000 *  0.749160 *   1.73396    1.000000    
     38 O1    c    0.494520 *  0.000000 *  0.749160 *   1.73396    1.000000    
     39 O1    c    0.610230 *  0.175520 *  0.115390 *   1.73396    1.000000    
     40 O1    c    0.889770 *  0.824480 *  0.115390 *   1.73396    1.000000    
     41 O1    c    0.389770 *  0.175520 *  0.884610 *   1.73396    1.000000    
     42 O3    c    0.110230 *  0.824480 *  0.884610 *   1.33043    1.000000    
     43 O1    c    0.389770 *  0.824480 *  0.884610 *   1.73396    1.000000    
     44 O1    c    0.110230 *  0.175520 *  0.884610 *   1.73396    1.000000    
     45 O3    c    0.610230 *  0.824480 *  0.115390 *   1.33043    1.000000    
     46 O1    c    0.889770 *  0.175520 *  0.115390 *   1.73396    1.000000    
     47 O1    c    0.500000 *  0.000000 *  0.000000 *   1.73396    1.000000    
     48 O1    c    0.000000 *  0.000000 *  0.000000 *   1.73396    1.000000    
     49 O1    c    0.151750 *  0.500000 *  0.313330 *   1.73396    1.000000    
     50 O3    c    0.348250 *  0.500000 *  0.313330 *   1.33043    1.000000    
     51 O1    c    0.848250 *  0.500000 *  0.686670 *   1.73396    1.000000    
     52 O3    c    0.651750 *  0.500000 *  0.686670 *   1.33043    1.000000    
     53 O3    c    0.250000 *  0.234950 *  0.285720 *   1.33043    1.000000    
     54 O1    c    0.250000 *  0.765050 *  0.285720 *   1.73396    1.000000    
     55 O1    c    0.750000 *  0.234950 *  0.714280 *   1.73396    1.000000    
     56 O3    c    0.750000 *  0.765050 *  0.714280 *   1.33043    1.000000    
     57 O1    c    0.131410 *  0.268650 *  0.127790 *   1.73396    1.000000    
     58 O1    c    0.368590 *  0.731350 *  0.127790 *   1.73396    1.000000    
     59 O1    c    0.868590 *  0.268650 *  0.872210 *   1.73396    1.000000    
     60 O2    c    0.631410 *  0.731350 *  0.872210 *   0.87073    1.000000    
     61 O1    c    0.868590 *  0.731350 *  0.872210 *   1.73396    1.000000    
     62 O1    c    0.631410 *  0.268650 *  0.872210 *   1.73396    1.000000    
     63 O3    c    0.131410 *  0.731350 *  0.127790 *   1.33043    1.000000    
     64 O3    c    0.368590 *  0.268650 *  0.127790 *   1.33043    1.000000    
     65 O3    c    0.653920 *  0.500000 *  0.058200 *   1.33043    1.000000    
     66 O1    c    0.846080 *  0.500000 *  0.058200 *   1.73396    1.000000    
     67 O1    c    0.346080 *  0.500000 *  0.941800 *   1.73396    1.000000    
     68 O3    c    0.153920 *  0.500000 *  0.941800 *   1.33043    1.000000    
     69 O1    c    0.750000 *  0.231060 *  0.027050 *   1.73396    1.000000    
     70 O3    c    0.750000 *  0.768940 *  0.027050 *   1.33043    1.000000    
     71 O1    c    0.250000 *  0.231060 *  0.972950 *   1.73396    1.000000    
     72 O3    c    0.250000 *  0.768940 *  0.972950 *   1.33043    1.000000    
     73 O1    s    0.106570 *  0.174340 *  0.366200 *  -3.73396    1.000000    
     74 O1    s    0.393430 *  0.825660 *  0.366200 *  -3.73396    1.000000    
     75 O1    s    0.893430 *  0.174340 *  0.633800 *  -3.73396    1.000000    
     76 O3    s    0.606570 *  0.825660 *  0.633800 *  -3.33043    1.000000    
     77 O1    s    0.893430 *  0.825660 *  0.633800 *  -3.73396    1.000000    
     78 O1    s    0.606570 *  0.174340 *  0.633800 *  -3.73396    1.000000    
     79 O1    s    0.106570 *  0.825660 *  0.366200 *  -3.73396    1.000000    
     80 O3    s    0.393430 *  0.174340 *  0.366200 *  -3.33043    1.000000    
     81 O1    s    0.000000 *  0.000000 *  0.500000 *  -3.73396    1.000000    
     82 O1    s    0.500000 *  0.000000 *  0.500000 *  -3.73396    1.000000    
     83 O1    s    0.994520 *  0.000000 *  0.250840 *  -3.73396    1.000000    
     84 O1    s    0.505480 *  0.000000 *  0.250840 *  -3.73396    1.000000    
     85 O1    s    0.005480 *  0.000000 *  0.749160 *  -3.73396    1.000000    
     86 O1    s    0.494520 *  0.000000 *  0.749160 *  -3.73396    1.000000    
     87 O1    s    0.610230 *  0.175520 *  0.115390 *  -3.73396    1.000000    
     88 O1    s    0.889770 *  0.824480 *  0.115390 *  -3.73396    1.000000    
     89 O1    s    0.389770 *  0.175520 *  0.884610 *  -3.73396    1.000000    
     90 O3    s    0.110230 *  0.824480 *  0.884610 *  -3.33043    1.000000    
     91 O1    s    0.389770 *  0.824480 *  0.884610 *  -3.73396    1.000000    
     92 O1    s    0.110230 *  0.175520 *  0.884610 *  -3.73396    1.000000    
     93 O3    s    0.610230 *  0.824480 *  0.115390 *  -3.33043    1.000000    
     94 O1    s    0.889770 *  0.175520 *  0.115390 *  -3.73396    1.000000    
     95 O1    s    0.500000 *  0.000000 *  0.000000 *  -3.73396    1.000000    
     96 O1    s    0.000000 *  0.000000 *  0.000000 *  -3.73396    1.000000    
     97 O1    s    0.151750 *  0.500000 *  0.313330 *  -3.73396    1.000000    
     98 O3    s    0.348250 *  0.500000 *  0.313330 *  -3.33043    1.000000    
     99 O1    s    0.848250 *  0.500000 *  0.686670 *  -3.73396    1.000000    
    100 O3    s    0.651750 *  0.500000 *  0.686670 *  -3.33043    1.000000    
    101 O3    s    0.250000 *  0.234950 *  0.285720 *  -3.33043    1.000000    
    102 O1    s    0.250000 *  0.765050 *  0.285720 *  -3.73396    1.000000    
    103 O1    s    0.750000 *  0.234950 *  0.714280 *  -3.73396    1.000000    
    104 O3    s    0.750000 *  0.765050 *  0.714280 *  -3.33043    1.000000    
    105 O1    s    0.131410 *  0.268650 *  0.127790 *  -3.73396    1.000000    
    106 O1    s    0.368590 *  0.731350 *  0.127790 *  -3.73396    1.000000    
    107 O1    s    0.868590 *  0.268650 *  0.872210 *  -3.73396    1.000000    
    108 O2    s    0.631410 *  0.731350 *  0.872210 *  -2.87073    1.000000    
    109 O1    s    0.868590 *  0.731350 *  0.872210 *  -3.73396    1.000000    
    110 O1    s    0.631410 *  0.268650 *  0.872210 *  -3.73396    1.000000    
    111 O3    s    0.131410 *  0.731350 *  0.127790 *  -3.33043    1.000000    
    112 O3    s    0.368590 *  0.268650 *  0.127790 *  -3.33043    1.000000    
    113 O3    s    0.653920 *  0.500000 *  0.058200 *  -3.33043    1.000000    
    114 O1    s    0.846080 *  0.500000 *  0.058200 *  -3.73396    1.000000    
    115 O1    s    0.346080 *  0.500000 *  0.941800 *  -3.73396    1.000000    
    116 O3    s    0.153920 *  0.500000 *  0.941800 *  -3.33043    1.000000    
    117 O1    s    0.750000 *  0.231060 *  0.027050 *  -3.73396    1.000000    
    118 O3    s    0.750000 *  0.768940 *  0.027050 *  -3.33043    1.000000    
    119 O1    s    0.250000 *  0.231060 *  0.972950 *  -3.73396    1.000000    
    120 O3    s    0.250000 *  0.768940 *  0.972950 *  -3.33043    1.000000    
--------------------------------------------------------------------------------



********************************************************************************
*  General input information                                                   *
********************************************************************************

  Species output for all configurations : 

--------------------------------------------------------------------------------
  Species    Type    Atomic    Atomic    Charge       Radii (Angs)     Library
                     Number     Mass       (e)     Cova   Ionic  VDW   Symbol
--------------------------------------------------------------------------------
    Ge       Core       32      72.61   4.000000   1.170  0.000  1.750 Ge       
    Si       Core       14      28.09   4.000000   1.200  0.000  2.100 Si       
    O1       Core        8      16.00   1.733957   0.730  0.000  1.360 O1       
    O2       Core        8      16.00   0.870733   0.730  0.000  1.360 O2       
    O3       Core        8      16.00   1.330431   0.730  0.000  1.360 O3       
    O1       Shell       8       0.00  -3.733957   0.730  0.000  0.000 O1       
    O2       Shell       8       0.00  -2.870733   0.730  0.000  0.000 O2       
    O3       Shell       8       0.00  -3.330431   0.730  0.000  0.000 O3       
--------------------------------------------------------------------------------


  Lattice summation method               =    Ewald          (3-D)
                                         =    Parry          (2-D)
                                         =    Saunders et al (1-D)
  Accuracy factor for lattice sums       =   12.000


  Analytic derivatives to be used

  Time limit = Infinity

  Maximum range for interatomic potentials =    100000.000000 Angstroms

  General interatomic potentials :

--------------------------------------------------------------------------------
Atom  Types   Potential      Parameter       Value         Units   Cutoffs(Ang)
  1     2                                                            Min /  Max 
--------------------------------------------------------------------------------
Si   c O1   s Buckingham    Buckingham A     1315.2478    eV        0.000 16.000
                            Buckingham rho  0.31775900    Ang       
                            Buckingham C     10.141118    eV*Ang^6  
--------------------------------------------------------------------------------
Si   c O2   s Buckingham    Buckingham A     1315.2478    eV        0.000 16.000
                            Buckingham rho  0.31775900    Ang       
                            Buckingham C     10.141118    eV*Ang^6  
--------------------------------------------------------------------------------
Si   c O3   s Buckingham    Buckingham A     1315.2478    eV        0.000 16.000
                            Buckingham rho  0.31775900    Ang       
                            Buckingham C     10.141118    eV*Ang^6  
--------------------------------------------------------------------------------
Ge   c O1   s Buckingham    Buckingham A     1497.3996    eV        0.000 16.000
                            Buckingham rho  0.32564600    Ang       
                            Buckingham C     16.808599    eV*Ang^6  
--------------------------------------------------------------------------------
Ge   c O2   s Buckingham    Buckingham A     1497.3996    eV        0.000 16.000
                            Buckingham rho  0.32564600    Ang       
                            Buckingham C     16.808599    eV*Ang^6  
--------------------------------------------------------------------------------
Ge   c O3   s Buckingham    Buckingham A     1497.3996    eV        0.000 16.000
                            Buckingham rho  0.32564600    Ang       
                            Buckingham C     16.808599    eV*Ang^6  
--------------------------------------------------------------------------------
O1   s O1   s Buckingham    Buckingham A     22764.000    eV        0.000 16.000
                            Buckingham rho  0.14900000    Ang       
                            Buckingham C     10.937044    eV*Ang^6  
--------------------------------------------------------------------------------
O1   s O2   s Buckingham    Buckingham A     22764.000    eV        0.000 16.000
                            Buckingham rho  0.14900000    Ang       
                            Buckingham C     10.937044    eV*Ang^6  
--------------------------------------------------------------------------------
O1   s O3   s Buckingham    Buckingham A     22764.000    eV        0.000 16.000
                            Buckingham rho  0.14900000    Ang       
                            Buckingham C     10.937044    eV*Ang^6  
--------------------------------------------------------------------------------
O2   s O2   s Buckingham    Buckingham A     22764.000    eV        0.000 16.000
                            Buckingham rho  0.14900000    Ang       
                            Buckingham C     10.937044    eV*Ang^6  
--------------------------------------------------------------------------------
O2   s O3   s Buckingham    Buckingham A     22764.000    eV        0.000 16.000
                            Buckingham rho  0.14900000    Ang       
                            Buckingham C     10.937044    eV*Ang^6  
--------------------------------------------------------------------------------
O3   s O3   s Buckingham    Buckingham A     22764.000    eV        0.000 16.000
                            Buckingham rho  0.14900000    Ang       
                            Buckingham C     10.937044    eV*Ang^6  
--------------------------------------------------------------------------------
O1   c O1   s Spring (c-s)  Spring k 2       180.31577    eV*Ang^-2 0.000  0.800
                            Spring k 4       0.0000000    eV*Ang^-4 
--------------------------------------------------------------------------------
O2   c O2   s Spring (c-s)  Spring k 2       75.969800    eV*Ang^-2 0.000  0.800
                            Spring k 4       0.0000000    eV*Ang^-4 
--------------------------------------------------------------------------------
O3   c O3   s Spring (c-s)  Spring k 2       128.14270    eV*Ang^-2 0.000  0.800
                            Spring k 4       0.0000000    eV*Ang^-4 
--------------------------------------------------------------------------------

  General Three-body potentials :

--------------------------------------------------------------------------------
  Atoms       Potential      Parameter       Value         Units   Cutoffs(Ang)
  1 / 2 / 3                                                          Min /  Max 
--------------------------------------------------------------------------------
Si    core    Harmonic      Three-body cnst  1.2614000    eV*rad^-2 0.000  1.900
O1    shel                  Three-body angl  109.47000    degrees   0.000  1.900
O1    shel                  Three-body k4    0.0000000    eV*rad^-4 0.000  3.500
                            Three-body k3    0.0000000    eV*rad^-3 
--------------------------------------------------------------------------------
Si    core    Harmonic      Three-body cnst  1.2614000    eV*rad^-2 0.000  1.900
O1    shel                  Three-body angl  109.47000    degrees   0.000  1.900
õ(1   shel                  Three-body k4    0.0000000    eV*rad^-4 0.000  3.500
                            Three-body k3    0.0000000    eV*rad^-3 
--------------------------------------------------------------------------------
Si    core    Harmonic      Three-body cnst  1.2614000    eV*rad^-2 0.000  1.900
õ(1   shel                  Three-body angl  109.47000    degrees   0.000  1.900
õ(1   shel                  Three-body k4    0.0000000    eV*rad^-4 0.000  3.500
                            Three-body k3    0.0000000    eV*rad^-3 
--------------------------------------------------------------------------------
Si    core    Harmonic      Three-body cnst  1.2614000    eV*rad^-2 0.000  1.900
O1    shel                  Three-body angl  109.47000    degrees   0.000  1.900
O2    shel                  Three-body k4    0.0000000    eV*rad^-4 0.000  3.500
                            Three-body k3    0.0000000    eV*rad^-3 
--------------------------------------------------------------------------------
Si    core    Harmonic      Three-body cnst  1.2614000    eV*rad^-2 0.000  1.900
O1    shel                  Three-body angl  109.47000    degrees   0.000  1.900
õ(2   shel                  Three-body k4    0.0000000    eV*rad^-4 0.000  3.500
                            Three-body k3    0.0000000    eV*rad^-3 
--------------------------------------------------------------------------------
Si    core    Harmonic      Three-body cnst  1.2614000    eV*rad^-2 0.000  1.900
O2    shel                  Three-body angl  109.47000    degrees   0.000  1.900
õ(1   shel                  Three-body k4    0.0000000    eV*rad^-4 0.000  3.500
                            Three-body k3    0.0000000    eV*rad^-3 
--------------------------------------------------------------------------------
Si    core    Harmonic      Three-body cnst  1.2614000    eV*rad^-2 0.000  1.900
õ(1   shel                  Three-body angl  109.47000    degrees   0.000  1.900
õ(2   shel                  Three-body k4    0.0000000    eV*rad^-4 0.000  3.500
                            Three-body k3    0.0000000    eV*rad^-3 
--------------------------------------------------------------------------------
Si    core    Harmonic      Three-body cnst  1.2614000    eV*rad^-2 0.000  1.900
O2    shel                  Three-body angl  109.47000    degrees   0.000  1.900
O2    shel                  Three-body k4    0.0000000    eV*rad^-4 0.000  3.500
                            Three-body k3    0.0000000    eV*rad^-3 
--------------------------------------------------------------------------------
Si    core    Harmonic      Three-body cnst  1.2614000    eV*rad^-2 0.000  1.900
O2    shel                  Three-body angl  109.47000    degrees   0.000  1.900
õ(2   shel                  Three-body k4    0.0000000    eV*rad^-4 0.000  3.500
                            Three-body k3    0.0000000    eV*rad^-3 
--------------------------------------------------------------------------------
Si    core    Harmonic      Three-body cnst  1.2614000    eV*rad^-2 0.000  1.900
õ(2   shel                  Three-body angl  109.47000    degrees   0.000  1.900
õ(2   shel                  Three-body k4    0.0000000    eV*rad^-4 0.000  3.500
                            Three-body k3    0.0000000    eV*rad^-3 
--------------------------------------------------------------------------------

********************************************************************************
*  Output for configuration   1 : c00135.vasp                                  *
********************************************************************************


  Components of energy : 

--------------------------------------------------------------------------------
  Interatomic potentials     =         896.62540446 eV    
  Three-body potentials      =           0.00000000 eV    
  Monopole - monopole (real) =       -2676.00317478 eV    
  Monopole - monopole (recip)=       -1115.35404472 eV    
  Monopole - monopole (total)=       -3791.35721950 eV    
--------------------------------------------------------------------------------
  Total lattice energy       =       -2894.73181504 eV    
--------------------------------------------------------------------------------
  Total lattice energy       =         -279297.3701 kJ/(mole unit cells)
--------------------------------------------------------------------------------


  Number of variables =      363

  Maximum number of calculations  =          1000
  Maximum Hessian update interval =            10
  Maximum step size               =   0.100000000
  Maximum parameter tolerance     =   0.000010000
  Maximum function  tolerance     =   0.000010000
  Maximum gradient  tolerance     =   0.001000000
  Maximum gradient  component     =   0.010000000

  Symmetry not applied to optimisation

  Cell parameters to be optimised using strains

  Newton-Raphson optimiser to be used

  BFGS hessian update to be used

  Lower half triangular hessian to be used

  Minimiser to switch to RFO
  When gradient norm is less than     0.050000

  Dumpfile to be written after every cycle

  Start of bulk optimisation :

  Cycle:      0 Energy:     -2894.731815  Gnorm:      5.785651  CPU:    0.118
  ** Hessian calculated **
  Cycle:      1 Energy:     -2938.291845  Gnorm:      1.388754  CPU:    0.269
  ** Hessian calculated **
  Cycle:      2 Energy:     -2943.061025  Gnorm:      0.671479  CPU:    0.478
  Cycle:      3 Energy:     -2944.037963  Gnorm:      0.385867  CPU:    0.579
  Cycle:      4 Energy:     -2944.613012  Gnorm:      0.329429  CPU:    0.702
  Cycle:      5 Energy:     -2945.337551  Gnorm:      0.272440  CPU:    0.825
  Cycle:      6 Energy:     -2946.090747  Gnorm:      0.237063  CPU:    0.947
  Cycle:      7 Energy:     -2946.421984  Gnorm:      0.153110  CPU:    1.047
  Cycle:      8 Energy:     -2946.543125  Gnorm:      0.109767  CPU:    1.151
  Cycle:      9 Energy:     -2946.603076  Gnorm:      0.088189  CPU:    1.273
  Cycle:     10 Energy:     -2946.643618  Gnorm:      0.077503  CPU:    1.396
  Cycle:     11 Energy:     -2946.683119  Gnorm:      0.075531  CPU:    1.524
  ** Hessian calculated **
  Cycle:     12 Energy:     -2946.705002  Gnorm:      0.074058  CPU:    1.769
  Cycle:     13 Energy:     -2946.740855  Gnorm:      0.071583  CPU:    1.903
  Cycle:     14 Energy:     -2946.792995  Gnorm:      0.067803  CPU:    2.039
  Cycle:     15 Energy:     -2946.852692  Gnorm:      0.063142  CPU:    2.164
  Cycle:     16 Energy:     -2946.940516  Gnorm:      0.055611  CPU:    2.308
  Cycle:     17 Energy:     -2947.027891  Gnorm:      0.047446  CPU:    2.434
  ** Hessian has wrong structure
  ** Imaginary eigenvectors =   7
  Cycle:     18 Energy:     -2947.084035  Gnorm:      0.132469  CPU:    2.745
  ** Hessian has wrong structure
  ** Imaginary eigenvectors =   5
  ** Hessian has wrong structure
  ** Imaginary eigenvectors =   3
  Cycle:     19 Energy:     -2947.178044  Gnorm:      0.151443  CPU:    3.309
  ** Hessian has wrong structure
  ** Imaginary eigenvectors =   2
  ** Hessian has wrong structure
  ** Imaginary eigenvectors =   1
  Cycle:     20 Energy:     -2947.539103  Gnorm:      0.116295  CPU:    3.885
  ** Hessian has wrong structure
  ** Imaginary eigenvectors =   1
  ** Hessian has required structure
  Cycle:     21 Energy:     -2947.734702  Gnorm:      0.064672  CPU:    4.307
  ** Hessian has required structure
  Cycle:     22 Energy:     -2947.811763  Gnorm:      0.044370  CPU:    4.499
  ** Hessian has required structure
  Cycle:     23 Energy:     -2947.841483  Gnorm:      0.024642  CPU:    4.676
  ** Hessian has required structure
  Cycle:     24 Energy:     -2947.870702  Gnorm:      0.021382  CPU:    4.867
  ** Hessian has required structure
  Cycle:     25 Energy:     -2947.876911  Gnorm:      0.027828  CPU:    5.043
  ** Hessian has required structure
  Cycle:     26 Energy:     -2947.883524  Gnorm:      0.019433  CPU:    5.215
  ** Hessian has required structure
  Cycle:     27 Energy:     -2947.887490  Gnorm:      0.013841  CPU:    5.411
  ** Hessian has required structure
  Cycle:     28 Energy:     -2947.890001  Gnorm:      0.010077  CPU:    5.584
  ** Hessian has required structure
  Cycle:     29 Energy:     -2947.891480  Gnorm:      0.006016  CPU:    5.755
  ** Hessian has required structure
  Cycle:     30 Energy:     -2947.892188  Gnorm:      0.007432  CPU:    5.931
  ** Hessian has required structure
  Cycle:     31 Energy:     -2947.892936  Gnorm:      0.003720  CPU:    6.217
  ** Hessian has required structure
  Cycle:     32 Energy:     -2947.893105  Gnorm:      0.002238  CPU:    6.389
  ** Hessian has required structure
  Cycle:     33 Energy:     -2947.893187  Gnorm:      0.001117  CPU:    6.583
  ** Hessian has required structure
  Cycle:     34 Energy:     -2947.893212  Gnorm:      0.000556  CPU:    6.776
  ** Hessian has required structure
  Cycle:     35 Energy:     -2947.893217  Gnorm:      0.000402  CPU:    6.930
  ** Hessian has required structure
  Cycle:     36 Energy:     -2947.893220  Gnorm:      0.000322  CPU:    7.085
  ** Hessian has required structure
  Cycle:     37 Energy:     -2947.893220  Gnorm:      0.000321  CPU:    7.240
  ** Hessian has required structure
  Cycle:     38 Energy:     -2947.893220  Gnorm:      0.000320  CPU:    7.395
  ** Hessian has required structure
  Cycle:     39 Energy:     -2947.893220  Gnorm:      0.000311  CPU:    7.549
  ** Hessian has required structure
  Cycle:     40 Energy:     -2947.893220  Gnorm:      0.000306  CPU:    7.703
  ** Hessian has required structure
  Cycle:     41 Energy:     -2947.893220  Gnorm:      0.000306  CPU:    8.008
  ** Hessian calculated **
  Cycle:     42 Energy:     -2947.893220  Gnorm:      0.000167  CPU:    8.200
  ** Hessian has required structure
  Cycle:     43 Energy:     -2947.893220  Gnorm:      0.000300  CPU:    8.354
  ** Hessian has required structure
  Cycle:     44 Energy:     -2947.893220  Gnorm:      0.000251  CPU:    8.505
  ** Hessian has required structure
  Cycle:     45 Energy:     -2947.893220  Gnorm:      0.000272  CPU:    8.655
  ** Hessian has required structure
  Cycle:     46 Energy:     -2947.893220  Gnorm:      0.000231  CPU:    8.806
  ** Hessian has required structure
  Cycle:     47 Energy:     -2947.893220  Gnorm:      0.000238  CPU:    8.957
  ** Hessian has required structure
  Cycle:     48 Energy:     -2947.893220  Gnorm:      0.000253  CPU:    9.149
  ** Hessian has required structure
  Cycle:     49 Energy:     -2947.893220  Gnorm:      0.000246  CPU:    9.288
  ** Hessian has required structure
  Cycle:     50 Energy:     -2947.893220  Gnorm:      0.000216  CPU:    9.430
  ** Hessian has required structure
  Cycle:     51 Energy:     -2947.893220  Gnorm:      0.000224  CPU:    9.575
  ** Hessian has required structure
  Cycle:     52 Energy:     -2947.893221  Gnorm:      0.000212  CPU:    9.824
  ** Hessian has required structure
  Cycle:     53 Energy:     -2947.893221  Gnorm:      0.000210  CPU:    9.975
  ** Hessian has required structure
  Cycle:     54 Energy:     -2947.893221  Gnorm:      0.000209  CPU:   10.132
  ** Hessian has required structure
  Cycle:     55 Energy:     -2947.893221  Gnorm:      0.000208  CPU:   10.286
  ** Hessian has required structure
  Cycle:     56 Energy:     -2947.893221  Gnorm:      0.000208  CPU:   10.438
  ** Hessian has required structure
  Cycle:     57 Energy:     -2947.893221  Gnorm:      0.000208  CPU:   10.591
  ** Hessian has required structure
  Cycle:     58 Energy:     -2947.893221  Gnorm:      0.000208  CPU:   10.743
  ** Hessian has required structure
  Cycle:     59 Energy:     -2947.893221  Gnorm:      0.000208  CPU:   10.897
  ** Hessian has required structure
  Cycle:     60 Energy:     -2947.893221  Gnorm:      0.000208  CPU:   11.044
  ** Hessian has required structure
  Cycle:     61 Energy:     -2947.893221  Gnorm:      0.000230  CPU:   11.242
  ** Hessian has required structure
  Cycle:     62 Energy:     -2947.893222  Gnorm:      0.000207  CPU:   11.476
  ** Hessian has required structure
  Cycle:     63 Energy:     -2947.893222  Gnorm:      0.000207  CPU:   11.627
  ** Hessian has required structure
  Cycle:     64 Energy:     -2947.893222  Gnorm:      0.000207  CPU:   11.778
  ** Hessian has required structure
  Cycle:     65 Energy:     -2947.893222  Gnorm:      0.000205  CPU:   11.934
  ** Hessian has required structure
  Cycle:     66 Energy:     -2947.893222  Gnorm:      0.000205  CPU:   12.089
  ** Hessian has required structure
  Cycle:     67 Energy:     -2947.893222  Gnorm:      0.000204  CPU:   12.263
  ** Hessian has required structure
  Cycle:     68 Energy:     -2947.893222  Gnorm:      0.000204  CPU:   12.414
  ** Hessian has required structure
  Cycle:     69 Energy:     -2947.893222  Gnorm:      0.000204  CPU:   12.567
  ** Hessian has required structure
  Cycle:     70 Energy:     -2947.893222  Gnorm:      0.000204  CPU:   12.720
  ** Hessian has required structure
  Cycle:     71 Energy:     -2947.893222  Gnorm:      0.000204  CPU:   12.873
  ** Hessian has required structure
  Cycle:     72 Energy:     -2947.893221  Gnorm:      0.000203  CPU:   13.294
  ** Hessian calculated **


  **** Optimisation achieved ****


  Final energy =   -2947.89322109 eV      
  Final Gnorm  =       0.00007720

  Components of energy : 

--------------------------------------------------------------------------------
  Interatomic potentials     =         778.32672675 eV    
  Three-body potentials      =           0.00000000 eV    
  Monopole - monopole (real) =       -1564.32714348 eV    
  Monopole - monopole (recip)=       -2161.89280436 eV    
  Monopole - monopole (total)=       -3726.21994784 eV    
--------------------------------------------------------------------------------
  Total lattice energy       =       -2947.89322109 eV    
--------------------------------------------------------------------------------
  Total lattice energy       =         -284426.6332 kJ/(mole unit cells)
--------------------------------------------------------------------------------

  Final fractional coordinates of atoms :

--------------------------------------------------------------------------------
   No.  Atomic        x           y          z          Radius
        Label       (Frac)      (Frac)     (Frac)       (Angs) 
--------------------------------------------------------------------------------
     1  Ge    c     0.052090    0.000000    0.372270    0.000000
     2  Ge    c     0.448745    0.944680    0.396493    0.000000
     3  Ge    c     0.944293    0.955228    0.620076    0.000000
     4  Ge    c     0.548954    0.008235    0.656552    0.000000
     5  Ge    c     0.551196    0.008812    0.150328    0.000000
     6  Ge    c     0.945042    0.949763    0.118544    0.000000
     7  Ge    c     0.440898    0.958989    0.905145    0.000000
     8  Ge    c     0.049953    0.010108    0.871710    0.000000
     9  Ge    c     0.151581    0.308843    0.302048    0.000000
    10  Ge    c     0.354673    0.634233    0.289717    0.000000
    11  Ge    c     0.825098    0.247727    0.734684    0.000000
    12  Ge    c     0.847863    0.646064    0.728968    0.000000
    13  Ge    c     0.641870    0.325078    0.726631    0.000000
    14  Ge    c     0.173172    0.707279    0.302604    0.000000
    15  Ge    c     0.639722    0.326355    0.039158    0.000000
    16  Ge    c     0.844696    0.643393    0.053238    0.000000
    17  Ge    c     0.319381    0.252619    0.967182    0.000000
    18  Ge    c     0.344943    0.645810    0.974137    0.000000
    19  Ge    c     0.138603    0.325380    0.983983    0.000000
    20  Ge    c     0.823327    0.246326    0.050875    0.000000
    21  Si    c     0.670852    0.713547    0.720817    0.000000
    22  Si    c     0.329475    0.242649    0.280912    0.000000
    23  Si    c     0.165639    0.717532    0.992013    0.000000
    24  Si    c     0.668194    0.717049    0.031995    0.000000
    25  O1    c     0.093226    0.190799    0.395500    0.000000
    26  O1    c     0.418936    0.741952    0.380339    0.000000
    27  O1    c     0.869102    0.094115    0.644083    0.000000
    28  O3    c     0.621543    0.854225    0.640076    0.000000
    29  O1    c     0.914919    0.753312    0.647629    0.000000
    30  O1    c     0.584089    0.205580    0.631186    0.000000
    31  O1    c     0.123019    0.845446    0.397485    0.000000
    32  O3    c     0.376887    0.092093    0.354527    0.000000
    33  O1    c     0.972616    0.971814    0.459770    0.000000
    34  O1    c     0.472713    0.972549    0.558650    0.000000
    35  O1    c     0.023418    0.986528    0.209811    0.000000
    36  O1    c     0.530362    0.976056    0.311999    0.000000
    37  O1    c     0.024388    0.997862    0.709292    0.000000
    38  O1    c     0.518845    0.992701    0.815855    0.000000
    39  O1    c     0.579784    0.213864    0.133676    0.000000
    40  O1    c     0.907769    0.753546    0.142904    0.000000
    41  O1    c     0.368224    0.108970    0.876430    0.000000
    42  O3    c     0.125796    0.869770    0.907827    0.000000
    43  O1    c     0.402004    0.765989    0.880151    0.000000
    44  O1    c     0.072944    0.217334    0.898063    0.000000
    45  O3    c     0.621587    0.868430    0.097252    0.000000
    46  O1    c     0.872032    0.096762    0.144880    0.000000
    47  O1    c     0.468519    0.975328    0.067191    0.000000
    48  O1    c     0.971625    0.958662    0.956593    0.000000
    49  O1    c     0.158772    0.505963    0.363621    0.000000
    50  O3    c     0.346421    0.425071    0.342885    0.000000
    51  O1    c     0.843567    0.444697    0.670425    0.000000
    52  O3    c     0.652039    0.528596    0.665729    0.000000
    53  O3    c     0.240766    0.208177    0.291413    0.000000
    54  O1    c     0.267891    0.739429    0.305775    0.000000
    55  O1    c     0.729438    0.222185    0.735557    0.000000
    56  O3    c     0.758840    0.748136    0.707163    0.000000
    57  O1    c     0.114299    0.321007    0.145124    0.000000
    58  O1    c     0.383161    0.637071    0.130556    0.000000
    59  O1    c     0.857739    0.234814    0.894093    0.000000
    60  O2    c     0.650458    0.707712    0.875550    0.000000
    61  O1    c     0.871394    0.635276    0.892270    0.000000
    62  O1    c     0.605058    0.326872    0.881237    0.000000
    63  O3    c     0.138319    0.719936    0.141669    0.000000
    64  O3    c     0.351417    0.252775    0.129116    0.000000
    65  O3    c     0.647073    0.534138    0.091423    0.000000
    66  O1    c     0.840058    0.442723    0.114796    0.000000
    67  O1    c     0.337310    0.452355    0.906403    0.000000
    68  O3    c     0.145620    0.535508    0.932425    0.000000
    69  O1    c     0.727570    0.224060    0.046794    0.000000
    70  O3    c     0.756095    0.748546    0.055200    0.000000
    71  O1    c     0.224776    0.221010    0.961402    0.000000
    72  O3    c     0.255294    0.740971    0.991920    0.000000
    73  O1    s     0.094559    0.185551    0.386766    0.000000
    74  O1    s     0.416328    0.749067    0.374721    0.000000
    75  O1    s     0.871519    0.095340    0.649329    0.000000
    76  O3    s     0.620939    0.851786    0.649532    0.000000
    77  O1    s     0.911918    0.760233    0.651882    0.000000
    78  O1    s     0.585719    0.199815    0.640009    0.000000
    79  O1    s     0.121685    0.846054    0.388275    0.000000
    80  O3    s     0.377895    0.095513    0.350363    0.000000
    81  O1    s     0.976781    0.972804    0.464601    0.000000
    82  O1    s     0.476936    0.973292    0.554382    0.000000
    83  O1    s     0.019258    0.984623    0.214122    0.000000
    84  O1    s     0.525935    0.976184    0.306221    0.000000
    85  O1    s     0.020390    0.995612    0.714728    0.000000
    86  O1    s     0.514843    0.991186    0.811345    0.000000
    87  O1    s     0.582236    0.207323    0.127712    0.000000
    88  O1    s     0.905691    0.759398    0.134338    0.000000
    89  O1    s     0.369659    0.109487    0.885731    0.000000
    90  O3    s     0.123737    0.865635    0.913448    0.000000
    91  O1    s     0.400581    0.771158    0.889082    0.000000
    92  O1    s     0.076309    0.210575    0.902742    0.000000
    93  O3    s     0.620770    0.863883    0.094676    0.000000
    94  O1    s     0.873560    0.097724    0.135662    0.000000
    95  O1    s     0.472718    0.976629    0.061836    0.000000
    96  O1    s     0.975635    0.961907    0.961651    0.000000
    97  O1    s     0.159253    0.504973    0.354304    0.000000
    98  O3    s     0.345513    0.424245    0.333189    0.000000
    99  O1    s     0.842545    0.445475    0.679553    0.000000
   100  O3    s     0.652963    0.529573    0.675598    0.000000
   101  O3    s     0.242401    0.219127    0.291201    0.000000
   102  O1    s     0.266890    0.729163    0.304351    0.000000
   103  O1    s     0.730147    0.231900    0.734837    0.000000
   104  O3    s     0.756927    0.737052    0.710161    0.000000
   105  O1    s     0.118915    0.320435    0.144397    0.000000
   106  O1    s     0.378199    0.637508    0.131123    0.000000
   107  O1    s     0.852852    0.236584    0.893598    0.000000
   108  O2    s     0.654260    0.709185    0.875790    0.000000
   109  O1    s     0.867581    0.636702    0.891796    0.000000
   110  O1    s     0.610343    0.326689    0.881617    0.000000
   111  O3    s     0.143479    0.718765    0.139671    0.000000
   112  O3    s     0.346844    0.251826    0.131248    0.000000
   113  O3    s     0.648454    0.535344    0.081978    0.000000
   114  O1    s     0.839209    0.444267    0.105337    0.000000
   115  O1    s     0.336609    0.453198    0.916146    0.000000
   116  O3    s     0.146897    0.536200    0.941788    0.000000
   117  O1    s     0.728372    0.233492    0.046541    0.000000
   118  O3    s     0.754225    0.737428    0.052735    0.000000
   119  O1    s     0.225811    0.231267    0.963534    0.000000
   120  O3    s     0.253519    0.731354    0.990575    0.000000
--------------------------------------------------------------------------------

  Final Cartesian lattice vectors (Angstroms) :

       17.658249    0.387135   -0.158952
        0.169389    7.878989    0.067088
       -0.098820    0.097982   10.206794


  Final cell parameters and derivatives :

--------------------------------------------------------------------------------
       a           17.663207 Angstrom     dE/de1(xx)    -0.001714 eV/strain
       b            7.881095 Angstrom     dE/de2(yy)    -0.001067 eV/strain
       c           10.207742 Angstrom     dE/de3(zz)     0.002998 eV/strain
       alpha       88.974361 Degrees      dE/de4(yz)     0.000354 eV/strain
       beta        91.058081 Degrees      dE/de5(xz)    -0.000050 eV/strain
       gamma       87.517043 Degrees      dE/de6(xy)     0.002056 eV/strain
--------------------------------------------------------------------------------

  Primitive cell volume =          1419.148139 Angs**3

  Density of cell =      2.729362 g/cm**3

  Non-primitive cell volume =          1419.148139 Angs**3


  Final internal derivatives :

--------------------------------------------------------------------------------
   No.  Atomic          a             b             c           Radius
        Label          (eV)          (eV)          (eV)        (eV/Angs)
--------------------------------------------------------------------------------
      1 Ge    c       0.000000      0.000000      0.000000      0.000000
      2 Ge    c      -0.001845      0.000451     -0.001379      0.000000
      3 Ge    c       0.002566     -0.000562     -0.000816      0.000000
      4 Ge    c       0.002667      0.000057     -0.000568      0.000000
      5 Ge    c       0.001487      0.000157      0.000204      0.000000
      6 Ge    c      -0.003730      0.000598      0.001171      0.000000
      7 Ge    c      -0.003770     -0.000283     -0.001287      0.000000
      8 Ge    c       0.003700     -0.000034      0.000014      0.000000
      9 Ge    c       0.002603      0.000687      0.001315      0.000000
     10 Ge    c      -0.003265     -0.000982      0.001512      0.000000
     11 Ge    c      -0.000371     -0.000083      0.001758      0.000000
     12 Ge    c      -0.000874      0.000062     -0.002192      0.000000
     13 Ge    c       0.001182     -0.000575     -0.001632      0.000000
     14 Ge    c      -0.000454      0.000586      0.001839      0.000000
     15 Ge    c       0.002194      0.000551      0.001404      0.000000
     16 Ge    c      -0.003298      0.000646      0.002153      0.000000
     17 Ge    c       0.000836     -0.000227     -0.001951      0.000000
     18 Ge    c       0.000772     -0.000629     -0.002534      0.000000
     19 Ge    c       0.001700      0.000332     -0.001015      0.000000
     20 Ge    c       0.003968     -0.001111      0.000347      0.000000
     21 Si    c      -0.000891      0.000992      0.000891      0.000000
     22 Si    c       0.001114     -0.000186      0.002043      0.000000
     23 Si    c      -0.001688      0.000090     -0.001561      0.000000
     24 Si    c      -0.000072      0.000306     -0.001023      0.000000
     25 O1    c       0.000331     -0.000676     -0.001322      0.000000
     26 O1    c       0.001606      0.001440     -0.000215      0.000000
     27 O1    c      -0.000091      0.000744     -0.002123      0.000000
     28 O3    c       0.000134     -0.000044     -0.000478      0.000000
     29 O1    c       0.000178     -0.001229     -0.000322      0.000000
     30 O1    c      -0.001056      0.000865      0.001533      0.000000
     31 O1    c       0.001616      0.000642     -0.002643      0.000000
     32 O3    c       0.000217     -0.000621     -0.000899      0.000000
     33 O1    c       0.004057      0.000091     -0.003336      0.000000
     34 O1    c      -0.001686     -0.000163      0.003002      0.000000
     35 O1    c       0.000804     -0.000977     -0.003842      0.000000
     36 O1    c      -0.002196      0.000171      0.003005      0.000000
     37 O1    c       0.001309     -0.000412      0.001638      0.000000
     38 O1    c      -0.001234      0.000248      0.004169      0.000000
     39 O1    c      -0.002296      0.001012     -0.000445      0.000000
     40 O1    c       0.000143     -0.001604     -0.002870      0.000000
     41 O1    c      -0.002640     -0.000285      0.002349      0.000000
     42 O3    c       0.001286     -0.000113      0.002657      0.000000
     43 O1    c      -0.001445     -0.000017      0.002367      0.000000
     44 O1    c       0.000543     -0.000808      0.000737      0.000000
     45 O3    c      -0.002422     -0.000565      0.002026      0.000000
     46 O1    c      -0.000283     -0.000178     -0.000317      0.000000
     47 O1    c       0.001375      0.000511      0.001620      0.000000
     48 O1    c       0.002190     -0.000195     -0.002782      0.000000
     49 O1    c      -0.000586     -0.001063     -0.001755      0.000000
     50 O3    c       0.000206      0.000606     -0.001027      0.000000
     51 O1    c       0.001174      0.001400      0.000836      0.000000
     52 O3    c       0.000447     -0.000754     -0.001193      0.000000
     53 O3    c      -0.001642      0.000109     -0.000747      0.000000
     54 O1    c       0.000437     -0.000493     -0.001327      0.000000
     55 O1    c       0.000187      0.000052      0.001208      0.000000
     56 O3    c      -0.000331     -0.000049      0.000937      0.000000
     57 O1    c      -0.001415     -0.000259     -0.000116      0.000000
     58 O1    c       0.001538      0.000336      0.000359      0.000000
     59 O1    c       0.000641      0.000227     -0.000348      0.000000
     60 O2    c      -0.000066     -0.000278     -0.000904      0.000000
     61 O1    c       0.003232      0.000322      0.000627      0.000000
     62 O1    c      -0.002071     -0.000515     -0.000085      0.000000
     63 O3    c      -0.000370     -0.000502      0.000405      0.000000
     64 O3    c       0.001130      0.000202     -0.000166      0.000000
     65 O3    c       0.000777     -0.003572      0.000731      0.000000
     66 O1    c       0.002428      0.000956     -0.000297      0.000000
     67 O1    c      -0.000737      0.000361      0.001524      0.000000
     68 O3    c       0.000510     -0.000554      0.000899      0.000000
     69 O1    c      -0.000774     -0.000324     -0.001396      0.000000
     70 O3    c       0.002407     -0.000496     -0.001847      0.000000
     71 O1    c       0.000042      0.000817      0.001430      0.000000
     72 O3    c      -0.001346     -0.000547      0.000358      0.000000
     73 O1    s      -0.000081      0.000470      0.000831      0.000000
     74 O1    s      -0.003671     -0.000269      0.001028      0.000000
     75 O1    s       0.000228      0.001119     -0.000791      0.000000
     76 O3    s      -0.000829      0.000280     -0.000696      0.000000
     77 O1    s      -0.002366     -0.001284     -0.001189      0.000000
     78 O1    s       0.001470     -0.000371     -0.001320      0.000000
     79 O1    s      -0.002066     -0.000578      0.001414      0.000000
     80 O3    s      -0.000604      0.000394      0.000286      0.000000
     81 O1    s      -0.002033     -0.000606      0.002963      0.000000
     82 O1    s      -0.002123     -0.001082     -0.001273      0.000000
     83 O1    s       0.001439      0.001944      0.002990      0.000000
     84 O1    s       0.001132      0.001040     -0.002678      0.000000
     85 O1    s      -0.000860     -0.000454     -0.001203      0.000000
     86 O1    s      -0.001560      0.001236     -0.002987      0.000000
     87 O1    s       0.002950      0.000342      0.001123      0.000000
     88 O1    s      -0.002902      0.001101      0.002415      0.000000
     89 O1    s       0.002293      0.000332     -0.002289      0.000000
     90 O3    s      -0.000455     -0.000262     -0.000195      0.000000
     91 O1    s      -0.000144     -0.000006     -0.001734      0.000000
     92 O1    s       0.001549     -0.000360     -0.001127      0.000000
     93 O3    s      -0.000978      0.000909      0.002260      0.000000
     94 O1    s       0.001352      0.000395      0.000609      0.000000
     95 O1    s      -0.001473     -0.000735     -0.000242      0.000000
     96 O1    s      -0.001545     -0.000440      0.000730      0.000000
     97 O1    s       0.001076      0.000085      0.001233      0.000000
     98 O3    s      -0.000150     -0.000056      0.000787      0.000000
     99 O1    s      -0.003021      0.000021     -0.001193      0.000000
    100 O3    s      -0.001078     -0.000419     -0.001681      0.000000
    101 O3    s      -0.001948      0.000331      0.001656      0.000000
    102 O1    s       0.001161     -0.000430      0.002211      0.000000
    103 O1    s      -0.000290     -0.000430     -0.001088      0.000000
    104 O3    s       0.002858      0.000629     -0.000498      0.000000
    105 O1    s       0.001546     -0.000241      0.000021      0.000000
    106 O1    s      -0.000982      0.000203      0.000030      0.000000
    107 O1    s      -0.001522     -0.000637     -0.000664      0.000000
    108 O2    s      -0.002831      0.002403     -0.000672      0.000000
    109 O1    s      -0.001244      0.000278     -0.000439      0.000000
    110 O1    s       0.001366     -0.000404      0.000442      0.000000
    111 O3    s      -0.000270      0.000375     -0.000328      0.000000
    112 O3    s       0.000814     -0.000557     -0.000128      0.000000
    113 O3    s       0.000645     -0.000915      0.001661      0.000000
    114 O1    s      -0.002230      0.000814      0.002256      0.000000
    115 O1    s       0.000439      0.000146     -0.001535      0.000000
    116 O3    s      -0.000184      0.000432     -0.000800      0.000000
    117 O1    s      -0.005275     -0.000584      0.000989      0.000000
    118 O3    s       0.004677      0.000235      0.000204      0.000000
    119 O1    s      -0.001592      0.000234     -0.001967      0.000000
    120 O3    s       0.000816      0.000869     -0.001725      0.000000
--------------------------------------------------------------------------------
  Maximum abs         0.005275      0.003572      0.004169      0.000000
--------------------------------------------------------------------------------


  Born effective charge tensors : 

-------------------------------------------------------------------------------
  Atom             x           y             z
-------------------------------------------------------------------------------
    1 Ge    x       4.2453      0.2147      0.0992
            y      -0.0410      3.9327      0.0487
            z      -0.8018     -0.0655      4.1641
-------------------------------------------------------------------------------
    2 Ge    x       4.0842      0.3052      0.4428
            y      -0.0758      3.9866     -0.0058
            z       0.1574      0.1083      4.5184
-------------------------------------------------------------------------------
    3 Ge    x       4.2290      0.2970     -0.4561
            y      -0.1291      3.9238     -0.0331
            z      -0.2388     -0.0142      4.4714
-------------------------------------------------------------------------------
    4 Ge    x       4.0989      0.2458     -0.0737
            y      -0.0335      3.9919     -0.0363
            z       0.7930      0.1245      4.2303
-------------------------------------------------------------------------------
    5 Ge    x       4.2094      0.2943     -0.4706
            y      -0.0842      4.0033      0.0871
            z      -0.3149     -0.0756      3.9845
-------------------------------------------------------------------------------
    6 Ge    x       4.3763      0.2256     -0.0950
            y      -0.0833      3.9354      0.0221
            z       0.6331      0.1654      3.6319
-------------------------------------------------------------------------------
    7 Ge    x       4.3625      0.2189      0.0637
            y      -0.0735      3.9490      0.0291
            z      -0.6812     -0.0731      3.6249
-------------------------------------------------------------------------------
    8 Ge    x       4.1887      0.2955      0.3923
            y      -0.1430      3.9925      0.0312
            z       0.2866      0.0411      3.9746
-------------------------------------------------------------------------------
    9 Ge    x       3.8966      0.1694     -0.2477
            y       0.4798      4.1559     -0.0971
            z      -0.0602     -0.1584      3.5700
-------------------------------------------------------------------------------
   10 Ge    x       3.9304      0.1017      0.1721
            y       0.4683      4.1556      0.1765
            z       0.0629      0.2665      3.5755
-------------------------------------------------------------------------------
   11 Ge    x       3.9687     -0.2728     -0.2661
            y      -0.2399      4.2206      0.0782
            z      -0.0125      0.2064      3.5995
-------------------------------------------------------------------------------
   12 Ge    x       3.9686      0.1309     -0.1818
            y       0.5058      4.1137     -0.0659
            z      -0.1460     -0.1570      3.6110
-------------------------------------------------------------------------------
   13 Ge    x       3.8792      0.1447      0.2089
            y       0.4381      4.2065      0.1719
            z       0.0211      0.2583      3.5158
-------------------------------------------------------------------------------
   14 Ge    x       3.9869     -0.2395     -0.3262
            y      -0.2775      4.1420      0.1061
            z      -0.0659      0.1649      3.5093
-------------------------------------------------------------------------------
   15 Ge    x       3.9762      0.1174     -0.2671
            y       0.4305      4.1972     -0.1859
            z      -0.0896     -0.2614      3.4580
-------------------------------------------------------------------------------
   16 Ge    x       4.0049      0.1441      0.2938
            y       0.4637      4.1283      0.0819
            z       0.1475      0.1317      3.4716
-------------------------------------------------------------------------------
   17 Ge    x       4.0502     -0.2321     -0.3359
            y      -0.2349      4.1499      0.1260
            z      -0.0884      0.2075      3.4032
-------------------------------------------------------------------------------
   18 Ge    x       3.9597      0.1945     -0.3395
            y       0.4711      4.1410     -0.0523
            z      -0.0882     -0.1320      3.4589
-------------------------------------------------------------------------------
   19 Ge    x       4.0068      0.1158      0.2101
            y       0.4534      4.1629      0.1676
            z       0.1134      0.2491      3.4634
-------------------------------------------------------------------------------
   20 Ge    x       4.0698     -0.2961      0.3082
            y      -0.2915      4.1734     -0.0525
            z       0.0456     -0.1303      3.4310
-------------------------------------------------------------------------------
   21 Si    x       3.6823     -0.2045      0.2763
            y      -0.2058      3.8598     -0.1011
            z       0.1179     -0.2048      3.0611
-------------------------------------------------------------------------------
   22 Si    x       3.7171     -0.2571      0.1959
            y      -0.2433      3.9657     -0.0566
            z       0.0055     -0.2466      3.3204
-------------------------------------------------------------------------------
   23 Si    x       3.7256     -0.2527      0.3055
            y      -0.1818      3.9486     -0.0786
            z       0.0101     -0.2135      3.2475
-------------------------------------------------------------------------------
   24 Si    x       3.7278     -0.2425     -0.2506
            y      -0.1948      3.9494      0.0780
            z      -0.1187      0.2623      3.0056
-------------------------------------------------------------------------------
   25 O1    x      -2.0096     -0.9105      0.3423
            y      -0.9073     -2.5141      0.3086
            z       0.4297      0.3466     -1.5993
-------------------------------------------------------------------------------
   26 O1    x      -1.9589     -0.8748     -0.5086
            y      -0.8308     -2.6314     -0.4878
            z      -0.4670     -0.5107     -1.6389
-------------------------------------------------------------------------------
   27 O1    x      -2.1679      0.8883      0.5210
            y       0.9448     -2.3643     -0.5487
            z       0.4713     -0.5514     -1.6658
-------------------------------------------------------------------------------
   28 O3    x      -2.0251      0.9032     -0.3286
            y       0.9471     -2.2551      0.3837
            z      -0.4203      0.4260     -1.5082
-------------------------------------------------------------------------------
   29 O1    x      -2.0591     -0.8960      0.5139
            y      -0.8478     -2.5282      0.4998
            z       0.4897      0.5045     -1.6171
-------------------------------------------------------------------------------
   30 O1    x      -1.8918     -0.8785     -0.3280
            y      -0.8511     -2.6564     -0.3140
            z      -0.4088     -0.3679     -1.6013
-------------------------------------------------------------------------------
   31 O1    x      -2.1446      0.8997      0.3127
            y       0.9721     -2.3220     -0.3661
            z       0.3990     -0.3859     -1.6383
-------------------------------------------------------------------------------
   32 O3    x      -2.0350      0.9136     -0.5093
            y       0.9385     -2.3367      0.5403
            z      -0.4690      0.5627     -1.5503
-------------------------------------------------------------------------------
   33 O1    x      -2.1475     -0.2052      0.9313
            y      -0.0843     -1.2664      0.1157
            z       1.1775      0.2105     -3.0535
-------------------------------------------------------------------------------
   34 O1    x      -2.0601     -0.2405     -0.9555
            y      -0.0832     -1.3096     -0.1657
            z      -1.1404     -0.3502     -3.1677
-------------------------------------------------------------------------------
   35 O1    x      -2.1910     -0.2136     -0.8224
            y      -0.0972     -1.3361     -0.1544
            z      -0.8139     -0.2169     -2.5667
-------------------------------------------------------------------------------
   36 O1    x      -2.1181     -0.2176      0.7947
            y      -0.0744     -1.3129      0.1629
            z       0.7795      0.2452     -2.7573
-------------------------------------------------------------------------------
   37 O1    x      -2.0978     -0.2382     -0.7979
            y      -0.1011     -1.3102     -0.1557
            z      -0.8007     -0.2195     -2.7878
-------------------------------------------------------------------------------
   38 O1    x      -2.2163     -0.1961      0.8724
            y      -0.0795     -1.3336      0.1174
            z       0.8731      0.1742     -2.5608
-------------------------------------------------------------------------------
   39 O1    x      -1.9708     -0.8530      0.5322
            y      -0.7928     -2.6697      0.4985
            z       0.4602      0.5068     -1.5530
-------------------------------------------------------------------------------
   40 O1    x      -2.1153     -0.9143     -0.3544
            y      -0.8765     -2.5019     -0.2831
            z      -0.4120     -0.3137     -1.4657
-------------------------------------------------------------------------------
   41 O1    x      -2.1987      0.9167      0.2858
            y       0.9708     -2.3324     -0.3391
            z       0.3589     -0.3664     -1.5117
-------------------------------------------------------------------------------
   42 O3    x      -2.0054      0.8681     -0.5295
            y       0.8583     -2.3064      0.5731
            z      -0.4464      0.5659     -1.5066
-------------------------------------------------------------------------------
   43 O1    x      -2.0313     -0.9023      0.3540
            y      -0.8686     -2.5366      0.3034
            z       0.4001      0.3352     -1.4869
-------------------------------------------------------------------------------
   44 O1    x      -2.0123     -0.8514     -0.5243
            y      -0.7563     -2.6527     -0.5279
            z      -0.4646     -0.5248     -1.5286
-------------------------------------------------------------------------------
   45 O3    x      -2.0635      0.9315      0.5811
            y       0.9288     -2.3445     -0.6062
            z       0.5089     -0.5903     -1.5109
-------------------------------------------------------------------------------
   46 O1    x      -2.1918      0.9014     -0.2672
            y       0.9585     -2.3400      0.3201
            z      -0.3359      0.3398     -1.4905
-------------------------------------------------------------------------------
   47 O1    x      -2.2462     -0.1970     -0.6816
            y      -0.0676     -1.3554     -0.1560
            z      -0.4557     -0.1474     -2.2266
-------------------------------------------------------------------------------
   48 O1    x      -2.2225     -0.2281      0.7193
            y      -0.1016     -1.3687      0.1523
            z       0.4839      0.1361     -2.2483
-------------------------------------------------------------------------------
   49 O1    x      -1.3336     -0.1468      0.0900
            y      -0.2484     -3.1442     -0.0228
            z       0.0389     -0.0057     -1.4095
-------------------------------------------------------------------------------
   50 O3    x      -1.2911     -0.1906     -0.0916
            y      -0.2925     -2.9841     -0.1455
            z      -0.0646     -0.1443     -1.3184
-------------------------------------------------------------------------------
   51 O1    x      -1.3591     -0.1254      0.0931
            y      -0.2571     -3.1483     -0.0002
            z       0.0591     -0.0079     -1.3932
-------------------------------------------------------------------------------
   52 O3    x      -1.2735     -0.2220     -0.0915
            y      -0.3375     -2.9621     -0.0935
            z      -0.0667     -0.1317     -1.3360
-------------------------------------------------------------------------------
   53 O3    x      -2.9332      0.1386      0.1281
            y       0.0716     -1.4343      0.0000
            z       0.1130      0.0381     -1.1597
-------------------------------------------------------------------------------
   54 O1    x      -3.0344      0.2438      0.0714
            y       0.1712     -1.5608     -0.0495
            z       0.0281     -0.0755     -1.2281
-------------------------------------------------------------------------------
   55 O1    x      -3.0600      0.2717     -0.0187
            y       0.2220     -1.5804     -0.0033
            z      -0.0189     -0.0417     -1.2091
-------------------------------------------------------------------------------
   56 O3    x      -2.9250      0.1304      0.0256
            y       0.0588     -1.4013      0.0413
            z       0.0780      0.0684     -1.1786
-------------------------------------------------------------------------------
   57 O1    x      -1.4805     -0.0438     -0.1368
            y      -0.1090     -1.4324      0.0796
            z      -0.1130      0.0655     -2.7205
-------------------------------------------------------------------------------
   58 O1    x      -1.5050     -0.0485     -0.0491
            y      -0.1129     -1.4290      0.0651
            z      -0.0228      0.0411     -2.6906
-------------------------------------------------------------------------------
   59 O1    x      -1.5123      0.1177     -0.0195
            y       0.1246     -1.4263      0.0096
            z      -0.0158     -0.0026     -2.6840
-------------------------------------------------------------------------------
   60 O2    x      -1.2214      0.0732      0.0377
            y       0.0672     -1.2721     -0.0167
            z       0.0340     -0.0194     -2.1228
-------------------------------------------------------------------------------
   61 O1    x      -1.4736     -0.0280      0.0027
            y      -0.0921     -1.4104     -0.0105
            z       0.0021     -0.0096     -2.7905
-------------------------------------------------------------------------------
   62 O1    x      -1.4754     -0.0676      0.0601
            y      -0.1331     -1.4556     -0.0328
            z       0.0565     -0.0268     -2.6605
-------------------------------------------------------------------------------
   63 O3    x      -1.3991      0.0958      0.0449
            y       0.1025     -1.3478     -0.0136
            z       0.0215      0.0150     -2.5645
-------------------------------------------------------------------------------
   64 O3    x      -1.3665      0.0790      0.0491
            y       0.0799     -1.3602      0.0183
            z       0.0403      0.0246     -2.6068
-------------------------------------------------------------------------------
   65 O3    x      -1.3254     -0.2510      0.1202
            y      -0.3337     -2.9804      0.1337
            z       0.0909      0.1516     -1.2969
-------------------------------------------------------------------------------
   66 O1    x      -1.3811     -0.1329     -0.1105
            y      -0.2390     -3.1277     -0.0026
            z      -0.0596      0.0147     -1.3526
-------------------------------------------------------------------------------
   67 O1    x      -1.3766     -0.1680      0.1087
            y      -0.2873     -3.0999     -0.0611
            z       0.0506     -0.0103     -1.3873
-------------------------------------------------------------------------------
   68 O3    x      -1.3352     -0.2107     -0.1168
            y      -0.3126     -2.9856     -0.1336
            z      -0.0791     -0.1366     -1.2622
-------------------------------------------------------------------------------
   69 O1    x      -3.0937      0.2857     -0.0434
            y       0.2071     -1.5670      0.0269
            z      -0.0275      0.0518     -1.1869
-------------------------------------------------------------------------------
   70 O3    x      -2.9558      0.1613     -0.1474
            y       0.0827     -1.4142     -0.0261
            z      -0.1419     -0.0609     -1.1589
-------------------------------------------------------------------------------
   71 O1    x      -3.0662      0.2395      0.0886
            y       0.1735     -1.5583     -0.0644
            z       0.0328     -0.0854     -1.2077
-------------------------------------------------------------------------------
   72 O3    x      -2.9870      0.1748      0.0931
            y       0.1173     -1.4181     -0.0085
            z       0.0791      0.0257     -1.1349
-------------------------------------------------------------------------------




  Elastic Constant Matrix: (Units=GPa)

-------------------------------------------------------------------------------
  Indices      1         2         3         4         5         6    
-------------------------------------------------------------------------------
       1     24.4146    7.9465    8.0148   -0.6016   -1.1272    7.0534
       2      7.9465   34.4433    5.9072   -0.7852   -0.3949    9.2255
       3      8.0148    5.9072   13.0620    0.0653   -0.3630    3.9384
       4     -0.6016   -0.7852    0.0653    8.0300    2.4894   -0.4545
       5     -1.1272   -0.3949   -0.3630    2.4894   14.1230    0.5916
       6      7.0534    9.2255    3.9384   -0.4545    0.5916   18.3200
-------------------------------------------------------------------------------


  Elastic Compliance Matrix: (Units=1/GPa)

-------------------------------------------------------------------------------
  Indices      1         2         3         4         5         6    
-------------------------------------------------------------------------------
       1    0.055659 -0.004385 -0.028077  0.002043  0.003793 -0.013257
       2   -0.004385  0.035455 -0.009062  0.002220  0.000611 -0.014183
       3   -0.028077 -0.009062  0.099817 -0.004503  0.001126 -0.006234
       4    0.002043  0.002220 -0.004503  0.132354 -0.023350  0.003102
       5    0.003793  0.000611  0.001126 -0.023350  0.075482 -0.005027
       6   -0.013257 -0.014183 -0.006234  0.003102 -0.005027  0.068411
-------------------------------------------------------------------------------

  Mechanical properties :

-------------------------------------------------------------------------------
  Convention :                    Reuss         Voigt         Hill
-------------------------------------------------------------------------------
  Bulk  Modulus (GPa)     =       9.26915      12.85079      11.05997
  Shear Modulus (GPa)     =       8.52972      11.43137       9.98055
-------------------------------------------------------------------------------
  Velocity S-wave (km/s)  =       1.76782       2.04653       1.91226
  Velocity P-wave (km/s)  =       2.75009       3.20823       2.98795
-------------------------------------------------------------------------------
  Compressibility (1/GPa) =    0.10788470
-------------------------------------------------------------------------------
  Stress axis :                     x             y             z
-------------------------------------------------------------------------------
  Youngs Moduli (GPa)     =      17.96659      28.20449      10.01833
-------------------------------------------------------------------------------
  Poissons Ratio (x)      =                     0.12368       0.28128
  Poissons Ratio (y)      =       0.07878                     0.09078
  Poissons Ratio (z)      =       0.50444       0.25558
-------------------------------------------------------------------------------


  Piezoelectric Strain Matrix: (Units=C/m**2)

-------------------------------------------------------------------------------
  Indices      1         2         3         4         5         6    
-------------------------------------------------------------------------------
       x     0.06393   0.43926   0.26242   0.04139  -0.08036   0.09364
       y    -0.19862  -0.08982  -0.40003   0.01748   0.31165  -0.33359
       z     0.33743   0.27157  -0.14060   0.13006  -0.36304   0.51018
-------------------------------------------------------------------------------


  Piezoelectric Stress Matrix: (Units=10**-11 C/N)

-------------------------------------------------------------------------------
  Indices      1         2         3         4         5         6    
-------------------------------------------------------------------------------
       x    -0.71976   1.16306   1.95580   0.75684  -0.66966  -0.17749
       y     0.62110   0.62719  -3.11880  -0.48019   2.35341  -1.79333
       z     1.36626   0.22542  -3.01440   2.91992  -3.17168   2.96819
-------------------------------------------------------------------------------


  Static dielectric constant tensor : 

-------------------------------------------------------------------------------
              x         y         z
-------------------------------------------------------------------------------
       x     5.22417   0.08228  -0.01800
       y     0.08228   6.36790   0.00292
       z    -0.01800   0.00292   4.34959
--------------------------------------------------------------------------------

  High frequency dielectric constant tensor : 

-------------------------------------------------------------------------------
              x         y         z
-------------------------------------------------------------------------------
       x     1.54674   0.00142  -0.00051
       y     0.00142   1.55423   0.00100
       z    -0.00051   0.00100   1.50459
-------------------------------------------------------------------------------

  Static refractive indices : 

-------------------------------------------------------------------------------
    1 =    2.08548      2 =    2.28444      3 =    2.52464
-------------------------------------------------------------------------------

  High frequency refractive indices : 

-------------------------------------------------------------------------------
    1 =    1.22660      2 =    1.24358      3 =    1.24680
-------------------------------------------------------------------------------


  Time to end of optimisation =      13.6753 seconds


  Peak dynamic memory used =       5.01 MB 


  Timing analysis for GULP :

--------------------------------------------------------------------------------
  Task / Subroutine                                          Time (Seconds)
--------------------------------------------------------------------------------
  Calculation of reciprocal space energy and derivatives          0.8346
  Calculation of real space energy and derivatives                8.7273
  Calculation of three-body energy and derivatives                0.1175
  Calculation and manipulation of Hessian matrix                  4.3301
  Calculation of matrix inversion                                 0.0415
  Global summation overhead                                       0.0002
--------------------------------------------------------------------------------
  Total CPU time                                                 13.6753
--------------------------------------------------------------------------------


  Dump file written as c00135.vasp.grs
  CIF file written as c00135.vasp.cif


  Job Finished at 12:13.24 31st October    2025                               

