********************************************************************************
*                       GENERAL UTILITY LATTICE PROGRAM                        *
*                                 Julian Gale                                  *
*                       Curtin Institute for Computation                       *
*                    School of Molecular and Life Sciences                     *
*                    Curtin University, Western Australia                      *
********************************************************************************
* Version = 6.1.2 * Last modified =   3rd November 2022                        *
********************************************************************************
*  optimise     - perform optimisation run                                     *
*  conp         - constant pressure calculation                                *
*  property     - calculate properties for final geometry                      *
********************************************************************************

  Job Started  at 12:30.35 31st October    2025                               

  Number of CPUs =     1


  Total number of configurations input =      1

********************************************************************************
*  Input for Configuration =   1 : c00207.vasp                                 *
********************************************************************************

  Formula = Ge20Si4O48                                                  

  Number of irreducible atoms/shells =     120


  Total number atoms/shells =     120

  Dimensionality = 3               :  Bulk   



  Cartesian lattice vectors (Angstroms) :

       17.182800    0.000000    0.000000
        0.000000    7.513760    0.000000
        0.000000    0.000000   10.447700

  Cell parameters (Angstroms/Degrees):

  a =      17.1828    alpha =  90.0000
  b =       7.5138    beta  =  90.0000
  c =      10.4477    gamma =  90.0000

  Initial cell volume =        1348.875752 Angs**3

  Temperature of configuration =   0.00     K 

  Pressure of configuration =         0.000 GPa 

  Fractional coordinates of asymmetric unit :

--------------------------------------------------------------------------------
   No.  Atomic       x           y          z         Charge      Occupancy
        Label      (Frac)      (Frac)     (Frac)        (e)         (Frac)  
--------------------------------------------------------------------------------
      1 Ge    c    0.052090    0.000000    0.372270     4.00000    1.000000    
      2 Ge    c    0.447910 *  0.000000 *  0.372270 *   4.00000    1.000000    
      3 Ge    c    0.947910 *  0.000000 *  0.627730 *   4.00000    1.000000    
      4 Ge    c    0.552090 *  0.000000 *  0.627730 *   4.00000    1.000000    
      5 Ge    c    0.556730 *  0.000000 *  0.122130 *   4.00000    1.000000    
      6 Ge    c    0.943270 *  0.000000 *  0.122130 *   4.00000    1.000000    
      7 Ge    c    0.443270 *  0.000000 *  0.877870 *   4.00000    1.000000    
      8 Ge    c    0.056730 *  0.000000 *  0.877870 *   4.00000    1.000000    
      9 Ge    c    0.160190 *  0.293910 *  0.273440 *   4.00000    1.000000    
     10 Ge    c    0.339810 *  0.706090 *  0.273440 *   4.00000    1.000000    
     11 Ge    c    0.839810 *  0.293910 *  0.726560 *   4.00000    1.000000    
     12 Ge    c    0.660190 *  0.293910 *  0.726560 *   4.00000    1.000000    
     13 Ge    c    0.160190 *  0.706090 *  0.273440 *   4.00000    1.000000    
     14 Ge    c    0.339810 *  0.293910 *  0.273440 *   4.00000    1.000000    
     15 Ge    c    0.660660 *  0.294090 *  0.017440 *   4.00000    1.000000    
     16 Ge    c    0.839340 *  0.705910 *  0.017440 *   4.00000    1.000000    
     17 Ge    c    0.339340 *  0.294090 *  0.982560 *   4.00000    1.000000    
     18 Ge    c    0.339340 *  0.705910 *  0.982560 *   4.00000    1.000000    
     19 Ge    c    0.160660 *  0.294090 *  0.982560 *   4.00000    1.000000    
     20 Ge    c    0.660660 *  0.705910 *  0.017440 *   4.00000    1.000000    
     21 Si    c    0.660190 *  0.706090 *  0.726560 *   4.00000    1.000000    
     22 Si    c    0.839810 *  0.706090 *  0.726560 *   4.00000    1.000000    
     23 Si    c    0.160660 *  0.705910 *  0.982560 *   4.00000    1.000000    
     24 Si    c    0.839340 *  0.294090 *  0.017440 *   4.00000    1.000000    
     25 O1    c    0.106570 *  0.174340 *  0.366200 *   1.73396    1.000000    
     26 O1    c    0.393430 *  0.825660 *  0.366200 *   1.73396    1.000000    
     27 O1    c    0.893430 *  0.174340 *  0.633800 *   1.73396    1.000000    
     28 O3    c    0.606570 *  0.825660 *  0.633800 *   1.33043    1.000000    
     29 O3    c    0.893430 *  0.825660 *  0.633800 *   1.33043    1.000000    
     30 O1    c    0.606570 *  0.174340 *  0.633800 *   1.73396    1.000000    
     31 O1    c    0.106570 *  0.825660 *  0.366200 *   1.73396    1.000000    
     32 O1    c    0.393430 *  0.174340 *  0.366200 *   1.73396    1.000000    
     33 O1    c    0.000000 *  0.000000 *  0.500000 *   1.73396    1.000000    
     34 O1    c    0.500000 *  0.000000 *  0.500000 *   1.73396    1.000000    
     35 O1    c    0.994520 *  0.000000 *  0.250840 *   1.73396    1.000000    
     36 O1    c    0.505480 *  0.000000 *  0.250840 *   1.73396    1.000000    
     37 O1    c    0.005480 *  0.000000 *  0.749160 *   1.73396    1.000000    
     38 O1    c    0.494520 *  0.000000 *  0.749160 *   1.73396    1.000000    
     39 O1    c    0.610230 *  0.175520 *  0.115390 *   1.73396    1.000000    
     40 O1    c    0.889770 *  0.824480 *  0.115390 *   1.73396    1.000000    
     41 O1    c    0.389770 *  0.175520 *  0.884610 *   1.73396    1.000000    
     42 O3    c    0.110230 *  0.824480 *  0.884610 *   1.33043    1.000000    
     43 O1    c    0.389770 *  0.824480 *  0.884610 *   1.73396    1.000000    
     44 O1    c    0.110230 *  0.175520 *  0.884610 *   1.73396    1.000000    
     45 O1    c    0.610230 *  0.824480 *  0.115390 *   1.73396    1.000000    
     46 O3    c    0.889770 *  0.175520 *  0.115390 *   1.33043    1.000000    
     47 O1    c    0.500000 *  0.000000 *  0.000000 *   1.73396    1.000000    
     48 O1    c    0.000000 *  0.000000 *  0.000000 *   1.73396    1.000000    
     49 O1    c    0.151750 *  0.500000 *  0.313330 *   1.73396    1.000000    
     50 O1    c    0.348250 *  0.500000 *  0.313330 *   1.73396    1.000000    
     51 O3    c    0.848250 *  0.500000 *  0.686670 *   1.33043    1.000000    
     52 O3    c    0.651750 *  0.500000 *  0.686670 *   1.33043    1.000000    
     53 O1    c    0.250000 *  0.234950 *  0.285720 *   1.73396    1.000000    
     54 O1    c    0.250000 *  0.765050 *  0.285720 *   1.73396    1.000000    
     55 O1    c    0.750000 *  0.234950 *  0.714280 *   1.73396    1.000000    
     56 O2    c    0.750000 *  0.765050 *  0.714280 *   0.87073    1.000000    
     57 O1    c    0.131410 *  0.268650 *  0.127790 *   1.73396    1.000000    
     58 O1    c    0.368590 *  0.731350 *  0.127790 *   1.73396    1.000000    
     59 O3    c    0.868590 *  0.268650 *  0.872210 *   1.33043    1.000000    
     60 O3    c    0.631410 *  0.731350 *  0.872210 *   1.33043    1.000000    
     61 O3    c    0.868590 *  0.731350 *  0.872210 *   1.33043    1.000000    
     62 O1    c    0.631410 *  0.268650 *  0.872210 *   1.73396    1.000000    
     63 O3    c    0.131410 *  0.731350 *  0.127790 *   1.33043    1.000000    
     64 O1    c    0.368590 *  0.268650 *  0.127790 *   1.73396    1.000000    
     65 O1    c    0.653920 *  0.500000 *  0.058200 *   1.73396    1.000000    
     66 O3    c    0.846080 *  0.500000 *  0.058200 *   1.33043    1.000000    
     67 O1    c    0.346080 *  0.500000 *  0.941800 *   1.73396    1.000000    
     68 O3    c    0.153920 *  0.500000 *  0.941800 *   1.33043    1.000000    
     69 O3    c    0.750000 *  0.231060 *  0.027050 *   1.33043    1.000000    
     70 O1    c    0.750000 *  0.768940 *  0.027050 *   1.73396    1.000000    
     71 O1    c    0.250000 *  0.231060 *  0.972950 *   1.73396    1.000000    
     72 O3    c    0.250000 *  0.768940 *  0.972950 *   1.33043    1.000000    
     73 O1    s    0.106570 *  0.174340 *  0.366200 *  -3.73396    1.000000    
     74 O1    s    0.393430 *  0.825660 *  0.366200 *  -3.73396    1.000000    
     75 O1    s    0.893430 *  0.174340 *  0.633800 *  -3.73396    1.000000    
     76 O3    s    0.606570 *  0.825660 *  0.633800 *  -3.33043    1.000000    
     77 O3    s    0.893430 *  0.825660 *  0.633800 *  -3.33043    1.000000    
     78 O1    s    0.606570 *  0.174340 *  0.633800 *  -3.73396    1.000000    
     79 O1    s    0.106570 *  0.825660 *  0.366200 *  -3.73396    1.000000    
     80 O1    s    0.393430 *  0.174340 *  0.366200 *  -3.73396    1.000000    
     81 O1    s    0.000000 *  0.000000 *  0.500000 *  -3.73396    1.000000    
     82 O1    s    0.500000 *  0.000000 *  0.500000 *  -3.73396    1.000000    
     83 O1    s    0.994520 *  0.000000 *  0.250840 *  -3.73396    1.000000    
     84 O1    s    0.505480 *  0.000000 *  0.250840 *  -3.73396    1.000000    
     85 O1    s    0.005480 *  0.000000 *  0.749160 *  -3.73396    1.000000    
     86 O1    s    0.494520 *  0.000000 *  0.749160 *  -3.73396    1.000000    
     87 O1    s    0.610230 *  0.175520 *  0.115390 *  -3.73396    1.000000    
     88 O1    s    0.889770 *  0.824480 *  0.115390 *  -3.73396    1.000000    
     89 O1    s    0.389770 *  0.175520 *  0.884610 *  -3.73396    1.000000    
     90 O3    s    0.110230 *  0.824480 *  0.884610 *  -3.33043    1.000000    
     91 O1    s    0.389770 *  0.824480 *  0.884610 *  -3.73396    1.000000    
     92 O1    s    0.110230 *  0.175520 *  0.884610 *  -3.73396    1.000000    
     93 O1    s    0.610230 *  0.824480 *  0.115390 *  -3.73396    1.000000    
     94 O3    s    0.889770 *  0.175520 *  0.115390 *  -3.33043    1.000000    
     95 O1    s    0.500000 *  0.000000 *  0.000000 *  -3.73396    1.000000    
     96 O1    s    0.000000 *  0.000000 *  0.000000 *  -3.73396    1.000000    
     97 O1    s    0.151750 *  0.500000 *  0.313330 *  -3.73396    1.000000    
     98 O1    s    0.348250 *  0.500000 *  0.313330 *  -3.73396    1.000000    
     99 O3    s    0.848250 *  0.500000 *  0.686670 *  -3.33043    1.000000    
    100 O3    s    0.651750 *  0.500000 *  0.686670 *  -3.33043    1.000000    
    101 O1    s    0.250000 *  0.234950 *  0.285720 *  -3.73396    1.000000    
    102 O1    s    0.250000 *  0.765050 *  0.285720 *  -3.73396    1.000000    
    103 O1    s    0.750000 *  0.234950 *  0.714280 *  -3.73396    1.000000    
    104 O2    s    0.750000 *  0.765050 *  0.714280 *  -2.87073    1.000000    
    105 O1    s    0.131410 *  0.268650 *  0.127790 *  -3.73396    1.000000    
    106 O1    s    0.368590 *  0.731350 *  0.127790 *  -3.73396    1.000000    
    107 O3    s    0.868590 *  0.268650 *  0.872210 *  -3.33043    1.000000    
    108 O3    s    0.631410 *  0.731350 *  0.872210 *  -3.33043    1.000000    
    109 O3    s    0.868590 *  0.731350 *  0.872210 *  -3.33043    1.000000    
    110 O1    s    0.631410 *  0.268650 *  0.872210 *  -3.73396    1.000000    
    111 O3    s    0.131410 *  0.731350 *  0.127790 *  -3.33043    1.000000    
    112 O1    s    0.368590 *  0.268650 *  0.127790 *  -3.73396    1.000000    
    113 O1    s    0.653920 *  0.500000 *  0.058200 *  -3.73396    1.000000    
    114 O3    s    0.846080 *  0.500000 *  0.058200 *  -3.33043    1.000000    
    115 O1    s    0.346080 *  0.500000 *  0.941800 *  -3.73396    1.000000    
    116 O3    s    0.153920 *  0.500000 *  0.941800 *  -3.33043    1.000000    
    117 O3    s    0.750000 *  0.231060 *  0.027050 *  -3.33043    1.000000    
    118 O1    s    0.750000 *  0.768940 *  0.027050 *  -3.73396    1.000000    
    119 O1    s    0.250000 *  0.231060 *  0.972950 *  -3.73396    1.000000    
    120 O3    s    0.250000 *  0.768940 *  0.972950 *  -3.33043    1.000000    
--------------------------------------------------------------------------------



********************************************************************************
*  General input information                                                   *
********************************************************************************

  Species output for all configurations : 

--------------------------------------------------------------------------------
  Species    Type    Atomic    Atomic    Charge       Radii (Angs)     Library
                     Number     Mass       (e)     Cova   Ionic  VDW   Symbol
--------------------------------------------------------------------------------
    Ge       Core       32      72.61   4.000000   1.170  0.000  1.750 Ge       
    Si       Core       14      28.09   4.000000   1.200  0.000  2.100 Si       
    O1       Core        8      16.00   1.733957   0.730  0.000  1.360 O1       
    O2       Core        8      16.00   0.870733   0.730  0.000  1.360 O2       
    O3       Core        8      16.00   1.330431   0.730  0.000  1.360 O3       
    O1       Shell       8       0.00  -3.733957   0.730  0.000  0.000 O1       
    O2       Shell       8       0.00  -2.870733   0.730  0.000  0.000 O2       
    O3       Shell       8       0.00  -3.330431   0.730  0.000  0.000 O3       
--------------------------------------------------------------------------------


  Lattice summation method               =    Ewald          (3-D)
                                         =    Parry          (2-D)
                                         =    Saunders et al (1-D)
  Accuracy factor for lattice sums       =   12.000


  Analytic derivatives to be used

  Time limit = Infinity

  Maximum range for interatomic potentials =    100000.000000 Angstroms

  General interatomic potentials :

--------------------------------------------------------------------------------
Atom  Types   Potential      Parameter       Value         Units   Cutoffs(Ang)
  1     2                                                            Min /  Max 
--------------------------------------------------------------------------------
Si   c O1   s Buckingham    Buckingham A     1315.2478    eV        0.000 16.000
                            Buckingham rho  0.31775900    Ang       
                            Buckingham C     10.141118    eV*Ang^6  
--------------------------------------------------------------------------------
Si   c O2   s Buckingham    Buckingham A     1315.2478    eV        0.000 16.000
                            Buckingham rho  0.31775900    Ang       
                            Buckingham C     10.141118    eV*Ang^6  
--------------------------------------------------------------------------------
Si   c O3   s Buckingham    Buckingham A     1315.2478    eV        0.000 16.000
                            Buckingham rho  0.31775900    Ang       
                            Buckingham C     10.141118    eV*Ang^6  
--------------------------------------------------------------------------------
Ge   c O1   s Buckingham    Buckingham A     1497.3996    eV        0.000 16.000
                            Buckingham rho  0.32564600    Ang       
                            Buckingham C     16.808599    eV*Ang^6  
--------------------------------------------------------------------------------
Ge   c O2   s Buckingham    Buckingham A     1497.3996    eV        0.000 16.000
                            Buckingham rho  0.32564600    Ang       
                            Buckingham C     16.808599    eV*Ang^6  
--------------------------------------------------------------------------------
Ge   c O3   s Buckingham    Buckingham A     1497.3996    eV        0.000 16.000
                            Buckingham rho  0.32564600    Ang       
                            Buckingham C     16.808599    eV*Ang^6  
--------------------------------------------------------------------------------
O1   s O1   s Buckingham    Buckingham A     22764.000    eV        0.000 16.000
                            Buckingham rho  0.14900000    Ang       
                            Buckingham C     10.937044    eV*Ang^6  
--------------------------------------------------------------------------------
O1   s O2   s Buckingham    Buckingham A     22764.000    eV        0.000 16.000
                            Buckingham rho  0.14900000    Ang       
                            Buckingham C     10.937044    eV*Ang^6  
--------------------------------------------------------------------------------
O1   s O3   s Buckingham    Buckingham A     22764.000    eV        0.000 16.000
                            Buckingham rho  0.14900000    Ang       
                            Buckingham C     10.937044    eV*Ang^6  
--------------------------------------------------------------------------------
O2   s O2   s Buckingham    Buckingham A     22764.000    eV        0.000 16.000
                            Buckingham rho  0.14900000    Ang       
                            Buckingham C     10.937044    eV*Ang^6  
--------------------------------------------------------------------------------
O2   s O3   s Buckingham    Buckingham A     22764.000    eV        0.000 16.000
                            Buckingham rho  0.14900000    Ang       
                            Buckingham C     10.937044    eV*Ang^6  
--------------------------------------------------------------------------------
O3   s O3   s Buckingham    Buckingham A     22764.000    eV        0.000 16.000
                            Buckingham rho  0.14900000    Ang       
                            Buckingham C     10.937044    eV*Ang^6  
--------------------------------------------------------------------------------
O1   c O1   s Spring (c-s)  Spring k 2       180.31577    eV*Ang^-2 0.000  0.800
                            Spring k 4       0.0000000    eV*Ang^-4 
--------------------------------------------------------------------------------
O2   c O2   s Spring (c-s)  Spring k 2       75.969800    eV*Ang^-2 0.000  0.800
                            Spring k 4       0.0000000    eV*Ang^-4 
--------------------------------------------------------------------------------
O3   c O3   s Spring (c-s)  Spring k 2       128.14270    eV*Ang^-2 0.000  0.800
                            Spring k 4       0.0000000    eV*Ang^-4 
--------------------------------------------------------------------------------

  General Three-body potentials :

--------------------------------------------------------------------------------
  Atoms       Potential      Parameter       Value         Units   Cutoffs(Ang)
  1 / 2 / 3                                                          Min /  Max 
--------------------------------------------------------------------------------
Si    core    Harmonic      Three-body cnst  1.2614000    eV*rad^-2 0.000  1.900
O1    shel                  Three-body angl  109.47000    degrees   0.000  1.900
O1    shel                  Three-body k4    0.0000000    eV*rad^-4 0.000  3.500
                            Three-body k3    0.0000000    eV*rad^-3 
--------------------------------------------------------------------------------
Si    core    Harmonic      Three-body cnst  1.2614000    eV*rad^-2 0.000  1.900
O1    shel                  Three-body angl  109.47000    degrees   0.000  1.900
õ(1   shel                  Three-body k4    0.0000000    eV*rad^-4 0.000  3.500
                            Three-body k3    0.0000000    eV*rad^-3 
--------------------------------------------------------------------------------
Si    core    Harmonic      Three-body cnst  1.2614000    eV*rad^-2 0.000  1.900
õ(1   shel                  Three-body angl  109.47000    degrees   0.000  1.900
õ(1   shel                  Three-body k4    0.0000000    eV*rad^-4 0.000  3.500
                            Three-body k3    0.0000000    eV*rad^-3 
--------------------------------------------------------------------------------
Si    core    Harmonic      Three-body cnst  1.2614000    eV*rad^-2 0.000  1.900
O1    shel                  Three-body angl  109.47000    degrees   0.000  1.900
O2    shel                  Three-body k4    0.0000000    eV*rad^-4 0.000  3.500
                            Three-body k3    0.0000000    eV*rad^-3 
--------------------------------------------------------------------------------
Si    core    Harmonic      Three-body cnst  1.2614000    eV*rad^-2 0.000  1.900
O1    shel                  Three-body angl  109.47000    degrees   0.000  1.900
õ(2   shel                  Three-body k4    0.0000000    eV*rad^-4 0.000  3.500
                            Three-body k3    0.0000000    eV*rad^-3 
--------------------------------------------------------------------------------
Si    core    Harmonic      Three-body cnst  1.2614000    eV*rad^-2 0.000  1.900
O2    shel                  Three-body angl  109.47000    degrees   0.000  1.900
õ(1   shel                  Three-body k4    0.0000000    eV*rad^-4 0.000  3.500
                            Three-body k3    0.0000000    eV*rad^-3 
--------------------------------------------------------------------------------
Si    core    Harmonic      Three-body cnst  1.2614000    eV*rad^-2 0.000  1.900
õ(1   shel                  Three-body angl  109.47000    degrees   0.000  1.900
õ(2   shel                  Three-body k4    0.0000000    eV*rad^-4 0.000  3.500
                            Three-body k3    0.0000000    eV*rad^-3 
--------------------------------------------------------------------------------
Si    core    Harmonic      Three-body cnst  1.2614000    eV*rad^-2 0.000  1.900
O2    shel                  Three-body angl  109.47000    degrees   0.000  1.900
O2    shel                  Three-body k4    0.0000000    eV*rad^-4 0.000  3.500
                            Three-body k3    0.0000000    eV*rad^-3 
--------------------------------------------------------------------------------
Si    core    Harmonic      Three-body cnst  1.2614000    eV*rad^-2 0.000  1.900
O2    shel                  Three-body angl  109.47000    degrees   0.000  1.900
õ(2   shel                  Three-body k4    0.0000000    eV*rad^-4 0.000  3.500
                            Three-body k3    0.0000000    eV*rad^-3 
--------------------------------------------------------------------------------
Si    core    Harmonic      Three-body cnst  1.2614000    eV*rad^-2 0.000  1.900
õ(2   shel                  Three-body angl  109.47000    degrees   0.000  1.900
õ(2   shel                  Three-body k4    0.0000000    eV*rad^-4 0.000  3.500
                            Three-body k3    0.0000000    eV*rad^-3 
--------------------------------------------------------------------------------

********************************************************************************
*  Output for configuration   1 : c00207.vasp                                  *
********************************************************************************


  Components of energy : 

--------------------------------------------------------------------------------
  Interatomic potentials     =         896.62540446 eV    
  Three-body potentials      =           0.00000000 eV    
  Monopole - monopole (real) =       -2676.00317478 eV    
  Monopole - monopole (recip)=       -1115.35404472 eV    
  Monopole - monopole (total)=       -3791.35721950 eV    
--------------------------------------------------------------------------------
  Total lattice energy       =       -2894.73181504 eV    
--------------------------------------------------------------------------------
  Total lattice energy       =         -279297.3701 kJ/(mole unit cells)
--------------------------------------------------------------------------------


  Number of variables =      363

  Maximum number of calculations  =          1000
  Maximum Hessian update interval =            10
  Maximum step size               =   0.100000000
  Maximum parameter tolerance     =   0.000010000
  Maximum function  tolerance     =   0.000010000
  Maximum gradient  tolerance     =   0.001000000
  Maximum gradient  component     =   0.010000000

  Symmetry not applied to optimisation

  Cell parameters to be optimised using strains

  Newton-Raphson optimiser to be used

  BFGS hessian update to be used

  Lower half triangular hessian to be used

  Minimiser to switch to RFO
  When gradient norm is less than     0.050000

  Dumpfile to be written after every cycle

  Start of bulk optimisation :

  Cycle:      0 Energy:     -2894.731815  Gnorm:      5.776405  CPU:    0.133
  ** Hessian calculated **
  Cycle:      1 Energy:     -2938.286051  Gnorm:      1.376480  CPU:    0.320
  ** Hessian calculated **
  Cycle:      2 Energy:     -2943.051540  Gnorm:      0.649873  CPU:    0.571
  Cycle:      3 Energy:     -2944.020776  Gnorm:      0.352739  CPU:    0.700
  Cycle:      4 Energy:     -2944.581391  Gnorm:      0.301609  CPU:    0.861
  Cycle:      5 Energy:     -2945.277286  Gnorm:      0.254201  CPU:    1.022
  Cycle:      6 Energy:     -2946.011920  Gnorm:      0.231465  CPU:    1.185
  Cycle:      7 Energy:     -2946.358376  Gnorm:      0.158803  CPU:    1.313
  Cycle:      8 Energy:     -2946.489160  Gnorm:      0.117079  CPU:    1.453
  Cycle:      9 Energy:     -2946.554552  Gnorm:      0.095837  CPU:    1.610
  Cycle:     10 Energy:     -2946.603323  Gnorm:      0.085756  CPU:    1.762
  Cycle:     11 Energy:     -2946.654944  Gnorm:      0.088670  CPU:    1.915
  ** Hessian calculated **
  Cycle:     12 Energy:     -2946.675542  Gnorm:      0.087281  CPU:    2.180
  Cycle:     13 Energy:     -2946.706961  Gnorm:      0.085029  CPU:    2.359
  Cycle:     14 Energy:     -2946.742077  Gnorm:      0.082141  CPU:    2.535
  Cycle:     15 Energy:     -2946.760365  Gnorm:      0.080087  CPU:    2.689
  ** Hessian calculated **
  Cycle:     16 Energy:     -2946.842253  Gnorm:      0.075536  CPU:    2.951
  Cycle:     17 Energy:     -2946.929968  Gnorm:      0.069596  CPU:    3.103
  ** Hessian calculated **
  Cycle:     18 Energy:     -2947.033756  Gnorm:      0.065843  CPU:    3.366
  Cycle:     19 Energy:     -2947.188093  Gnorm:      0.068081  CPU:    3.522
  ** Hessian calculated **
  Cycle:     20 Energy:     -2947.202581  Gnorm:      0.040939  CPU:    3.758
  ** Hessian has required structure
  Cycle:     21 Energy:     -2947.208190  Gnorm:      0.082117  CPU:    3.929
  ** Hessian has required structure
  Cycle:     22 Energy:     -2947.218939  Gnorm:      0.086779  CPU:    4.124
  ** Hessian has required structure
  Cycle:     23 Energy:     -2947.226049  Gnorm:      0.073389  CPU:    4.292
  ** Hessian has required structure
  Cycle:     24 Energy:     -2947.229089  Gnorm:      0.073972  CPU:    4.469
  ** Hessian has required structure
  Cycle:     25 Energy:     -2947.231372  Gnorm:      0.090657  CPU:    4.637
  ** Hessian has required structure
  Cycle:     26 Energy:     -2947.239813  Gnorm:      0.093952  CPU:    4.834
  ** Hessian has required structure
  Cycle:     27 Energy:     -2947.247562  Gnorm:      0.055191  CPU:    5.004
  ** Hessian has required structure
  Cycle:     28 Energy:     -2947.248804  Gnorm:      0.055973  CPU:    5.182
  ** Hessian has required structure
  Cycle:     29 Energy:     -2947.250673  Gnorm:      0.061173  CPU:    5.380
  ** Hessian has wrong structure
  ** Imaginary eigenvectors =   5
  ** Hessian has wrong structure
  ** Imaginary eigenvectors =   5
  Cycle:     30 Energy:     -2947.299486  Gnorm:      0.077857  CPU:    6.038
  ** Hessian has wrong structure
  ** Imaginary eigenvectors =   4
  ** Hessian has wrong structure
  ** Imaginary eigenvectors =   3
  Cycle:     31 Energy:     -2947.331932  Gnorm:      0.096913  CPU:    6.616
  ** Hessian has wrong structure
  ** Imaginary eigenvectors =   3
  Cycle:     32 Energy:     -2947.361122  Gnorm:      0.112337  CPU:    7.039
  ** Hessian has wrong structure
  ** Imaginary eigenvectors =   1
  ** Hessian has wrong structure
  ** Imaginary eigenvectors =   1
  Cycle:     33 Energy:     -2947.596070  Gnorm:      0.117069  CPU:    7.617
  ** Hessian has wrong structure
  ** Imaginary eigenvectors =   1
  Cycle:     34 Energy:     -2947.720498  Gnorm:      0.134697  CPU:    7.896
  ** Hessian has wrong structure
  ** Imaginary eigenvectors =   1
  ** Hessian has wrong structure
  ** Imaginary eigenvectors =   1
  Cycle:     35 Energy:     -2947.787849  Gnorm:      0.107639  CPU:    8.447
  ** Hessian has wrong structure
  ** Imaginary eigenvectors =   1
  Cycle:     36 Energy:     -2947.917816  Gnorm:      0.023876  CPU:    8.746
  ** Hessian has wrong structure
  ** Imaginary eigenvectors =   1
  ** Hessian has wrong structure
  ** Imaginary eigenvectors =   1
  Cycle:     37 Energy:     -2947.929955  Gnorm:      0.031329  CPU:    9.344
  ** Hessian has required structure
  Cycle:     38 Energy:     -2947.947065  Gnorm:      0.017244  CPU:    9.668
  ** Hessian has required structure
  Cycle:     39 Energy:     -2947.952658  Gnorm:      0.010291  CPU:    9.890
  ** Hessian has required structure
  Cycle:     40 Energy:     -2947.954886  Gnorm:      0.005567  CPU:   10.114
  ** Hessian has required structure
  Cycle:     41 Energy:     -2947.955713  Gnorm:      0.003423  CPU:   10.316
  ** Hessian has required structure
  Cycle:     42 Energy:     -2947.956025  Gnorm:      0.001406  CPU:   10.523
  ** Hessian has required structure
  Cycle:     43 Energy:     -2947.956129  Gnorm:      0.001967  CPU:   10.728
  ** Hessian has required structure
  Cycle:     44 Energy:     -2947.956207  Gnorm:      0.000909  CPU:   10.953
  ** Hessian has required structure
  Cycle:     45 Energy:     -2947.956220  Gnorm:      0.000736  CPU:   11.148
  ** Hessian has required structure
  Cycle:     46 Energy:     -2947.956233  Gnorm:      0.000539  CPU:   11.341
  ** Hessian has required structure
  Cycle:     47 Energy:     -2947.956236  Gnorm:      0.000462  CPU:   11.513
  ** Hessian has required structure
  Cycle:     48 Energy:     -2947.956236  Gnorm:      0.000462  CPU:   11.856
  ** Hessian calculated **
  Cycle:     49 Energy:     -2947.956236  Gnorm:      0.000305  CPU:   12.072
  ** Hessian has required structure
  Cycle:     50 Energy:     -2947.956237  Gnorm:      0.000455  CPU:   12.243
  ** Hessian has required structure
  Cycle:     51 Energy:     -2947.956237  Gnorm:      0.000395  CPU:   12.413
  ** Hessian has required structure
  Cycle:     52 Energy:     -2947.956237  Gnorm:      0.000425  CPU:   12.583
  ** Hessian has required structure
  Cycle:     53 Energy:     -2947.956237  Gnorm:      0.000398  CPU:   12.756
  ** Hessian has required structure
  Cycle:     54 Energy:     -2947.956237  Gnorm:      0.000419  CPU:   12.927
  ** Hessian has required structure
  Cycle:     55 Energy:     -2947.956237  Gnorm:      0.000418  CPU:   13.098
  ** Hessian has required structure
  Cycle:     56 Energy:     -2947.956238  Gnorm:      0.000371  CPU:   13.270
  ** Hessian has required structure
  Cycle:     57 Energy:     -2947.956238  Gnorm:      0.000365  CPU:   13.448
  ** Hessian has required structure
  Cycle:     58 Energy:     -2947.956238  Gnorm:      0.000386  CPU:   13.626
  ** Hessian has required structure
  Cycle:     59 Energy:     -2947.956238  Gnorm:      0.000376  CPU:   13.901
  ** Hessian has required structure
  Cycle:     60 Energy:     -2947.956237  Gnorm:      0.000400  CPU:   14.221
  ** Hessian has required structure
  Cycle:     61 Energy:     -2947.956238  Gnorm:      0.000412  CPU:   14.497
  ** Hessian has required structure
  Cycle:     62 Energy:     -2947.956238  Gnorm:      0.000409  CPU:   14.676
  ** Hessian has required structure
  Cycle:     63 Energy:     -2947.956238  Gnorm:      0.000408  CPU:   14.870
  ** Hessian has required structure
  Cycle:     64 Energy:     -2947.956238  Gnorm:      0.000408  CPU:   15.032
  ** Hessian has required structure
  Cycle:     65 Energy:     -2947.956238  Gnorm:      0.000408  CPU:   15.200
  ** Hessian has required structure
  Cycle:     66 Energy:     -2947.956238  Gnorm:      0.000408  CPU:   15.378
  ** Hessian has required structure
  Cycle:     67 Energy:     -2947.956238  Gnorm:      0.000408  CPU:   15.619
  ** Hessian has required structure
  Cycle:     68 Energy:     -2947.956238  Gnorm:      0.000408  CPU:   15.834
  ** Hessian has required structure
  Cycle:     69 Energy:     -2947.956238  Gnorm:      0.000408  CPU:   16.162
  ** Hessian calculated **
  Cycle:     70 Energy:     -2947.956238  Gnorm:      0.000183  CPU:   16.372
  ** Hessian has required structure
  Cycle:     71 Energy:     -2947.956238  Gnorm:      0.000243  CPU:   16.536
  ** Hessian has required structure
  Cycle:     72 Energy:     -2947.956238  Gnorm:      0.000276  CPU:   16.697
  ** Hessian has required structure
  Cycle:     73 Energy:     -2947.956238  Gnorm:      0.000244  CPU:   16.865
  ** Hessian has required structure
  Cycle:     74 Energy:     -2947.956238  Gnorm:      0.000241  CPU:   17.030
  ** Hessian has required structure
  Cycle:     75 Energy:     -2947.956238  Gnorm:      0.000285  CPU:   17.196
  ** Hessian has required structure
  Cycle:     76 Energy:     -2947.956238  Gnorm:      0.000293  CPU:   17.370
  ** Hessian has required structure
  Cycle:     77 Energy:     -2947.956238  Gnorm:      0.000262  CPU:   17.540
  ** Hessian has required structure
  Cycle:     78 Energy:     -2947.956238  Gnorm:      0.000256  CPU:   17.712
  ** Hessian has required structure
  Cycle:     79 Energy:     -2947.956238  Gnorm:      0.000287  CPU:   17.906
  ** Hessian has required structure
  Cycle:     80 Energy:     -2947.956238  Gnorm:      0.000286  CPU:   18.199
  ** Hessian has required structure
  Cycle:     81 Energy:     -2947.956238  Gnorm:      0.000286  CPU:   18.376
  ** Hessian has required structure
  Cycle:     82 Energy:     -2947.956239  Gnorm:      0.000285  CPU:   18.553
  ** Hessian has required structure
  Cycle:     83 Energy:     -2947.956239  Gnorm:      0.000284  CPU:   18.728
  ** Hessian has required structure
  Cycle:     84 Energy:     -2947.956239  Gnorm:      0.000284  CPU:   18.927
  ** Hessian has required structure
  Cycle:     85 Energy:     -2947.956239  Gnorm:      0.000284  CPU:   19.101
  ** Hessian has required structure
  Cycle:     86 Energy:     -2947.956239  Gnorm:      0.000284  CPU:   19.269
  ** Hessian has required structure
  Cycle:     87 Energy:     -2947.956239  Gnorm:      0.000284  CPU:   19.440
  ** Hessian has required structure
  Cycle:     88 Energy:     -2947.956239  Gnorm:      0.000284  CPU:   19.613
  ** Hessian has required structure
  Cycle:     89 Energy:     -2947.956239  Gnorm:      0.000283  CPU:   19.783
  ** Hessian has required structure
  Cycle:     90 Energy:     -2947.956239  Gnorm:      0.000283  CPU:   20.120
  ** Hessian calculated **


  **** Optimisation achieved ****


  Final energy =   -2947.95623879 eV      
  Final Gnorm  =       0.00010012

  Components of energy : 

--------------------------------------------------------------------------------
  Interatomic potentials     =         778.63632364 eV    
  Three-body potentials      =           0.00000000 eV    
  Monopole - monopole (real) =       -1571.15311005 eV    
  Monopole - monopole (recip)=       -2155.43945237 eV    
  Monopole - monopole (total)=       -3726.59256242 eV    
--------------------------------------------------------------------------------
  Total lattice energy       =       -2947.95623879 eV    
--------------------------------------------------------------------------------
  Total lattice energy       =         -284432.7134 kJ/(mole unit cells)
--------------------------------------------------------------------------------

  Final fractional coordinates of atoms :

--------------------------------------------------------------------------------
   No.  Atomic        x           y          z          Radius
        Label       (Frac)      (Frac)     (Frac)       (Angs) 
--------------------------------------------------------------------------------
     1  Ge    c     0.052090    0.000000    0.372270    0.000000
     2  Ge    c     0.451448    0.961375    0.374292    0.000000
     3  Ge    c     0.944970    0.002055    0.621129    0.000000
     4  Ge    c     0.561272    0.017452    0.617959    0.000000
     5  Ge    c     0.551205    0.994791    0.115205    0.000000
     6  Ge    c     0.950912    0.978874    0.109496    0.000000
     7  Ge    c     0.445185    0.980914    0.858476    0.000000
     8  Ge    c     0.060567    0.012807    0.862477    0.000000
     9  Ge    c     0.150796    0.311312    0.297023    0.000000
    10  Ge    c     0.352470    0.654774    0.299291    0.000000
    11  Ge    c     0.843965    0.316665    0.724473    0.000000
    12  Ge    c     0.657715    0.327993    0.721867    0.000000
    13  Ge    c     0.171512    0.713912    0.295610    0.000000
    14  Ge    c     0.332853    0.252363    0.296634    0.000000
    15  Ge    c     0.662596    0.290415    0.040743    0.000000
    16  Ge    c     0.843953    0.680148    0.051171    0.000000
    17  Ge    c     0.331120    0.265575    0.979232    0.000000
    18  Ge    c     0.351787    0.663602    0.981725    0.000000
    19  Ge    c     0.147728    0.328615    0.981646    0.000000
    20  Ge    c     0.662569    0.692834    0.052810    0.000000
    21  Si    c     0.663572    0.714455    0.746760    0.000000
    22  Si    c     0.844708    0.702923    0.747254    0.000000
    23  Si    c     0.171631    0.721141    0.985311    0.000000
    24  Si    c     0.841414    0.282205    0.035935    0.000000
    25  O1    c     0.092748    0.191690    0.395008    0.000000
    26  O1    c     0.413692    0.765013    0.394085    0.000000
    27  O1    c     0.901608    0.195730    0.632257    0.000000
    28  O3    c     0.632943    0.873956    0.662440    0.000000
    29  O3    c     0.877529    0.853653    0.659755    0.000000
    30  O1    c     0.599005    0.213516    0.626548    0.000000
    31  O1    c     0.119960    0.842259    0.392459    0.000000
    32  O1    c     0.382679    0.113492    0.398170    0.000000
    33  O1    c     0.972239    0.972952    0.461889    0.000000
    34  O1    c     0.533871    0.985123    0.458923    0.000000
    35  O1    c     0.027304    0.993889    0.208387    0.000000
    36  O1    c     0.473662    0.992903    0.210173    0.000000
    37  O1    c     0.029894    0.990798    0.703610    0.000000
    38  O1    c     0.477986    0.992423    0.700276    0.000000
    39  O1    c     0.611374    0.159705    0.138738    0.000000
    40  O1    c     0.902009    0.796831    0.144557    0.000000
    41  O1    c     0.372920    0.124136    0.879571    0.000000
    42  O3    c     0.133166    0.868283    0.895341    0.000000
    43  O1    c     0.410978    0.782231    0.887882    0.000000
    44  O1    c     0.089885    0.215685    0.883877    0.000000
    45  O1    c     0.603213    0.811387    0.143122    0.000000
    46  O3    c     0.891266    0.154151    0.125453    0.000000
    47  O1    c     0.521709    0.021352    0.954518    0.000000
    48  O1    c     0.981233    0.973334    0.951016    0.000000
    49  O1    c     0.160175    0.509167    0.353350    0.000000
    50  O1    c     0.344006    0.451611    0.355786    0.000000
    51  O3    c     0.860360    0.526412    0.680460    0.000000
    52  O3    c     0.644825    0.541183    0.678518    0.000000
    53  O1    c     0.238166    0.210713    0.293612    0.000000
    54  O1    c     0.265712    0.758463    0.301258    0.000000
    55  O1    c     0.750825    0.270279    0.700171    0.000000
    56  O2    c     0.754178    0.719489    0.769676    0.000000
    57  O1    c     0.114985    0.322253    0.139012    0.000000
    58  O1    c     0.384835    0.654676    0.140575    0.000000
    59  O3    c     0.871214    0.285854    0.886992    0.000000
    60  O3    c     0.628923    0.715795    0.891334    0.000000
    61  O3    c     0.878938    0.703641    0.892728    0.000000
    62  O1    c     0.630472    0.296626    0.881049    0.000000
    63  O3    c     0.140381    0.726775    0.132883    0.000000
    64  O1    c     0.365001    0.248096    0.137633    0.000000
    65  O1    c     0.657843    0.486452    0.104044    0.000000
    66  O3    c     0.844377    0.467766    0.094545    0.000000
    67  O1    c     0.348863    0.466948    0.920256    0.000000
    68  O3    c     0.154197    0.538509    0.928488    0.000000
    69  O3    c     0.755616    0.220590    0.032049    0.000000
    70  O1    c     0.753779    0.758686    0.066467    0.000000
    71  O1    c     0.235740    0.234780    0.980357    0.000000
    72  O3    c     0.261153    0.750101    0.988347    0.000000
    73  O1    s     0.094038    0.186471    0.386148    0.000000
    74  O1    s     0.412019    0.771537    0.385687    0.000000
    75  O1    s     0.900354    0.190462    0.638704    0.000000
    76  O3    s     0.630417    0.868916    0.667616    0.000000
    77  O3    s     0.879554    0.850026    0.665701    0.000000
    78  O1    s     0.600592    0.207236    0.633147    0.000000
    79  O1    s     0.118947    0.843922    0.383502    0.000000
    80  O1    s     0.383973    0.112827    0.388823    0.000000
    81  O1    s     0.976426    0.977192    0.466584    0.000000
    82  O1    s     0.529551    0.985678    0.464117    0.000000
    83  O1    s     0.022934    0.993149    0.212170    0.000000
    84  O1    s     0.478334    0.990753    0.214032    0.000000
    85  O1    s     0.025831    0.993274    0.709020    0.000000
    86  O1    s     0.481788    0.993443    0.705663    0.000000
    87  O1    s     0.611018    0.158029    0.129295    0.000000
    88  O1    s     0.901094    0.800907    0.134913    0.000000
    89  O1    s     0.375182    0.124248    0.885728    0.000000
    90  O3    s     0.131156    0.865219    0.901694    0.000000
    91  O1    s     0.408868    0.787852    0.893100    0.000000
    92  O1    s     0.092139    0.209393    0.889723    0.000000
    93  O1    s     0.604041    0.815559    0.134002    0.000000
    94  O3    s     0.890766    0.153779    0.115236    0.000000
    95  O1    s     0.518040    0.016313    0.958905    0.000000
    96  O1    s     0.985045    0.976880    0.956140    0.000000
    97  O1    s     0.160278    0.508737    0.344767    0.000000
    98  O1    s     0.343857    0.453001    0.347144    0.000000
    99  O3    s     0.857597    0.527552    0.690248    0.000000
   100  O3    s     0.647577    0.541838    0.688272    0.000000
   101  O1    s     0.238963    0.221091    0.294070    0.000000
   102  O1    s     0.264837    0.747657    0.300671    0.000000
   103  O1    s     0.750954    0.278181    0.703649    0.000000
   104  O2    s     0.754039    0.717162    0.765161    0.000000
   105  O1    s     0.120003    0.321919    0.138603    0.000000
   106  O1    s     0.380050    0.655364    0.140359    0.000000
   107  O3    s     0.866309    0.287844    0.888257    0.000000
   108  O3    s     0.634672    0.714032    0.889330    0.000000
   109  O3    s     0.872970    0.701800    0.890443    0.000000
   110  O1    s     0.634929    0.298525    0.880780    0.000000
   111  O3    s     0.145611    0.725305    0.131234    0.000000
   112  O1    s     0.360204    0.249694    0.137431    0.000000
   113  O1    s     0.658581    0.487369    0.095223    0.000000
   114  O3    s     0.844065    0.467128    0.085596    0.000000
   115  O1    s     0.347794    0.467323    0.929261    0.000000
   116  O3    s     0.155303    0.539465    0.937760    0.000000
   117  O3    s     0.756592    0.232053    0.033088    0.000000
   118  O1    s     0.753676    0.747686    0.064241    0.000000
   119  O1    s     0.236393    0.244335    0.980384    0.000000
   120  O3    s     0.259548    0.740531    0.987545    0.000000
--------------------------------------------------------------------------------

  Final Cartesian lattice vectors (Angstroms) :

       17.672422    0.172924   -0.082159
        0.076099    7.939372    0.137603
       -0.050519    0.199104   10.210172


  Final cell parameters and derivatives :

--------------------------------------------------------------------------------
       a           17.673459 Angstrom     dE/de1(xx)     0.000437 eV/strain
       b            7.940929 Angstrom     dE/de2(yy)    -0.001038 eV/strain
       c           10.212238 Angstrom     dE/de3(zz)     0.000700 eV/strain
       alpha       87.892750 Degrees      dE/de4(yz)     0.000789 eV/strain
       beta        90.538794 Degrees      dE/de5(xz)     0.000399 eV/strain
       gamma       88.895013 Degrees      dE/de6(xy)    -0.002145 eV/strain
--------------------------------------------------------------------------------

  Primitive cell volume =          1431.914177 Angs**3

  Density of cell =      2.705028 g/cm**3

  Non-primitive cell volume =          1431.914177 Angs**3


  Final internal derivatives :

--------------------------------------------------------------------------------
   No.  Atomic          a             b             c           Radius
        Label          (eV)          (eV)          (eV)        (eV/Angs)
--------------------------------------------------------------------------------
      1 Ge    c       0.000000      0.000000      0.000000      0.000000
      2 Ge    c      -0.001102     -0.000633      0.000462      0.000000
      3 Ge    c       0.000328     -0.002287      0.003576      0.000000
      4 Ge    c       0.000574      0.002599      0.001535      0.000000
      5 Ge    c       0.007611     -0.000314      0.000969      0.000000
      6 Ge    c      -0.003274     -0.000472     -0.001250      0.000000
      7 Ge    c      -0.002338      0.000217      0.000002      0.000000
      8 Ge    c      -0.003438      0.000348     -0.002216      0.000000
      9 Ge    c      -0.000742      0.000075      0.001162      0.000000
     10 Ge    c      -0.000233     -0.000656      0.000646      0.000000
     11 Ge    c      -0.003751      0.001670      0.002318      0.000000
     12 Ge    c      -0.001834     -0.001705     -0.002295      0.000000
     13 Ge    c       0.000341     -0.000070      0.002033      0.000000
     14 Ge    c      -0.000056      0.001166      0.000343      0.000000
     15 Ge    c      -0.001100     -0.000543      0.001590      0.000000
     16 Ge    c       0.001866     -0.000696     -0.001139      0.000000
     17 Ge    c       0.000689      0.000907     -0.000393      0.000000
     18 Ge    c       0.001887     -0.000483     -0.002234      0.000000
     19 Ge    c       0.000878      0.000041     -0.000755      0.000000
     20 Ge    c       0.001830     -0.000447      0.003694      0.000000
     21 Si    c       0.003673     -0.000159     -0.001086      0.000000
     22 Si    c       0.001491     -0.000025     -0.000039      0.000000
     23 Si    c       0.002372     -0.001081     -0.001217      0.000000
     24 Si    c      -0.002577      0.000406      0.002729      0.000000
     25 O1    c       0.001128     -0.000516     -0.000920      0.000000
     26 O1    c      -0.001683     -0.000523     -0.000266      0.000000
     27 O1    c       0.007642      0.001645     -0.001037      0.000000
     28 O3    c      -0.003022     -0.001378      0.002548      0.000000
     29 O3    c      -0.003450      0.001863     -0.000243      0.000000
     30 O1    c       0.001106     -0.001075      0.000463      0.000000
     31 O1    c       0.000449     -0.000092     -0.000490      0.000000
     32 O1    c      -0.005173      0.000161     -0.000322      0.000000
     33 O1    c      -0.000109      0.000467     -0.002231      0.000000
     34 O1    c      -0.001650     -0.000491     -0.003319      0.000000
     35 O1    c       0.003446      0.000267     -0.000874      0.000000
     36 O1    c      -0.005005     -0.000163      0.000085      0.000000
     37 O1    c      -0.003812      0.000803     -0.001807      0.000000
     38 O1    c      -0.002206     -0.000810     -0.001441      0.000000
     39 O1    c      -0.000410      0.003436     -0.000924      0.000000
     40 O1    c       0.004733     -0.000420      0.001038      0.000000
     41 O1    c      -0.002075     -0.001188      0.002329      0.000000
     42 O3    c       0.000058      0.001276      0.000588      0.000000
     43 O1    c      -0.002077     -0.000254      0.004053      0.000000
     44 O1    c       0.001571     -0.001041      0.000427      0.000000
     45 O1    c       0.001077     -0.001803     -0.001335      0.000000
     46 O3    c      -0.003635      0.001056     -0.001432      0.000000
     47 O1    c      -0.001477     -0.000977     -0.001208      0.000000
     48 O1    c       0.000398      0.000882      0.000103      0.000000
     49 O1    c       0.000161      0.000465     -0.001747      0.000000
     50 O1    c      -0.002780     -0.001004     -0.001866      0.000000
     51 O3    c       0.000206     -0.000904     -0.000236      0.000000
     52 O3    c       0.001823      0.001409      0.000381      0.000000
     53 O1    c      -0.004624      0.000027     -0.000330      0.000000
     54 O1    c      -0.001062      0.000384      0.000143      0.000000
     55 O1    c      -0.004826     -0.000298      0.000010      0.000000
     56 O2    c      -0.002809      0.000050      0.001331      0.000000
     57 O1    c      -0.001517      0.000285     -0.000656      0.000000
     58 O1    c       0.000642      0.000047      0.001061      0.000000
     59 O3    c      -0.002233     -0.001183      0.000102      0.000000
     60 O3    c      -0.002194     -0.000171     -0.000509      0.000000
     61 O3    c      -0.002775     -0.000249      0.002070      0.000000
     62 O1    c      -0.002707      0.000283      0.000877      0.000000
     63 O3    c      -0.000566      0.000548     -0.000156      0.000000
     64 O1    c       0.001388     -0.000394      0.000487      0.000000
     65 O1    c      -0.002618      0.001021     -0.000562      0.000000
     66 O3    c       0.000840     -0.000393      0.000825      0.000000
     67 O1    c      -0.001815     -0.000364      0.000439      0.000000
     68 O3    c       0.000471      0.001359      0.000661      0.000000
     69 O3    c      -0.001172      0.000266     -0.001414      0.000000
     70 O1    c       0.001636      0.000493     -0.001496      0.000000
     71 O1    c      -0.002550      0.000226      0.000930      0.000000
     72 O3    c       0.000468      0.000833     -0.002341      0.000000
     73 O1    s      -0.002283      0.001122      0.000732      0.000000
     74 O1    s       0.002596     -0.000123      0.000649      0.000000
     75 O1    s      -0.005868     -0.001163     -0.000441      0.000000
     76 O3    s       0.000305      0.001933     -0.001589      0.000000
     77 O3    s       0.005533     -0.002111      0.000318      0.000000
     78 O1    s      -0.001746     -0.000158      0.002341      0.000000
     79 O1    s      -0.000040      0.000150      0.001088      0.000000
     80 O1    s       0.003667     -0.000278      0.002020      0.000000
     81 O1    s      -0.003615     -0.000643      0.001585      0.000000
     82 O1    s       0.001110      0.000637      0.001937      0.000000
     83 O1    s      -0.002466     -0.000319     -0.000107      0.000000
     84 O1    s       0.001789     -0.000063     -0.001275      0.000000
     85 O1    s       0.002050     -0.000200      0.000242      0.000000
     86 O1    s       0.003457      0.000590      0.000542      0.000000
     87 O1    s      -0.004542     -0.001890      0.000379      0.000000
     88 O1    s      -0.003171      0.000921     -0.002563      0.000000
     89 O1    s       0.001350     -0.002675     -0.001278      0.000000
     90 O3    s       0.001277     -0.001662     -0.001428      0.000000
     91 O1    s       0.005873     -0.000490     -0.001075      0.000000
     92 O1    s      -0.001912      0.001412     -0.001396      0.000000
     93 O1    s      -0.003160      0.002494      0.000267      0.000000
     94 O3    s       0.003756     -0.002765      0.000087      0.000000
     95 O1    s       0.002829      0.002470      0.000288      0.000000
     96 O1    s      -0.003261      0.000323      0.000644      0.000000
     97 O1    s      -0.000985     -0.000149      0.002144      0.000000
     98 O1    s       0.003226     -0.000305      0.002274      0.000000
     99 O3    s      -0.004144      0.001371      0.001666      0.000000
    100 O3    s      -0.002964     -0.001056     -0.000963      0.000000
    101 O1    s       0.003793      0.000472      0.001005      0.000000
    102 O1    s      -0.000750     -0.000212      0.002459      0.000000
    103 O1    s       0.000284     -0.000951     -0.000871      0.000000
    104 O2    s       0.005570      0.002814     -0.000352      0.000000
    105 O1    s       0.000356      0.000240      0.000943      0.000000
    106 O1    s      -0.000215     -0.001393     -0.000369      0.000000
    107 O3    s       0.003857     -0.000519     -0.000380      0.000000
    108 O3    s      -0.003817      0.000259      0.002103      0.000000
    109 O3    s       0.000238     -0.000171     -0.002662      0.000000
    110 O1    s       0.000701      0.000268     -0.002206      0.000000
    111 O3    s       0.000242     -0.001033      0.000261      0.000000
    112 O1    s      -0.001910      0.001398     -0.000238      0.000000
    113 O1    s       0.003148      0.000335      0.000791      0.000000
    114 O3    s      -0.001156     -0.000754     -0.000786      0.000000
    115 O1    s       0.005043     -0.001091     -0.001000      0.000000
    116 O3    s      -0.001987     -0.000934     -0.000844      0.000000
    117 O3    s       0.003414     -0.000521      0.001692      0.000000
    118 O1    s      -0.002336      0.001231      0.001474      0.000000
    119 O1    s       0.002132      0.000983     -0.001030      0.000000
    120 O3    s      -0.002780     -0.001394     -0.002244      0.000000
--------------------------------------------------------------------------------
  Maximum abs         0.007642      0.003436      0.004053      0.000000
--------------------------------------------------------------------------------


  Born effective charge tensors : 

-------------------------------------------------------------------------------
  Atom             x           y             z
-------------------------------------------------------------------------------
    1 Ge    x       4.1566      0.1113      0.0735
            y      -0.1100      3.9364      0.0464
            z      -0.8469     -0.0422      4.2799
-------------------------------------------------------------------------------
    2 Ge    x       4.1689      0.2014     -0.0814
            y      -0.0603      3.9448      0.0341
            z       0.8292      0.0948      4.1803
-------------------------------------------------------------------------------
    3 Ge    x       4.1911     -0.1715     -0.4352
            y       0.0976      3.9682     -0.0300
            z      -0.2532      0.1785      4.4345
-------------------------------------------------------------------------------
    4 Ge    x       4.1761      0.3134      0.4484
            y      -0.0486      3.9801     -0.0185
            z       0.2538      0.1512      4.3838
-------------------------------------------------------------------------------
    5 Ge    x       4.3351     -0.0309      0.0264
            y       0.0688      3.9593      0.0042
            z      -0.6899     -0.0275      3.7137
-------------------------------------------------------------------------------
    6 Ge    x       4.2372      0.1137     -0.0423
            y       0.0349      3.9861     -0.0184
            z       0.6900      0.0788      3.6852
-------------------------------------------------------------------------------
    7 Ge    x       4.3574      0.1802     -0.3857
            y      -0.1522      3.9633      0.0018
            z      -0.3605      0.0084      3.9514
-------------------------------------------------------------------------------
    8 Ge    x       4.2545      0.2499      0.3687
            y      -0.1333      3.9915      0.0277
            z       0.3316      0.1153      3.9090
-------------------------------------------------------------------------------
    9 Ge    x       3.9369      0.1425     -0.2438
            y       0.4246      4.2061     -0.1141
            z      -0.0311     -0.1835      3.5976
-------------------------------------------------------------------------------
   10 Ge    x       3.9499      0.1047      0.2452
            y       0.4320      4.1896      0.1178
            z       0.0672      0.1722      3.6036
-------------------------------------------------------------------------------
   11 Ge    x       3.9430     -0.2338     -0.2001
            y      -0.3477      4.1502      0.2350
            z      -0.0577      0.2449      3.4975
-------------------------------------------------------------------------------
   12 Ge    x       3.9601      0.2252      0.1784
            y       0.3858      4.1724      0.2211
            z       0.0719      0.2230      3.5728
-------------------------------------------------------------------------------
   13 Ge    x       3.9946     -0.2025     -0.3443
            y      -0.2866      4.1545      0.1441
            z      -0.0530      0.1808      3.5514
-------------------------------------------------------------------------------
   14 Ge    x       4.0247     -0.2464      0.3205
            y      -0.3008      4.1608     -0.0863
            z       0.0327     -0.1422      3.5972
-------------------------------------------------------------------------------
   15 Ge    x       3.9254      0.2391     -0.3761
            y       0.3893      4.1565     -0.1037
            z      -0.0939     -0.1428      3.4938
-------------------------------------------------------------------------------
   16 Ge    x       3.9812      0.1632      0.3172
            y       0.4054      4.1222      0.2108
            z       0.0630      0.2218      3.3563
-------------------------------------------------------------------------------
   17 Ge    x       4.0293     -0.2326     -0.3418
            y      -0.2155      4.2040      0.1342
            z      -0.0415      0.2119      3.5632
-------------------------------------------------------------------------------
   18 Ge    x       4.0192      0.1676     -0.3496
            y       0.4507      4.1263     -0.0549
            z      -0.1284     -0.1426      3.5423
-------------------------------------------------------------------------------
   19 Ge    x       4.0060      0.1118      0.2755
            y       0.4028      4.1726      0.2047
            z       0.0759      0.2647      3.4848
-------------------------------------------------------------------------------
   20 Ge    x       4.0408     -0.1768     -0.3645
            y      -0.3894      4.1242      0.1209
            z      -0.1360      0.1456      3.4094
-------------------------------------------------------------------------------
   21 Si    x       3.2757     -0.4062      0.2733
            y      -0.1985      3.9326     -0.0282
            z      -0.0282     -0.1878      3.2993
-------------------------------------------------------------------------------
   22 Si    x       3.2815      0.4124     -0.2927
            y       0.2479      3.9438     -0.0580
            z       0.0084     -0.1974      3.3154
-------------------------------------------------------------------------------
   23 Si    x       3.7369     -0.2407      0.3229
            y      -0.1873      3.9597     -0.0793
            z       0.0064     -0.1900      3.2686
-------------------------------------------------------------------------------
   24 Si    x       3.7094     -0.1981      0.3089
            y      -0.3226      3.9066     -0.0989
            z       0.0465     -0.1571      3.2024
-------------------------------------------------------------------------------
   25 O1    x      -1.9603     -0.8957      0.3497
            y      -0.8558     -2.4860      0.3121
            z       0.4202      0.3419     -1.6453
-------------------------------------------------------------------------------
   26 O1    x      -1.9698     -0.8910     -0.3695
            y      -0.8504     -2.4953     -0.3389
            z      -0.4450     -0.3725     -1.6190
-------------------------------------------------------------------------------
   27 O1    x      -1.9524      0.9185      0.4945
            y       0.9118     -2.6507     -0.5326
            z       0.4707     -0.5467     -1.6811
-------------------------------------------------------------------------------
   28 O3    x      -1.8472      0.8406     -0.5026
            y       0.8217     -2.3979      0.6307
            z      -0.4280      0.6283     -1.5861
-------------------------------------------------------------------------------
   29 O3    x      -1.8578     -0.8720      0.5166
            y      -0.8766     -2.4051      0.6435
            z       0.4513      0.6247     -1.6048
-------------------------------------------------------------------------------
   30 O1    x      -1.9333     -0.9074     -0.4960
            y      -0.8828     -2.6791     -0.5080
            z      -0.4735     -0.5191     -1.6530
-------------------------------------------------------------------------------
   31 O1    x      -2.1503      0.9347      0.3509
            y       0.9835     -2.3289     -0.3936
            z       0.4192     -0.3963     -1.6647
-------------------------------------------------------------------------------
   32 O1    x      -2.1415      0.9131     -0.3038
            y       0.9563     -2.3159      0.3394
            z      -0.3689      0.3404     -1.6403
-------------------------------------------------------------------------------
   33 O1    x      -2.1208     -0.0309      0.9225
            y      -0.0493     -1.2780     -0.0218
            z       1.1916     -0.0655     -3.0980
-------------------------------------------------------------------------------
   34 O1    x      -2.1478     -0.2209     -0.8954
            y      -0.1034     -1.2901     -0.1724
            z      -1.1605     -0.3265     -3.0178
-------------------------------------------------------------------------------
   35 O1    x      -2.1573     -0.0941     -0.8691
            y      -0.0248     -1.3344     -0.0770
            z      -0.8433     -0.1139     -2.6616
-------------------------------------------------------------------------------
   36 O1    x      -2.1621     -0.0594      0.8368
            y      -0.0037     -1.3241      0.0609
            z       0.8153      0.1010     -2.6242
-------------------------------------------------------------------------------
   37 O1    x      -2.2115     -0.0560     -0.7920
            y      -0.0025     -1.2855     -0.0430
            z      -0.8485     -0.1167     -2.6950
-------------------------------------------------------------------------------
   38 O1    x      -2.2296     -0.1386      0.8096
            y      -0.0316     -1.2807      0.0787
            z       0.8529      0.0951     -2.6776
-------------------------------------------------------------------------------
   39 O1    x      -2.1616     -0.9597      0.3414
            y      -0.9894     -2.4188      0.3420
            z       0.3691      0.3339     -1.5164
-------------------------------------------------------------------------------
   40 O1    x      -2.0721     -0.9413     -0.3332
            y      -0.9387     -2.4994     -0.2846
            z      -0.3936     -0.3380     -1.5378
-------------------------------------------------------------------------------
   41 O1    x      -2.1760      0.9100      0.5636
            y       0.9227     -2.3527     -0.5876
            z       0.4704     -0.5523     -1.6343
-------------------------------------------------------------------------------
   42 O3    x      -1.9853      0.8794     -0.5369
            y       0.8605     -2.3097      0.5930
            z      -0.4500      0.5782     -1.5339
-------------------------------------------------------------------------------
   43 O1    x      -2.0507     -0.9051      0.5607
            y      -0.8260     -2.5523      0.5647
            z       0.4798      0.5400     -1.5804
-------------------------------------------------------------------------------
   44 O1    x      -1.9437     -0.8515     -0.5414
            y      -0.7548     -2.6519     -0.5843
            z      -0.4465     -0.5577     -1.5880
-------------------------------------------------------------------------------
   45 O1    x      -2.1158      0.9325      0.3734
            y       0.9359     -2.4122     -0.3187
            z       0.4381     -0.3694     -1.5418
-------------------------------------------------------------------------------
   46 O3    x      -1.9762      0.9008     -0.3761
            y       0.8908     -2.3052      0.4003
            z      -0.4045      0.4127     -1.4336
-------------------------------------------------------------------------------
   47 O1    x      -2.1696     -0.1097     -0.7391
            y      -0.0871     -1.3576     -0.0746
            z      -0.5100     -0.0440     -2.3064
-------------------------------------------------------------------------------
   48 O1    x      -2.2442     -0.1291      0.7616
            y      -0.0512     -1.3561      0.0375
            z       0.5085      0.0367     -2.2261
-------------------------------------------------------------------------------
   49 O1    x      -1.3297     -0.1693      0.0713
            y      -0.2399     -3.1973     -0.0202
            z       0.0205      0.0024     -1.3945
-------------------------------------------------------------------------------
   50 O1    x      -1.3365     -0.1384     -0.0834
            y      -0.2237     -3.1926     -0.0296
            z      -0.0368     -0.0146     -1.3808
-------------------------------------------------------------------------------
   51 O3    x      -1.2692      0.0533      0.1387
            y       0.0379     -2.9862     -0.2468
            z       0.0771     -0.1901     -1.3166
-------------------------------------------------------------------------------
   52 O3    x      -1.2890     -0.1060     -0.1526
            y      -0.1217     -2.9644     -0.2625
            z      -0.0988     -0.2271     -1.3142
-------------------------------------------------------------------------------
   53 O1    x      -3.0789      0.2036      0.0039
            y       0.1409     -1.5514      0.0048
            z       0.0206      0.0317     -1.2211
-------------------------------------------------------------------------------
   54 O1    x      -3.0601      0.1972     -0.0221
            y       0.1278     -1.5467     -0.0311
            z      -0.0591     -0.0533     -1.2347
-------------------------------------------------------------------------------
   55 O1    x      -3.1057      0.0266     -0.0242
            y       0.0192     -1.4885     -0.0742
            z      -0.0401     -0.0829     -1.2466
-------------------------------------------------------------------------------
   56 O2    x      -2.3786      0.0241      0.0034
            y       0.0232     -1.2548      0.0160
            z      -0.0054      0.0451     -1.1020
-------------------------------------------------------------------------------
   57 O1    x      -1.4902     -0.0627     -0.0228
            y      -0.1203     -1.4315      0.0627
            z      -0.0398      0.0478     -2.7034
-------------------------------------------------------------------------------
   58 O1    x      -1.5194     -0.0455     -0.0177
            y      -0.1094     -1.4062      0.0015
            z       0.0139     -0.0049     -2.7419
-------------------------------------------------------------------------------
   59 O3    x      -1.3687      0.0974      0.0939
            y       0.1231     -1.3801      0.0991
            z       0.0586      0.0945     -2.5464
-------------------------------------------------------------------------------
   60 O3    x      -1.4690      0.1198      0.2077
            y       0.1245     -1.3258      0.0021
            z       0.1600      0.0310     -2.5166
-------------------------------------------------------------------------------
   61 O3    x      -1.4412     -0.1149     -0.2036
            y      -0.1241     -1.3486      0.0308
            z      -0.1328      0.0383     -2.4902
-------------------------------------------------------------------------------
   62 O1    x      -1.4628     -0.0982     -0.0270
            y      -0.1344     -1.4561      0.1203
            z      -0.0051      0.1214     -2.7181
-------------------------------------------------------------------------------
   63 O3    x      -1.4018      0.0949      0.0880
            y       0.1057     -1.3485     -0.0342
            z       0.0679     -0.0117     -2.5784
-------------------------------------------------------------------------------
   64 O1    x      -1.4969      0.1066     -0.0016
            y       0.1205     -1.4266      0.0370
            z       0.0076      0.0176     -2.7241
-------------------------------------------------------------------------------
   65 O1    x      -1.3442     -0.0070      0.1149
            y       0.0013     -3.1921     -0.0868
            z       0.0568     -0.0486     -1.3455
-------------------------------------------------------------------------------
   66 O3    x      -1.2621     -0.0006     -0.0847
            y      -0.0381     -3.0461     -0.1846
            z      -0.0335     -0.1406     -1.2611
-------------------------------------------------------------------------------
   67 O1    x      -1.3863     -0.1276      0.1151
            y      -0.2229     -3.1789     -0.0635
            z       0.0575     -0.0381     -1.3473
-------------------------------------------------------------------------------
   68 O3    x      -1.3160     -0.1908     -0.1124
            y      -0.2724     -3.0262     -0.1369
            z      -0.0627     -0.1379     -1.2597
-------------------------------------------------------------------------------
   69 O3    x      -2.9214     -0.0654      0.0222
            y      -0.0789     -1.4294      0.0043
            z       0.0243      0.0311     -1.1177
-------------------------------------------------------------------------------
   70 O1    x      -3.0574      0.0457      0.0198
            y       0.0499     -1.5199     -0.0591
            z       0.0303     -0.0800     -1.2287
-------------------------------------------------------------------------------
   71 O1    x      -3.1428      0.2472      0.0261
            y       0.1872     -1.5472     -0.0309
            z       0.0207     -0.0561     -1.1958
-------------------------------------------------------------------------------
   72 O3    x      -3.0264      0.1458      0.0193
            y       0.0822     -1.3996      0.0036
            z       0.0273      0.0318     -1.1407
-------------------------------------------------------------------------------




  Elastic Constant Matrix: (Units=GPa)

-------------------------------------------------------------------------------
  Indices      1         2         3         4         5         6    
-------------------------------------------------------------------------------
       1     28.9961   17.2940    8.6453    3.4490   -1.3279    6.8600
       2     17.2940   45.6892   10.1282    3.5108   -0.5231    7.8446
       3      8.6453   10.1282   11.1592    1.3708   -2.0486    3.0804
       4      3.4490    3.5108    1.3708    6.9559    0.4158    2.2564
       5     -1.3279   -0.5231   -2.0486    0.4158   14.0391    5.0071
       6      6.8600    7.8446    3.0804    2.2564    5.0071   15.4924
-------------------------------------------------------------------------------


  Elastic Compliance Matrix: (Units=1/GPa)

-------------------------------------------------------------------------------
  Indices      1         2         3         4         5         6    
-------------------------------------------------------------------------------
       1    0.053581 -0.011528 -0.024830 -0.011946  0.006067 -0.013172
       2   -0.011528  0.031612 -0.017278 -0.004624  0.000142 -0.006839
       3   -0.024830 -0.017278  0.132243 -0.002053  0.021018 -0.013045
       4   -0.011946 -0.004624 -0.002053  0.157194 -0.001084 -0.014505
       5    0.006067  0.000142  0.021018 -0.001084  0.087400 -0.035027
       6   -0.013172 -0.006839 -0.013045 -0.014505 -0.035027  0.089871
-------------------------------------------------------------------------------

  Mechanical properties :

-------------------------------------------------------------------------------
  Convention :                    Reuss         Voigt         Hill
-------------------------------------------------------------------------------
  Bulk  Modulus (GPa)     =       9.07752      17.55329      13.31540
  Shear Modulus (GPa)     =       7.18499      10.61595       8.90047
-------------------------------------------------------------------------------
  Velocity S-wave (km/s)  =       1.62977       1.98104       1.81393
  Velocity P-wave (km/s)  =       2.62628       3.42372       3.05116
-------------------------------------------------------------------------------
  Compressibility (1/GPa) =    0.11016224
-------------------------------------------------------------------------------
  Stress axis :                     x             y             z
-------------------------------------------------------------------------------
  Youngs Moduli (GPa)     =      18.66326      31.63363       7.56185
-------------------------------------------------------------------------------
  Poissons Ratio (x)      =                     0.36467       0.18776
  Poissons Ratio (y)      =       0.21515                     0.13066
  Poissons Ratio (z)      =       0.46342       0.54658
-------------------------------------------------------------------------------


  Piezoelectric Strain Matrix: (Units=C/m**2)

-------------------------------------------------------------------------------
  Indices      1         2         3         4         5         6    
-------------------------------------------------------------------------------
       x    -0.28458   0.04184  -0.15325  -0.08805   0.50895   0.08392
       y     0.61124   1.11576   0.08816   0.37925  -0.32631   0.60885
       z     1.03948   0.81780  -1.05582  -0.36496  -0.30890   0.43897
-------------------------------------------------------------------------------


  Piezoelectric Stress Matrix: (Units=10**-11 C/N)

-------------------------------------------------------------------------------
  Indices      1         2         3         4         5         6    
-------------------------------------------------------------------------------
       x    -0.88909   0.71569  -0.41398  -1.20889   3.66971  -0.35469
       y     0.31698   2.07377  -3.83772   3.84964  -4.45373   4.38138
       z     6.91891   3.07536 -19.10351  -7.74335  -5.77462   5.00515
-------------------------------------------------------------------------------


  Static dielectric constant tensor : 

-------------------------------------------------------------------------------
              x         y         z
-------------------------------------------------------------------------------
       x     5.16510   0.04946  -0.00645
       y     0.04946   6.06281   0.24058
       z    -0.00645   0.24058   4.30867
--------------------------------------------------------------------------------

  High frequency dielectric constant tensor : 

-------------------------------------------------------------------------------
              x         y         z
-------------------------------------------------------------------------------
       x     1.54010   0.00062  -0.00005
       y     0.00062   1.54889   0.00187
       z    -0.00005   0.00187   1.50179
-------------------------------------------------------------------------------

  Static refractive indices : 

-------------------------------------------------------------------------------
    1 =    2.06787      2 =    2.27218      3 =    2.46935
-------------------------------------------------------------------------------

  High frequency refractive indices : 

-------------------------------------------------------------------------------
    1 =    1.22545      2 =    1.24099      3 =    1.24459
-------------------------------------------------------------------------------


  Time to end of optimisation =      20.5615 seconds


  Peak dynamic memory used =       5.01 MB 


  Timing analysis for GULP :

--------------------------------------------------------------------------------
  Task / Subroutine                                          Time (Seconds)
--------------------------------------------------------------------------------
  Calculation of reciprocal space energy and derivatives          1.2211
  Calculation of real space energy and derivatives               14.2326
  Calculation of three-body energy and derivatives                0.1538
  Calculation and manipulation of Hessian matrix                  5.7676
  Calculation of matrix inversion                                 0.0756
  Global summation overhead                                       0.0002
--------------------------------------------------------------------------------
  Total CPU time                                                 20.5615
--------------------------------------------------------------------------------


  Dump file written as c00207.vasp.grs
  CIF file written as c00207.vasp.cif


  Job Finished at 12:30.55 31st October    2025                               

