********************************************************************************
*                       GENERAL UTILITY LATTICE PROGRAM                        *
*                                 Julian Gale                                  *
*                       Curtin Institute for Computation                       *
*                    School of Molecular and Life Sciences                     *
*                    Curtin University, Western Australia                      *
********************************************************************************
* Version = 6.1.2 * Last modified =   3rd November 2022                        *
********************************************************************************
*  optimise     - perform optimisation run                                     *
*  conp         - constant pressure calculation                                *
*  property     - calculate properties for final geometry                      *
********************************************************************************

  Job Started  at 13:02.34 31st October    2025                               

  Number of CPUs =     1


  Total number of configurations input =      1

********************************************************************************
*  Input for Configuration =   1 : c00376.vasp                                 *
********************************************************************************

  Formula = Ge20Si4O48                                                  

  Number of irreducible atoms/shells =     120


  Total number atoms/shells =     120

  Dimensionality = 3               :  Bulk   



  Cartesian lattice vectors (Angstroms) :

       17.182800    0.000000    0.000000
        0.000000    7.513760    0.000000
        0.000000    0.000000   10.447700

  Cell parameters (Angstroms/Degrees):

  a =      17.1828    alpha =  90.0000
  b =       7.5138    beta  =  90.0000
  c =      10.4477    gamma =  90.0000

  Initial cell volume =        1348.875752 Angs**3

  Temperature of configuration =   0.00     K 

  Pressure of configuration =         0.000 GPa 

  Fractional coordinates of asymmetric unit :

--------------------------------------------------------------------------------
   No.  Atomic       x           y          z         Charge      Occupancy
        Label      (Frac)      (Frac)     (Frac)        (e)         (Frac)  
--------------------------------------------------------------------------------
      1 Ge    c    0.052090    0.000000    0.372270     4.00000    1.000000    
      2 Ge    c    0.447910 *  0.000000 *  0.372270 *   4.00000    1.000000    
      3 Ge    c    0.947910 *  0.000000 *  0.627730 *   4.00000    1.000000    
      4 Ge    c    0.552090 *  0.000000 *  0.627730 *   4.00000    1.000000    
      5 Ge    c    0.556730 *  0.000000 *  0.122130 *   4.00000    1.000000    
      6 Ge    c    0.943270 *  0.000000 *  0.122130 *   4.00000    1.000000    
      7 Ge    c    0.443270 *  0.000000 *  0.877870 *   4.00000    1.000000    
      8 Ge    c    0.160190 *  0.293910 *  0.273440 *   4.00000    1.000000    
      9 Ge    c    0.339810 *  0.706090 *  0.273440 *   4.00000    1.000000    
     10 Ge    c    0.839810 *  0.293910 *  0.726560 *   4.00000    1.000000    
     11 Ge    c    0.660190 *  0.706090 *  0.726560 *   4.00000    1.000000    
     12 Ge    c    0.839810 *  0.706090 *  0.726560 *   4.00000    1.000000    
     13 Ge    c    0.160190 *  0.706090 *  0.273440 *   4.00000    1.000000    
     14 Ge    c    0.660660 *  0.294090 *  0.017440 *   4.00000    1.000000    
     15 Ge    c    0.839340 *  0.705910 *  0.017440 *   4.00000    1.000000    
     16 Ge    c    0.339340 *  0.294090 *  0.982560 *   4.00000    1.000000    
     17 Ge    c    0.160660 *  0.705910 *  0.982560 *   4.00000    1.000000    
     18 Ge    c    0.160660 *  0.294090 *  0.982560 *   4.00000    1.000000    
     19 Ge    c    0.660660 *  0.705910 *  0.017440 *   4.00000    1.000000    
     20 Ge    c    0.839340 *  0.294090 *  0.017440 *   4.00000    1.000000    
     21 Si    c    0.056730 *  0.000000 *  0.877870 *   4.00000    1.000000    
     22 Si    c    0.660190 *  0.293910 *  0.726560 *   4.00000    1.000000    
     23 Si    c    0.339810 *  0.293910 *  0.273440 *   4.00000    1.000000    
     24 Si    c    0.339340 *  0.705910 *  0.982560 *   4.00000    1.000000    
     25 O1    c    0.106570 *  0.174340 *  0.366200 *   1.73396    1.000000    
     26 O1    c    0.393430 *  0.825660 *  0.366200 *   1.73396    1.000000    
     27 O1    c    0.893430 *  0.174340 *  0.633800 *   1.73396    1.000000    
     28 O1    c    0.606570 *  0.825660 *  0.633800 *   1.73396    1.000000    
     29 O1    c    0.893430 *  0.825660 *  0.633800 *   1.73396    1.000000    
     30 O3    c    0.606570 *  0.174340 *  0.633800 *   1.33043    1.000000    
     31 O1    c    0.106570 *  0.825660 *  0.366200 *   1.73396    1.000000    
     32 O3    c    0.393430 *  0.174340 *  0.366200 *   1.33043    1.000000    
     33 O1    c    0.000000 *  0.000000 *  0.500000 *   1.73396    1.000000    
     34 O1    c    0.500000 *  0.000000 *  0.500000 *   1.73396    1.000000    
     35 O1    c    0.994520 *  0.000000 *  0.250840 *   1.73396    1.000000    
     36 O1    c    0.505480 *  0.000000 *  0.250840 *   1.73396    1.000000    
     37 O3    c    0.005480 *  0.000000 *  0.749160 *   1.33043    1.000000    
     38 O1    c    0.494520 *  0.000000 *  0.749160 *   1.73396    1.000000    
     39 O1    c    0.610230 *  0.175520 *  0.115390 *   1.73396    1.000000    
     40 O1    c    0.889770 *  0.824480 *  0.115390 *   1.73396    1.000000    
     41 O1    c    0.389770 *  0.175520 *  0.884610 *   1.73396    1.000000    
     42 O3    c    0.110230 *  0.824480 *  0.884610 *   1.33043    1.000000    
     43 O3    c    0.389770 *  0.824480 *  0.884610 *   1.33043    1.000000    
     44 O3    c    0.110230 *  0.175520 *  0.884610 *   1.33043    1.000000    
     45 O1    c    0.610230 *  0.824480 *  0.115390 *   1.73396    1.000000    
     46 O1    c    0.889770 *  0.175520 *  0.115390 *   1.73396    1.000000    
     47 O1    c    0.500000 *  0.000000 *  0.000000 *   1.73396    1.000000    
     48 O3    c    0.000000 *  0.000000 *  0.000000 *   1.33043    1.000000    
     49 O1    c    0.151750 *  0.500000 *  0.313330 *   1.73396    1.000000    
     50 O3    c    0.348250 *  0.500000 *  0.313330 *   1.33043    1.000000    
     51 O1    c    0.848250 *  0.500000 *  0.686670 *   1.73396    1.000000    
     52 O3    c    0.651750 *  0.500000 *  0.686670 *   1.33043    1.000000    
     53 O3    c    0.250000 *  0.234950 *  0.285720 *   1.33043    1.000000    
     54 O1    c    0.250000 *  0.765050 *  0.285720 *   1.73396    1.000000    
     55 O3    c    0.750000 *  0.234950 *  0.714280 *   1.33043    1.000000    
     56 O1    c    0.750000 *  0.765050 *  0.714280 *   1.73396    1.000000    
     57 O1    c    0.131410 *  0.268650 *  0.127790 *   1.73396    1.000000    
     58 O3    c    0.368590 *  0.731350 *  0.127790 *   1.33043    1.000000    
     59 O1    c    0.868590 *  0.268650 *  0.872210 *   1.73396    1.000000    
     60 O1    c    0.631410 *  0.731350 *  0.872210 *   1.73396    1.000000    
     61 O1    c    0.868590 *  0.731350 *  0.872210 *   1.73396    1.000000    
     62 O3    c    0.631410 *  0.268650 *  0.872210 *   1.33043    1.000000    
     63 O1    c    0.131410 *  0.731350 *  0.127790 *   1.73396    1.000000    
     64 O3    c    0.368590 *  0.268650 *  0.127790 *   1.33043    1.000000    
     65 O1    c    0.653920 *  0.500000 *  0.058200 *   1.73396    1.000000    
     66 O1    c    0.846080 *  0.500000 *  0.058200 *   1.73396    1.000000    
     67 O3    c    0.346080 *  0.500000 *  0.941800 *   1.33043    1.000000    
     68 O1    c    0.153920 *  0.500000 *  0.941800 *   1.73396    1.000000    
     69 O1    c    0.750000 *  0.231060 *  0.027050 *   1.73396    1.000000    
     70 O1    c    0.750000 *  0.768940 *  0.027050 *   1.73396    1.000000    
     71 O1    c    0.250000 *  0.231060 *  0.972950 *   1.73396    1.000000    
     72 O3    c    0.250000 *  0.768940 *  0.972950 *   1.33043    1.000000    
     73 O1    s    0.106570 *  0.174340 *  0.366200 *  -3.73396    1.000000    
     74 O1    s    0.393430 *  0.825660 *  0.366200 *  -3.73396    1.000000    
     75 O1    s    0.893430 *  0.174340 *  0.633800 *  -3.73396    1.000000    
     76 O1    s    0.606570 *  0.825660 *  0.633800 *  -3.73396    1.000000    
     77 O1    s    0.893430 *  0.825660 *  0.633800 *  -3.73396    1.000000    
     78 O3    s    0.606570 *  0.174340 *  0.633800 *  -3.33043    1.000000    
     79 O1    s    0.106570 *  0.825660 *  0.366200 *  -3.73396    1.000000    
     80 O3    s    0.393430 *  0.174340 *  0.366200 *  -3.33043    1.000000    
     81 O1    s    0.000000 *  0.000000 *  0.500000 *  -3.73396    1.000000    
     82 O1    s    0.500000 *  0.000000 *  0.500000 *  -3.73396    1.000000    
     83 O1    s    0.994520 *  0.000000 *  0.250840 *  -3.73396    1.000000    
     84 O1    s    0.505480 *  0.000000 *  0.250840 *  -3.73396    1.000000    
     85 O3    s    0.005480 *  0.000000 *  0.749160 *  -3.33043    1.000000    
     86 O1    s    0.494520 *  0.000000 *  0.749160 *  -3.73396    1.000000    
     87 O1    s    0.610230 *  0.175520 *  0.115390 *  -3.73396    1.000000    
     88 O1    s    0.889770 *  0.824480 *  0.115390 *  -3.73396    1.000000    
     89 O1    s    0.389770 *  0.175520 *  0.884610 *  -3.73396    1.000000    
     90 O3    s    0.110230 *  0.824480 *  0.884610 *  -3.33043    1.000000    
     91 O3    s    0.389770 *  0.824480 *  0.884610 *  -3.33043    1.000000    
     92 O3    s    0.110230 *  0.175520 *  0.884610 *  -3.33043    1.000000    
     93 O1    s    0.610230 *  0.824480 *  0.115390 *  -3.73396    1.000000    
     94 O1    s    0.889770 *  0.175520 *  0.115390 *  -3.73396    1.000000    
     95 O1    s    0.500000 *  0.000000 *  0.000000 *  -3.73396    1.000000    
     96 O3    s    0.000000 *  0.000000 *  0.000000 *  -3.33043    1.000000    
     97 O1    s    0.151750 *  0.500000 *  0.313330 *  -3.73396    1.000000    
     98 O3    s    0.348250 *  0.500000 *  0.313330 *  -3.33043    1.000000    
     99 O1    s    0.848250 *  0.500000 *  0.686670 *  -3.73396    1.000000    
    100 O3    s    0.651750 *  0.500000 *  0.686670 *  -3.33043    1.000000    
    101 O3    s    0.250000 *  0.234950 *  0.285720 *  -3.33043    1.000000    
    102 O1    s    0.250000 *  0.765050 *  0.285720 *  -3.73396    1.000000    
    103 O3    s    0.750000 *  0.234950 *  0.714280 *  -3.33043    1.000000    
    104 O1    s    0.750000 *  0.765050 *  0.714280 *  -3.73396    1.000000    
    105 O1    s    0.131410 *  0.268650 *  0.127790 *  -3.73396    1.000000    
    106 O3    s    0.368590 *  0.731350 *  0.127790 *  -3.33043    1.000000    
    107 O1    s    0.868590 *  0.268650 *  0.872210 *  -3.73396    1.000000    
    108 O1    s    0.631410 *  0.731350 *  0.872210 *  -3.73396    1.000000    
    109 O1    s    0.868590 *  0.731350 *  0.872210 *  -3.73396    1.000000    
    110 O3    s    0.631410 *  0.268650 *  0.872210 *  -3.33043    1.000000    
    111 O1    s    0.131410 *  0.731350 *  0.127790 *  -3.73396    1.000000    
    112 O3    s    0.368590 *  0.268650 *  0.127790 *  -3.33043    1.000000    
    113 O1    s    0.653920 *  0.500000 *  0.058200 *  -3.73396    1.000000    
    114 O1    s    0.846080 *  0.500000 *  0.058200 *  -3.73396    1.000000    
    115 O3    s    0.346080 *  0.500000 *  0.941800 *  -3.33043    1.000000    
    116 O1    s    0.153920 *  0.500000 *  0.941800 *  -3.73396    1.000000    
    117 O1    s    0.750000 *  0.231060 *  0.027050 *  -3.73396    1.000000    
    118 O1    s    0.750000 *  0.768940 *  0.027050 *  -3.73396    1.000000    
    119 O1    s    0.250000 *  0.231060 *  0.972950 *  -3.73396    1.000000    
    120 O3    s    0.250000 *  0.768940 *  0.972950 *  -3.33043    1.000000    
--------------------------------------------------------------------------------



********************************************************************************
*  General input information                                                   *
********************************************************************************

  Species output for all configurations : 

--------------------------------------------------------------------------------
  Species    Type    Atomic    Atomic    Charge       Radii (Angs)     Library
                     Number     Mass       (e)     Cova   Ionic  VDW   Symbol
--------------------------------------------------------------------------------
    Ge       Core       32      72.61   4.000000   1.170  0.000  1.750 Ge       
    Si       Core       14      28.09   4.000000   1.200  0.000  2.100 Si       
    O1       Core        8      16.00   1.733957   0.730  0.000  1.360 O1       
    O2       Core        8      16.00   0.870733   0.730  0.000  0.000 O2       
    O3       Core        8      16.00   1.330431   0.730  0.000  1.360 O3       
    O1       Shell       8       0.00  -3.733957   0.730  0.000  0.000 O1       
    O2       Shell       8       0.00  -2.870733   0.730  0.000  0.000 O2       
    O3       Shell       8       0.00  -3.330431   0.730  0.000  0.000 O3       
--------------------------------------------------------------------------------


  Lattice summation method               =    Ewald          (3-D)
                                         =    Parry          (2-D)
                                         =    Saunders et al (1-D)
  Accuracy factor for lattice sums       =   12.000


  Analytic derivatives to be used

  Time limit = Infinity

  Maximum range for interatomic potentials =    100000.000000 Angstroms

  General interatomic potentials :

--------------------------------------------------------------------------------
Atom  Types   Potential      Parameter       Value         Units   Cutoffs(Ang)
  1     2                                                            Min /  Max 
--------------------------------------------------------------------------------
Si   c O1   s Buckingham    Buckingham A     1315.2478    eV        0.000 16.000
                            Buckingham rho  0.31775900    Ang       
                            Buckingham C     10.141118    eV*Ang^6  
--------------------------------------------------------------------------------
Si   c O2   s Buckingham    Buckingham A     1315.2478    eV        0.000 16.000
                            Buckingham rho  0.31775900    Ang       
                            Buckingham C     10.141118    eV*Ang^6  
--------------------------------------------------------------------------------
Si   c O3   s Buckingham    Buckingham A     1315.2478    eV        0.000 16.000
                            Buckingham rho  0.31775900    Ang       
                            Buckingham C     10.141118    eV*Ang^6  
--------------------------------------------------------------------------------
Ge   c O1   s Buckingham    Buckingham A     1497.3996    eV        0.000 16.000
                            Buckingham rho  0.32564600    Ang       
                            Buckingham C     16.808599    eV*Ang^6  
--------------------------------------------------------------------------------
Ge   c O2   s Buckingham    Buckingham A     1497.3996    eV        0.000 16.000
                            Buckingham rho  0.32564600    Ang       
                            Buckingham C     16.808599    eV*Ang^6  
--------------------------------------------------------------------------------
Ge   c O3   s Buckingham    Buckingham A     1497.3996    eV        0.000 16.000
                            Buckingham rho  0.32564600    Ang       
                            Buckingham C     16.808599    eV*Ang^6  
--------------------------------------------------------------------------------
O1   s O1   s Buckingham    Buckingham A     22764.000    eV        0.000 16.000
                            Buckingham rho  0.14900000    Ang       
                            Buckingham C     10.937044    eV*Ang^6  
--------------------------------------------------------------------------------
O1   s O2   s Buckingham    Buckingham A     22764.000    eV        0.000 16.000
                            Buckingham rho  0.14900000    Ang       
                            Buckingham C     10.937044    eV*Ang^6  
--------------------------------------------------------------------------------
O1   s O3   s Buckingham    Buckingham A     22764.000    eV        0.000 16.000
                            Buckingham rho  0.14900000    Ang       
                            Buckingham C     10.937044    eV*Ang^6  
--------------------------------------------------------------------------------
O2   s O2   s Buckingham    Buckingham A     22764.000    eV        0.000 16.000
                            Buckingham rho  0.14900000    Ang       
                            Buckingham C     10.937044    eV*Ang^6  
--------------------------------------------------------------------------------
O2   s O3   s Buckingham    Buckingham A     22764.000    eV        0.000 16.000
                            Buckingham rho  0.14900000    Ang       
                            Buckingham C     10.937044    eV*Ang^6  
--------------------------------------------------------------------------------
O3   s O3   s Buckingham    Buckingham A     22764.000    eV        0.000 16.000
                            Buckingham rho  0.14900000    Ang       
                            Buckingham C     10.937044    eV*Ang^6  
--------------------------------------------------------------------------------
O1   c O1   s Spring (c-s)  Spring k 2       180.31577    eV*Ang^-2 0.000  0.800
                            Spring k 4       0.0000000    eV*Ang^-4 
--------------------------------------------------------------------------------
O2   c O2   s Spring (c-s)  Spring k 2       75.969800    eV*Ang^-2 0.000  0.800
                            Spring k 4       0.0000000    eV*Ang^-4 
--------------------------------------------------------------------------------
O3   c O3   s Spring (c-s)  Spring k 2       128.14270    eV*Ang^-2 0.000  0.800
                            Spring k 4       0.0000000    eV*Ang^-4 
--------------------------------------------------------------------------------

  General Three-body potentials :

--------------------------------------------------------------------------------
  Atoms       Potential      Parameter       Value         Units   Cutoffs(Ang)
  1 / 2 / 3                                                          Min /  Max 
--------------------------------------------------------------------------------
Si    core    Harmonic      Three-body cnst  1.2614000    eV*rad^-2 0.000  1.900
O1    shel                  Three-body angl  109.47000    degrees   0.000  1.900
O1    shel                  Three-body k4    0.0000000    eV*rad^-4 0.000  3.500
                            Three-body k3    0.0000000    eV*rad^-3 
--------------------------------------------------------------------------------
Si    core    Harmonic      Three-body cnst  1.2614000    eV*rad^-2 0.000  1.900
O1    shel                  Three-body angl  109.47000    degrees   0.000  1.900
õ(1   shel                  Three-body k4    0.0000000    eV*rad^-4 0.000  3.500
                            Three-body k3    0.0000000    eV*rad^-3 
--------------------------------------------------------------------------------
Si    core    Harmonic      Three-body cnst  1.2614000    eV*rad^-2 0.000  1.900
õ(1   shel                  Three-body angl  109.47000    degrees   0.000  1.900
õ(1   shel                  Three-body k4    0.0000000    eV*rad^-4 0.000  3.500
                            Three-body k3    0.0000000    eV*rad^-3 
--------------------------------------------------------------------------------
Si    core    Harmonic      Three-body cnst  1.2614000    eV*rad^-2 0.000  1.900
O1    shel                  Three-body angl  109.47000    degrees   0.000  1.900
O2    shel                  Three-body k4    0.0000000    eV*rad^-4 0.000  3.500
                            Three-body k3    0.0000000    eV*rad^-3 
--------------------------------------------------------------------------------
Si    core    Harmonic      Three-body cnst  1.2614000    eV*rad^-2 0.000  1.900
O1    shel                  Three-body angl  109.47000    degrees   0.000  1.900
õ(2   shel                  Three-body k4    0.0000000    eV*rad^-4 0.000  3.500
                            Three-body k3    0.0000000    eV*rad^-3 
--------------------------------------------------------------------------------
Si    core    Harmonic      Three-body cnst  1.2614000    eV*rad^-2 0.000  1.900
O2    shel                  Three-body angl  109.47000    degrees   0.000  1.900
õ(1   shel                  Three-body k4    0.0000000    eV*rad^-4 0.000  3.500
                            Three-body k3    0.0000000    eV*rad^-3 
--------------------------------------------------------------------------------
Si    core    Harmonic      Three-body cnst  1.2614000    eV*rad^-2 0.000  1.900
õ(1   shel                  Three-body angl  109.47000    degrees   0.000  1.900
õ(2   shel                  Three-body k4    0.0000000    eV*rad^-4 0.000  3.500
                            Three-body k3    0.0000000    eV*rad^-3 
--------------------------------------------------------------------------------
Si    core    Harmonic      Three-body cnst  1.2614000    eV*rad^-2 0.000  1.900
O2    shel                  Three-body angl  109.47000    degrees   0.000  1.900
O2    shel                  Three-body k4    0.0000000    eV*rad^-4 0.000  3.500
                            Three-body k3    0.0000000    eV*rad^-3 
--------------------------------------------------------------------------------
Si    core    Harmonic      Three-body cnst  1.2614000    eV*rad^-2 0.000  1.900
O2    shel                  Three-body angl  109.47000    degrees   0.000  1.900
õ(2   shel                  Three-body k4    0.0000000    eV*rad^-4 0.000  3.500
                            Three-body k3    0.0000000    eV*rad^-3 
--------------------------------------------------------------------------------
Si    core    Harmonic      Three-body cnst  1.2614000    eV*rad^-2 0.000  1.900
õ(2   shel                  Three-body angl  109.47000    degrees   0.000  1.900
õ(2   shel                  Three-body k4    0.0000000    eV*rad^-4 0.000  3.500
                            Three-body k3    0.0000000    eV*rad^-3 
--------------------------------------------------------------------------------

********************************************************************************
*  Output for configuration   1 : c00376.vasp                                  *
********************************************************************************


  Components of energy : 

--------------------------------------------------------------------------------
  Interatomic potentials     =         896.59426478 eV    
  Three-body potentials      =           0.00000000 eV    
  Monopole - monopole (real) =       -2676.00317478 eV    
  Monopole - monopole (recip)=       -1115.35404472 eV    
  Monopole - monopole (total)=       -3791.35721950 eV    
--------------------------------------------------------------------------------
  Total lattice energy       =       -2894.76295472 eV    
--------------------------------------------------------------------------------
  Total lattice energy       =         -279300.3746 kJ/(mole unit cells)
--------------------------------------------------------------------------------


  Number of variables =      363

  Maximum number of calculations  =          1000
  Maximum Hessian update interval =            10
  Maximum step size               =   0.100000000
  Maximum parameter tolerance     =   0.000010000
  Maximum function  tolerance     =   0.000010000
  Maximum gradient  tolerance     =   0.001000000
  Maximum gradient  component     =   0.010000000

  Symmetry not applied to optimisation

  Cell parameters to be optimised using strains

  Newton-Raphson optimiser to be used

  BFGS hessian update to be used

  Lower half triangular hessian to be used

  Minimiser to switch to RFO
  When gradient norm is less than     0.050000

  Dumpfile to be written after every cycle

  Start of bulk optimisation :

  Cycle:      0 Energy:     -2894.762955  Gnorm:      5.836612  CPU:    0.100
  ** Hessian calculated **
  Cycle:      1 Energy:     -2911.297617  Gnorm:      4.821455  CPU:    0.261
  ** Hessian calculated **
  Cycle:      2 Energy:     -2940.543228  Gnorm:      1.160451  CPU:    0.454
  ** Hessian calculated **
  Cycle:      3 Energy:     -2943.014574  Gnorm:      0.878349  CPU:    0.651
  ** Hessian calculated **
  Cycle:      4 Energy:     -2944.715711  Gnorm:      0.426136  CPU:    0.830
  Cycle:      5 Energy:     -2945.123643  Gnorm:      0.258465  CPU:    0.919
  Cycle:      6 Energy:     -2945.427487  Gnorm:      0.215630  CPU:    1.024
  Cycle:      7 Energy:     -2945.784754  Gnorm:      0.171556  CPU:    1.129
  Cycle:      8 Energy:     -2946.037187  Gnorm:      0.150823  CPU:    1.217
  Cycle:      9 Energy:     -2946.166437  Gnorm:      0.101525  CPU:    1.306
  Cycle:     10 Energy:     -2946.218104  Gnorm:      0.079393  CPU:    1.441
  Cycle:     11 Energy:     -2946.254057  Gnorm:      0.070647  CPU:    1.550
  Cycle:     12 Energy:     -2946.285722  Gnorm:      0.068994  CPU:    1.656
  Cycle:     13 Energy:     -2946.322739  Gnorm:      0.077601  CPU:    1.767
  ** Hessian calculated **
  Cycle:     14 Energy:     -2946.334641  Gnorm:      0.077421  CPU:    1.959
  Cycle:     15 Energy:     -2946.363030  Gnorm:      0.076715  CPU:    2.086
  Cycle:     16 Energy:     -2946.453068  Gnorm:      0.073188  CPU:    2.227
  Cycle:     17 Energy:     -2946.561713  Gnorm:      0.068481  CPU:    2.350
  Cycle:     18 Energy:     -2946.623295  Gnorm:      0.065135  CPU:    2.473
  Cycle:     19 Energy:     -2946.639401  Gnorm:      0.066074  CPU:    2.573
  ** Hessian calculated **
  Cycle:     20 Energy:     -2946.648609  Gnorm:      0.055173  CPU:    2.799
  Cycle:     21 Energy:     -2946.661872  Gnorm:      0.050965  CPU:    2.920
  Cycle:     22 Energy:     -2946.680429  Gnorm:      0.050427  CPU:    3.038
  Cycle:     23 Energy:     -2946.702495  Gnorm:      0.052484  CPU:    3.158
  Cycle:     24 Energy:     -2946.719207  Gnorm:      0.049756  CPU:    3.259
  ** Hessian has required structure
  Cycle:     25 Energy:     -2946.724432  Gnorm:      0.080105  CPU:    3.402
  ** Hessian has required structure
  Cycle:     26 Energy:     -2946.742110  Gnorm:      0.097621  CPU:    3.556
  ** Hessian has required structure
  Cycle:     27 Energy:     -2946.756180  Gnorm:      0.103818  CPU:    3.690
  ** Hessian has required structure
  Cycle:     28 Energy:     -2946.759652  Gnorm:      0.102930  CPU:    3.829
  ** Hessian has required structure
  Cycle:     29 Energy:     -2946.766670  Gnorm:      0.118781  CPU:    3.980
  ** Hessian has wrong structure
  ** Imaginary eigenvectors =   6
  ** Hessian has wrong structure
  ** Imaginary eigenvectors =   5
  Cycle:     30 Energy:     -2946.838863  Gnorm:      0.122846  CPU:    4.513
  ** Hessian has wrong structure
  ** Imaginary eigenvectors =   4
  ** Hessian has wrong structure
  ** Imaginary eigenvectors =   4
  Cycle:     31 Energy:     -2946.885873  Gnorm:      0.124653  CPU:    5.012
  ** Hessian has wrong structure
  ** Imaginary eigenvectors =   2
  ** Hessian has wrong structure
  ** Imaginary eigenvectors =   1
  Cycle:     32 Energy:     -2947.085904  Gnorm:      0.140294  CPU:    5.510
  ** Hessian has required structure
  Cycle:     33 Energy:     -2947.551756  Gnorm:      0.103318  CPU:    5.752
  ** Hessian has required structure
  Cycle:     34 Energy:     -2947.816342  Gnorm:      0.072037  CPU:    5.912
  ** Hessian has required structure
  Cycle:     35 Energy:     -2947.911586  Gnorm:      0.067291  CPU:    6.054
  ** Hessian has required structure
  Cycle:     36 Energy:     -2947.960227  Gnorm:      0.039746  CPU:    6.181
  ** Hessian has required structure
  Cycle:     37 Energy:     -2948.002404  Gnorm:      0.047876  CPU:    6.325
  ** Hessian has required structure
  Cycle:     38 Energy:     -2948.017688  Gnorm:      0.051369  CPU:    6.455
  ** Hessian has required structure
  Cycle:     39 Energy:     -2948.035046  Gnorm:      0.043893  CPU:    6.598
  ** Hessian has required structure
  Cycle:     40 Energy:     -2948.045726  Gnorm:      0.033804  CPU:    6.742
  ** Hessian has required structure
  Cycle:     41 Energy:     -2948.052408  Gnorm:      0.022621  CPU:    6.886
  ** Hessian has required structure
  Cycle:     42 Energy:     -2948.056420  Gnorm:      0.015144  CPU:    7.044
  ** Hessian has required structure
  Cycle:     43 Energy:     -2948.059515  Gnorm:      0.007919  CPU:    7.286
  ** Hessian has required structure
  Cycle:     44 Energy:     -2948.060380  Gnorm:      0.004249  CPU:    7.448
  ** Hessian has required structure
  Cycle:     45 Energy:     -2948.060643  Gnorm:      0.002185  CPU:    7.610
  ** Hessian has required structure
  Cycle:     46 Energy:     -2948.060706  Gnorm:      0.001328  CPU:    7.757
  ** Hessian has required structure
  Cycle:     47 Energy:     -2948.060735  Gnorm:      0.000670  CPU:    7.916
  ** Hessian has required structure
  Cycle:     48 Energy:     -2948.060743  Gnorm:      0.000404  CPU:    8.059
  ** Hessian has required structure
  Cycle:     49 Energy:     -2948.060745  Gnorm:      0.000283  CPU:    8.185
  ** Hessian has required structure
  Cycle:     50 Energy:     -2948.060745  Gnorm:      0.000227  CPU:    8.314
  ** Hessian has required structure
  Cycle:     51 Energy:     -2948.060745  Gnorm:      0.000225  CPU:    8.523
  ** Hessian has required structure
  Cycle:     52 Energy:     -2948.060745  Gnorm:      0.000225  CPU:    8.702
  ** Hessian has required structure
  Cycle:     53 Energy:     -2948.060745  Gnorm:      0.000223  CPU:    8.926
  ** Hessian has required structure
  Cycle:     54 Energy:     -2948.060745  Gnorm:      0.000221  CPU:    9.055
  ** Hessian has required structure
  Cycle:     55 Energy:     -2948.060745  Gnorm:      0.000221  CPU:    9.181
  ** Hessian has required structure
  Cycle:     56 Energy:     -2948.060745  Gnorm:      0.000215  CPU:    9.393
  ** Hessian has required structure
  Cycle:     57 Energy:     -2948.060745  Gnorm:      0.000150  CPU:    9.597
  ** Hessian has required structure
  Cycle:     58 Energy:     -2948.060746  Gnorm:      0.000105  CPU:    9.724
  ** Hessian has required structure


  **** Optimisation achieved ****


  Final energy =   -2948.06074565 eV      
  Final Gnorm  =       0.00007375

  Components of energy : 

--------------------------------------------------------------------------------
  Interatomic potentials     =         779.72151238 eV    
  Three-body potentials      =           0.00000000 eV    
  Monopole - monopole (real) =       -1562.92966074 eV    
  Monopole - monopole (recip)=       -2164.85259729 eV    
  Monopole - monopole (total)=       -3727.78225803 eV    
--------------------------------------------------------------------------------
  Total lattice energy       =       -2948.06074565 eV    
--------------------------------------------------------------------------------
  Total lattice energy       =         -284442.7967 kJ/(mole unit cells)
--------------------------------------------------------------------------------

  Final fractional coordinates of atoms :

--------------------------------------------------------------------------------
   No.  Atomic        x           y          z          Radius
        Label       (Frac)      (Frac)     (Frac)       (Angs) 
--------------------------------------------------------------------------------
     1  Ge    c     0.052090    0.000000    0.372270    0.000000
     2  Ge    c     0.443648    0.062058    0.325088    0.000000
     3  Ge    c     0.944568    0.054511    0.620200    0.000000
     4  Ge    c     0.545095    0.005752    0.583595    0.000000
     5  Ge    c     0.544696    0.991668    0.071838    0.000000
     6  Ge    c     0.945291    0.057605    0.117993    0.000000
     7  Ge    c     0.435111    0.052234    0.824308    0.000000
     8  Ge    c     0.169900    0.290097    0.255650    0.000000
     9  Ge    c     0.324286    0.765394    0.251026    0.000000
    10  Ge    c     0.844124    0.367893    0.684797    0.000000
    11  Ge    c     0.636936    0.685888    0.694360    0.000000
    12  Ge    c     0.820201    0.765587    0.686683    0.000000
    13  Ge    c     0.142082    0.687867    0.256968    0.000000
    14  Ge    c     0.671510    0.281978    0.007764    0.000000
    15  Ge    c     0.823034    0.769694    0.002819    0.000000
    16  Ge    c     0.345158    0.367028    0.943732    0.000000
    17  Ge    c     0.141029    0.690542    0.940589    0.000000
    18  Ge    c     0.161592    0.291596    0.941254    0.000000
    19  Ge    c     0.641445    0.680823    0.008843    0.000000
    20  Ge    c     0.851772    0.368687    0.002734    0.000000
    21  Si    c     0.045163    0.997829    0.872223    0.000000
    22  Si    c     0.665361    0.292800    0.697252    0.000000
    23  Si    c     0.348627    0.369649    0.249418    0.000000
    24  Si    c     0.321142    0.764454    0.943980    0.000000
    25  O1    c     0.131188    0.131482    0.349995    0.000000
    26  O1    c     0.374930    0.902334    0.349291    0.000000
    27  O1    c     0.907233    0.252201    0.599337    0.000000
    28  O1    c     0.572654    0.799536    0.604537    0.000000
    29  O1    c     0.870533    0.910033    0.593027    0.000000
    30  O3    c     0.620107    0.146387    0.618606    0.000000
    31  O1    c     0.076405    0.794266    0.343716    0.000000
    32  O3    c     0.405209    0.261921    0.339454    0.000000
    33  O1    c     0.022850    0.020499    0.530150    0.000000
    34  O1    c     0.521613    0.037680    0.421715    0.000000
    35  O1    c     0.975892    0.056156    0.276895    0.000000
    36  O1    c     0.469961    0.039058    0.165347    0.000000
    37  O3    c     0.972416    0.031703    0.783360    0.000000
    38  O1    c     0.462523    0.044322    0.664692    0.000000
    39  O1    c     0.620805    0.134797    0.094964    0.000000
    40  O1    c     0.868090    0.920141    0.098283    0.000000
    41  O1    c     0.407764    0.256952    0.854646    0.000000
    42  O3    c     0.081161    0.814590    0.847850    0.000000
    43  O3    c     0.360561    0.906288    0.852401    0.000000
    44  O3    c     0.110898    0.143328    0.849249    0.000000
    45  O1    c     0.578463    0.791337    0.099144    0.000000
    46  O1    c     0.921693    0.263613    0.083949    0.000000
    47  O1    c     0.515272    0.004623    0.911312    0.000000
    48  O3    c     0.020293    0.996779    0.023111    0.000000
    49  O1    c     0.151834    0.486157    0.319208    0.000000
    50  O3    c     0.339013    0.557096    0.304189    0.000000
    51  O1    c     0.835791    0.567379    0.622148    0.000000
    52  O3    c     0.648037    0.479519    0.638491    0.000000
    53  O3    c     0.267111    0.267527    0.242888    0.000000
    54  O1    c     0.228871    0.798602    0.261043    0.000000
    55  O3    c     0.755392    0.261414    0.689938    0.000000
    56  O1    c     0.723958    0.793841    0.685529    0.000000
    57  O1    c     0.132491    0.277399    0.100296    0.000000
    58  O3    c     0.354262    0.784112    0.090591    0.000000
    59  O1    c     0.876391    0.387663    0.842420    0.000000
    60  O1    c     0.606533    0.672606    0.851163    0.000000
    61  O1    c     0.853554    0.780842    0.844792    0.000000
    62  O3    c     0.639773    0.286445    0.846854    0.000000
    63  O1    c     0.111286    0.669026    0.098277    0.000000
    64  O3    c     0.379422    0.378294    0.102357    0.000000
    65  O1    c     0.655569    0.482158    0.069401    0.000000
    66  O1    c     0.840498    0.568242    0.063443    0.000000
    67  O3    c     0.336418    0.575918    0.890458    0.000000
    68  O1    c     0.144157    0.491112    0.877440    0.000000
    69  O1    c     0.767214    0.249584    0.014444    0.000000
    70  O1    c     0.726637    0.797304    0.002792    0.000000
    71  O1    c     0.257754    0.262580    0.934077    0.000000
    72  O3    c     0.230832    0.790079    0.947675    0.000000
    73  O1    s     0.128258    0.134110    0.344182    0.000000
    74  O1    s     0.375989    0.903246    0.339910    0.000000
    75  O1    s     0.905277    0.246187    0.607274    0.000000
    76  O1    s     0.575419    0.806406    0.609693    0.000000
    77  O1    s     0.872259    0.909866    0.602140    0.000000
    78  O3    s     0.618557    0.149769    0.623780    0.000000
    79  O1    s     0.079570    0.801718    0.339276    0.000000
    80  O3    s     0.402738    0.256938    0.329763    0.000000
    81  O1    s     0.018783    0.021664    0.525497    0.000000
    82  O1    s     0.517104    0.037259    0.425779    0.000000
    83  O1    s     0.979306    0.052020    0.272086    0.000000
    84  O1    s     0.474059    0.036919    0.169488    0.000000
    85  O3    s     0.977695    0.030048    0.780341    0.000000
    86  O1    s     0.466569    0.042056    0.670463    0.000000
    87  O1    s     0.619372    0.136313    0.086290    0.000000
    88  O1    s     0.870528    0.919003    0.092371    0.000000
    89  O1    s     0.404853    0.250584    0.859404    0.000000
    90  O3    s     0.082487    0.821875    0.857341    0.000000
    91  O3    s     0.362517    0.903648    0.859351    0.000000
    92  O3    s     0.108787    0.141585    0.858804    0.000000
    93  O1    s     0.580630    0.797777    0.090549    0.000000
    94  O1    s     0.918067    0.256257    0.080223    0.000000
    95  O1    s     0.511336    0.007297    0.916232    0.000000
    96  O3    s     0.016823    0.001558    0.016646    0.000000
    97  O1    s     0.152433    0.486706    0.309900    0.000000
    98  O3    s     0.338856    0.554106    0.294744    0.000000
    99  O1    s     0.835327    0.565931    0.631670    0.000000
   100  O3    s     0.648776    0.477925    0.648091    0.000000
   101  O3    s     0.267027    0.278791    0.244476    0.000000
   102  O1    s     0.229871    0.788010    0.259965    0.000000
   103  O3    s     0.753605    0.272428    0.690268    0.000000
   104  O1    s     0.724909    0.783707    0.686261    0.000000
   105  O1    s     0.137349    0.279343    0.100054    0.000000
   106  O3    s     0.348952    0.780913    0.089074    0.000000
   107  O1    s     0.872090    0.384750    0.842704    0.000000
   108  O1    s     0.611403    0.674230    0.850579    0.000000
   109  O1    s     0.848851    0.778909    0.844993    0.000000
   110  O3    s     0.644636    0.286715    0.844900    0.000000
   111  O1    s     0.115829    0.672037    0.098253    0.000000
   112  O3    s     0.373880    0.376587    0.103846    0.000000
   113  O1    s     0.655598    0.483492    0.060290    0.000000
   114  O1    s     0.840108    0.567542    0.054538    0.000000
   115  O3    s     0.335684    0.577279    0.899529    0.000000
   116  O1    s     0.145163    0.492190    0.886893    0.000000
   117  O1    s     0.765953    0.260550    0.013087    0.000000
   118  O1    s     0.727719    0.786813    0.003209    0.000000
   119  O1    s     0.257024    0.272702    0.935350    0.000000
   120  O3    s     0.232573    0.779834    0.946799    0.000000
--------------------------------------------------------------------------------

  Final Cartesian lattice vectors (Angstroms) :

       17.524271   -0.313190   -0.115542
       -0.134978    7.846884    0.033201
       -0.070552    0.047474   10.275311


  Final cell parameters and derivatives :

--------------------------------------------------------------------------------
       a           17.527450 Angstrom     dE/de1(xx)     0.005224 eV/strain
       b            7.848115 Angstrom     dE/de2(yy)     0.005834 eV/strain
       c           10.275663 Angstrom     dE/de3(zz)     0.003313 eV/strain
       alpha       89.486186 Degrees      dE/de4(yz)    -0.000101 eV/strain
       beta        90.775754 Degrees      dE/de5(xz)     0.000685 eV/strain
       gamma       92.010878 Degrees      dE/de6(xy)    -0.000104 eV/strain
--------------------------------------------------------------------------------

  Primitive cell volume =          1412.442909 Angs**3

  Density of cell =      2.742319 g/cm**3

  Non-primitive cell volume =          1412.442909 Angs**3


  Final internal derivatives :

--------------------------------------------------------------------------------
   No.  Atomic          a             b             c           Radius
        Label          (eV)          (eV)          (eV)        (eV/Angs)
--------------------------------------------------------------------------------
      1 Ge    c       0.000000      0.000000      0.000000      0.000000
      2 Ge    c       0.001336      0.000371     -0.002169      0.000000
      3 Ge    c       0.000209     -0.000370     -0.000444      0.000000
      4 Ge    c      -0.001284      0.000214     -0.001539      0.000000
      5 Ge    c       0.003151     -0.000592     -0.000782      0.000000
      6 Ge    c      -0.002458     -0.000287      0.000136      0.000000
      7 Ge    c      -0.000230     -0.000760     -0.001707      0.000000
      8 Ge    c       0.001634     -0.001092      0.000043      0.000000
      9 Ge    c       0.001344      0.000861     -0.000309      0.000000
     10 Ge    c       0.000228     -0.000393     -0.000408      0.000000
     11 Ge    c      -0.000653      0.000464     -0.000136      0.000000
     12 Ge    c       0.001304      0.000889     -0.000468      0.000000
     13 Ge    c       0.001555      0.000724      0.000287      0.000000
     14 Ge    c      -0.000847     -0.000677      0.000610      0.000000
     15 Ge    c       0.001491      0.000654      0.000080      0.000000
     16 Ge    c       0.000858     -0.000514      0.000044      0.000000
     17 Ge    c      -0.001301      0.000687     -0.000418      0.000000
     18 Ge    c      -0.000770     -0.000960     -0.000022      0.000000
     19 Ge    c      -0.000703      0.000655      0.000478      0.000000
     20 Ge    c      -0.001245      0.000239      0.000359      0.000000
     21 Si    c       0.002275     -0.000326      0.002031      0.000000
     22 Si    c      -0.000759     -0.000373     -0.000128      0.000000
     23 Si    c      -0.000005     -0.000437      0.000191      0.000000
     24 Si    c       0.000213      0.000768      0.000467      0.000000
     25 O1    c       0.002584      0.001034      0.000249      0.000000
     26 O1    c      -0.003445     -0.001681     -0.000385      0.000000
     27 O1    c      -0.000201     -0.000073     -0.000565      0.000000
     28 O1    c       0.001459     -0.000917      0.000424      0.000000
     29 O1    c      -0.000684      0.000102      0.000498      0.000000
     30 O3    c       0.000890      0.000296      0.000383      0.000000
     31 O1    c       0.001131     -0.002358     -0.000045      0.000000
     32 O3    c      -0.001148      0.001064      0.000453      0.000000
     33 O1    c       0.000905      0.000562     -0.001723      0.000000
     34 O1    c       0.006167     -0.000051      0.004662      0.000000
     35 O1    c      -0.005581     -0.000173     -0.001588      0.000000
     36 O1    c      -0.006074     -0.000302      0.004026      0.000000
     37 O3    c      -0.007260     -0.000017     -0.003594      0.000000
     38 O1    c      -0.000361      0.000045      0.001500      0.000000
     39 O1    c       0.001537      0.000540     -0.000884      0.000000
     40 O1    c      -0.002041     -0.000464     -0.000629      0.000000
     41 O1    c      -0.003133      0.002644      0.000290      0.000000
     42 O3    c       0.001417     -0.000768     -0.000298      0.000000
     43 O3    c      -0.001275     -0.001049     -0.000324      0.000000
     44 O3    c       0.003265      0.001602     -0.000745      0.000000
     45 O1    c       0.000149      0.000516     -0.000288      0.000000
     46 O1    c       0.001658      0.000100      0.000814      0.000000
     47 O1    c       0.003689     -0.000029      0.002502      0.000000
     48 O3    c       0.006561     -0.001026     -0.002074      0.000000
     49 O1    c      -0.000736     -0.000080      0.001636      0.000000
     50 O3    c       0.000878     -0.000388      0.000800      0.000000
     51 O1    c       0.000775     -0.000193     -0.000691      0.000000
     52 O3    c      -0.000480      0.000325     -0.000144      0.000000
     53 O3    c      -0.003191     -0.000089     -0.000070      0.000000
     54 O1    c      -0.001148      0.000723     -0.000317      0.000000
     55 O3    c      -0.000295     -0.000353     -0.000033      0.000000
     56 O1    c      -0.000854      0.000307      0.000031      0.000000
     57 O1    c      -0.001160      0.000002      0.000037      0.000000
     58 O3    c       0.000470      0.000075      0.000661      0.000000
     59 O1    c       0.001148      0.000124     -0.001127      0.000000
     60 O1    c       0.000383     -0.000527     -0.000484      0.000000
     61 O1    c       0.000119     -0.000003      0.000944      0.000000
     62 O3    c      -0.000031      0.000504      0.000678      0.000000
     63 O1    c      -0.002886      0.000451     -0.001705      0.000000
     64 O3    c       0.000476     -0.000204     -0.000392      0.000000
     65 O1    c      -0.000345      0.000272      0.000156      0.000000
     66 O1    c      -0.000554     -0.000645      0.000313      0.000000
     67 O3    c       0.001095     -0.000079     -0.000752      0.000000
     68 O1    c      -0.001676      0.000830     -0.001309      0.000000
     69 O1    c      -0.000112     -0.000643      0.000209      0.000000
     70 O1    c      -0.001772      0.000026      0.000183      0.000000
     71 O1    c      -0.000917     -0.000967      0.000011      0.000000
     72 O3    c       0.003767      0.000651      0.000231      0.000000
     73 O1    s      -0.000082     -0.000061     -0.000049      0.000000
     74 O1    s       0.001683      0.000659      0.001400      0.000000
     75 O1    s       0.000846      0.000410      0.000525      0.000000
     76 O1    s      -0.001314      0.000210     -0.000334      0.000000
     77 O1    s       0.000427     -0.000403     -0.000651      0.000000
     78 O3    s      -0.000953     -0.000102     -0.000053      0.000000
     79 O1    s       0.000738      0.000700      0.001244      0.000000
     80 O3    s       0.000154      0.000115      0.000606      0.000000
     81 O1    s      -0.001349     -0.000466      0.002570      0.000000
     82 O1    s      -0.003627     -0.000247     -0.002433      0.000000
     83 O1    s       0.000654      0.000652      0.001278      0.000000
     84 O1    s       0.004933      0.000303     -0.003164      0.000000
     85 O3    s       0.001458      0.000408      0.001541      0.000000
     86 O1    s       0.001654      0.000073     -0.001387      0.000000
     87 O1    s      -0.001064     -0.000100      0.000485      0.000000
     88 O1    s      -0.000068     -0.000289      0.000509      0.000000
     89 O1    s       0.002131     -0.000949     -0.000657      0.000000
     90 O3    s      -0.000772     -0.000800     -0.000445      0.000000
     91 O3    s      -0.000506      0.000358     -0.000323      0.000000
     92 O3    s      -0.001142     -0.000203      0.000069      0.000000
     93 O1    s       0.000006     -0.000813      0.000183      0.000000
     94 O1    s      -0.000496      0.000819      0.000065      0.000000
     95 O1    s      -0.000706      0.000373     -0.001727      0.000000
     96 O3    s      -0.002642      0.000485      0.001259      0.000000
     97 O1    s       0.000411     -0.000400      0.000109      0.000000
     98 O3    s      -0.000921      0.000146     -0.000444      0.000000
     99 O1    s      -0.000526      0.000265      0.000495      0.000000
    100 O3    s       0.000318      0.000075     -0.000252      0.000000
    101 O3    s       0.001699      0.000391     -0.000259      0.000000
    102 O1    s       0.000903     -0.000435      0.000761      0.000000
    103 O3    s       0.000352      0.000081      0.000047      0.000000
    104 O1    s       0.000379     -0.000205     -0.000010      0.000000
    105 O1    s       0.000064     -0.000058     -0.000005      0.000000
    106 O3    s       0.000076     -0.000214     -0.000605      0.000000
    107 O1    s       0.000667     -0.000184      0.000068      0.000000
    108 O1    s       0.000217      0.000589      0.000321      0.000000
    109 O1    s      -0.000468     -0.000207     -0.000977      0.000000
    110 O3    s      -0.000230     -0.000765     -0.000318      0.000000
    111 O1    s       0.000641     -0.000445      0.000399      0.000000
    112 O3    s       0.000469      0.000235      0.000047      0.000000
    113 O1    s       0.000014     -0.000180      0.000121      0.000000
    114 O1    s       0.000516      0.000607      0.000107      0.000000
    115 O3    s      -0.001570     -0.000006      0.000187      0.000000
    116 O1    s       0.001572     -0.000440      0.000359      0.000000
    117 O1    s      -0.000601      0.000242     -0.000225      0.000000
    118 O1    s       0.000359      0.000059     -0.000364      0.000000
    119 O1    s       0.000335      0.000733     -0.000179      0.000000
    120 O3    s      -0.002320     -0.000750     -0.000147      0.000000
--------------------------------------------------------------------------------
  Maximum abs         0.007260      0.002644      0.004662      0.000000
--------------------------------------------------------------------------------


  Born effective charge tensors : 

-------------------------------------------------------------------------------
  Atom             x           y             z
-------------------------------------------------------------------------------
    1 Ge    x       4.1128     -0.2923     -0.4477
            y       0.1615      3.9192      0.0720
            z      -0.2661      0.0488      4.5516
-------------------------------------------------------------------------------
    2 Ge    x       4.0849     -0.1841     -0.0236
            y       0.1009      3.9239      0.0131
            z       0.8598     -0.0986      4.2626
-------------------------------------------------------------------------------
    3 Ge    x       4.2199     -0.2657      0.1301
            y       0.0615      3.9200     -0.0015
            z      -0.7956      0.1272      4.1097
-------------------------------------------------------------------------------
    4 Ge    x       4.1159     -0.3215      0.4464
            y       0.1128      3.9638     -0.0446
            z       0.1599     -0.1044      4.4941
-------------------------------------------------------------------------------
    5 Ge    x       4.3497     -0.2244      0.0382
            y       0.0788      3.9545      0.0175
            z      -0.6497      0.1661      3.6383
-------------------------------------------------------------------------------
    6 Ge    x       4.1599     -0.1799      0.4168
            y       0.2078      3.9460     -0.0802
            z       0.3176      0.0259      3.9610
-------------------------------------------------------------------------------
    7 Ge    x       4.2076     -0.2761     -0.4349
            y       0.1085      3.9871      0.0363
            z      -0.3627      0.0381      3.9712
-------------------------------------------------------------------------------
    8 Ge    x       3.8200      0.2743     -0.2849
            y       0.2523      4.2011     -0.0734
            z       0.0145     -0.2033      3.6143
-------------------------------------------------------------------------------
    9 Ge    x       3.9441      0.2376      0.2912
            y       0.2752      4.1304      0.1806
            z       0.0165      0.2356      3.4860
-------------------------------------------------------------------------------
   10 Ge    x       3.9408     -0.1495     -0.2155
            y      -0.5031      4.1583      0.0852
            z      -0.0607      0.1701      3.5460
-------------------------------------------------------------------------------
   11 Ge    x       3.9463     -0.0975      0.1455
            y      -0.4679      4.1784     -0.1690
            z       0.0463     -0.2833      3.5607
-------------------------------------------------------------------------------
   12 Ge    x       4.0630      0.2881     -0.2624
            y       0.2960      4.1496     -0.0223
            z      -0.0160     -0.1003      3.5432
-------------------------------------------------------------------------------
   13 Ge    x       3.9318     -0.0755     -0.2138
            y      -0.4697      4.1735      0.0905
            z      -0.1174      0.2016      3.6290
-------------------------------------------------------------------------------
   14 Ge    x       4.0915      0.2359     -0.3496
            y       0.2469      4.1503     -0.0952
            z      -0.0686     -0.1879      3.3988
-------------------------------------------------------------------------------
   15 Ge    x       4.0716      0.2452      0.3236
            y       0.2322      4.1952      0.1017
            z       0.0222      0.1991      3.5014
-------------------------------------------------------------------------------
   16 Ge    x       3.9834     -0.0835     -0.3077
            y      -0.4144      4.1728      0.1851
            z      -0.1282      0.2721      3.4036
-------------------------------------------------------------------------------
   17 Ge    x       3.8870     -0.1064      0.2886
            y      -0.4142      4.1900     -0.0641
            z       0.0377     -0.1352      3.3773
-------------------------------------------------------------------------------
   18 Ge    x       4.0359      0.2298      0.2898
            y       0.2433      4.1518      0.0142
            z       0.0224      0.0860      3.3916
-------------------------------------------------------------------------------
   19 Ge    x       4.0232     -0.1081     -0.2961
            y      -0.4424      4.2076      0.0825
            z      -0.0839      0.1618      3.4270
-------------------------------------------------------------------------------
   20 Ge    x       4.0604     -0.0783      0.2666
            y      -0.4637      4.1777     -0.0625
            z       0.1515     -0.1764      3.4713
-------------------------------------------------------------------------------
   21 Si    x       3.9575     -0.1716     -0.0558
            y       0.0721      3.6979      0.0177
            z       0.6475     -0.1423      3.3739
-------------------------------------------------------------------------------
   22 Si    x       3.7334      0.2496      0.2210
            y       0.2255      3.9486      0.0623
            z       0.0082      0.2294      3.3276
-------------------------------------------------------------------------------
   23 Si    x       3.6004     -0.1028      0.2547
            y      -0.4106      3.9282     -0.1073
            z       0.0481     -0.1867      3.2982
-------------------------------------------------------------------------------
   24 Si    x       3.7383      0.2437     -0.3258
            y       0.1899      3.9473     -0.1088
            z      -0.0129     -0.1911      3.2598
-------------------------------------------------------------------------------
   25 O1    x      -2.1470     -0.8620      0.5147
            y      -0.9056     -2.3254      0.5442
            z       0.4572      0.5584     -1.6857
-------------------------------------------------------------------------------
   26 O1    x      -2.0842     -0.9029     -0.3191
            y      -0.9626     -2.3989     -0.3781
            z      -0.3952     -0.3902     -1.6547
-------------------------------------------------------------------------------
   27 O1    x      -2.0367      0.9310      0.3171
            y       0.9016     -2.5416     -0.2830
            z       0.4134     -0.3204     -1.5670
-------------------------------------------------------------------------------
   28 O1    x      -1.9341      0.8607     -0.4971
            y       0.8026     -2.6579      0.5063
            z      -0.4506      0.5183     -1.6348
-------------------------------------------------------------------------------
   29 O1    x      -2.2088     -0.8983      0.2524
            y      -0.9722     -2.2830      0.3159
            z       0.3460      0.3286     -1.6050
-------------------------------------------------------------------------------
   30 O3    x      -2.0405     -0.8817     -0.5279
            y      -0.9138     -2.2732     -0.5449
            z      -0.4931     -0.5775     -1.5796
-------------------------------------------------------------------------------
   31 O1    x      -1.9154      0.8160      0.5200
            y       0.7647     -2.5489     -0.5465
            z       0.4804     -0.5393     -1.6758
-------------------------------------------------------------------------------
   32 O3    x      -1.8672      0.8485     -0.4079
            y       0.8057     -2.3219      0.3808
            z      -0.4614      0.4271     -1.5480
-------------------------------------------------------------------------------
   33 O1    x      -2.0897      0.2433      0.9328
            y       0.0999     -1.2709     -0.1561
            z       1.2119     -0.2885     -3.1129
-------------------------------------------------------------------------------
   34 O1    x      -2.0734      0.2253     -0.9654
            y       0.0731     -1.2980      0.1535
            z      -1.1590      0.3024     -3.1768
-------------------------------------------------------------------------------
   35 O1    x      -2.0567      0.2360     -0.8151
            y       0.1184     -1.3173      0.1666
            z      -0.8192      0.1855     -2.8210
-------------------------------------------------------------------------------
   36 O1    x      -2.1372      0.2650      0.8569
            y       0.1424     -1.3799     -0.2330
            z       0.8110     -0.2967     -2.5848
-------------------------------------------------------------------------------
   37 O3    x      -2.1055      0.2199     -0.8426
            y       0.0931     -1.2661      0.1444
            z      -0.8262      0.2136     -2.3858
-------------------------------------------------------------------------------
   38 O1    x      -2.1706      0.2075      0.8154
            y       0.0660     -1.2998     -0.1036
            z       0.8430     -0.1610     -2.7457
-------------------------------------------------------------------------------
   39 O1    x      -2.2761     -0.9318      0.3047
            y      -0.9708     -2.2985      0.3279
            z       0.3736      0.3601     -1.4895
-------------------------------------------------------------------------------
   40 O1    x      -2.2562     -0.9079     -0.5176
            y      -0.9205     -2.3017     -0.5130
            z      -0.4308     -0.5026     -1.5710
-------------------------------------------------------------------------------
   41 O1    x      -1.9871      0.8621      0.5717
            y       0.7826     -2.6335     -0.5879
            z       0.4969     -0.5747     -1.5966
-------------------------------------------------------------------------------
   42 O3    x      -1.8872      0.8510     -0.2551
            y       0.8138     -2.4692      0.2103
            z      -0.2930      0.2222     -1.3381
-------------------------------------------------------------------------------
   43 O3    x      -1.9874     -0.8387      0.5489
            y      -0.8456     -2.2530      0.5967
            z       0.4712      0.5821     -1.5676
-------------------------------------------------------------------------------
   44 O3    x      -2.0687     -0.8748     -0.2286
            y      -0.9078     -2.2338     -0.2558
            z      -0.2910     -0.2619     -1.3555
-------------------------------------------------------------------------------
   45 O1    x      -2.0369      0.8594      0.3551
            y       0.8122     -2.5177     -0.2630
            z       0.3976     -0.3039     -1.4706
-------------------------------------------------------------------------------
   46 O1    x      -2.0723      0.8519     -0.5226
            y       0.7683     -2.5332      0.5137
            z      -0.4621      0.4945     -1.5094
-------------------------------------------------------------------------------
   47 O1    x      -2.2156      0.2243     -0.7021
            y       0.1110     -1.3656      0.1579
            z      -0.4745      0.1451     -2.2414
-------------------------------------------------------------------------------
   48 O3    x      -1.9237      0.1910      0.6445
            y       0.1025     -1.3127     -0.1461
            z       0.4405     -0.1267     -2.2303
-------------------------------------------------------------------------------
   49 O1    x      -1.3614      0.2200      0.0915
            y       0.3219     -3.1150     -0.0025
            z       0.0464     -0.0054     -1.4112
-------------------------------------------------------------------------------
   50 O3    x      -1.2577      0.1796     -0.0586
            y       0.2771     -3.0232     -0.1033
            z      -0.0069     -0.0945     -1.2931
-------------------------------------------------------------------------------
   51 O1    x      -1.3526      0.1414      0.0872
            y       0.2599     -3.1247     -0.0008
            z       0.0403      0.0176     -1.4017
-------------------------------------------------------------------------------
   52 O3    x      -1.3032      0.2133     -0.0821
            y       0.3178     -2.9912      0.0966
            z      -0.0506      0.0986     -1.3080
-------------------------------------------------------------------------------
   53 O3    x      -2.8212     -0.3310      0.0283
            y      -0.2789     -1.5053      0.0078
            z       0.0212      0.0411     -1.1577
-------------------------------------------------------------------------------
   54 O1    x      -3.0200     -0.2394      0.0621
            y      -0.1328     -1.5749     -0.0249
            z       0.0910     -0.0537     -1.2261
-------------------------------------------------------------------------------
   55 O3    x      -2.9573     -0.1726      0.0752
            y      -0.0891     -1.4406     -0.0036
            z       0.0707     -0.0417     -1.1553
-------------------------------------------------------------------------------
   56 O1    x      -3.0661     -0.2802      0.0518
            y      -0.1996     -1.5849      0.0250
            z       0.0172      0.0564     -1.2074
-------------------------------------------------------------------------------
   57 O1    x      -1.5215     -0.1168     -0.1389
            y      -0.1343     -1.4230     -0.0408
            z      -0.1079     -0.0114     -2.7020
-------------------------------------------------------------------------------
   58 O3    x      -1.4028     -0.1122     -0.1100
            y      -0.1191     -1.3690     -0.0102
            z      -0.0703     -0.0197     -2.5403
-------------------------------------------------------------------------------
   59 O1    x      -1.4749      0.0135     -0.1237
            y       0.0845     -1.4273     -0.0126
            z      -0.0881     -0.0181     -2.7382
-------------------------------------------------------------------------------
   60 O1    x      -1.4715      0.0394      0.0366
            y       0.1057     -1.4373     -0.0351
            z       0.0268     -0.0010     -2.7021
-------------------------------------------------------------------------------
   61 O1    x      -1.5041     -0.1171     -0.0249
            y      -0.1218     -1.4259     -0.0050
            z      -0.0297     -0.0271     -2.6975
-------------------------------------------------------------------------------
   62 O3    x      -1.3821     -0.0826      0.0821
            y      -0.0829     -1.3514      0.0387
            z       0.0645      0.0329     -2.6008
-------------------------------------------------------------------------------
   63 O1    x      -1.4698      0.0132     -0.0279
            y       0.0882     -1.4337      0.0277
            z      -0.0340      0.0217     -2.7320
-------------------------------------------------------------------------------
   64 O3    x      -1.3774      0.0348      0.1171
            y       0.0975     -1.3655      0.0412
            z       0.0786      0.0136     -2.5438
-------------------------------------------------------------------------------
   65 O1    x      -1.3969      0.2325      0.0897
            y       0.3360     -3.1136     -0.0064
            z       0.0374     -0.0335     -1.3732
-------------------------------------------------------------------------------
   66 O1    x      -1.4076      0.2127     -0.0871
            y       0.3175     -3.1422     -0.0309
            z      -0.0403     -0.0192     -1.3483
-------------------------------------------------------------------------------
   67 O3    x      -1.3089      0.1867      0.1016
            y       0.2792     -3.0382     -0.0786
            z       0.0440     -0.0675     -1.2631
-------------------------------------------------------------------------------
   68 O1    x      -1.3778      0.1263     -0.1277
            y       0.2317     -3.2138     -0.0223
            z      -0.0593     -0.0332     -1.3423
-------------------------------------------------------------------------------
   69 O1    x      -3.0639     -0.2780      0.0123
            y      -0.1840     -1.5796      0.0367
            z      -0.0357      0.0624     -1.2027
-------------------------------------------------------------------------------
   70 O1    x      -3.0936     -0.3023      0.0389
            y      -0.2210     -1.5923     -0.0031
            z       0.0399     -0.0362     -1.1873
-------------------------------------------------------------------------------
   71 O1    x      -3.1059     -0.2838     -0.0181
            y      -0.2255     -1.5762     -0.0425
            z      -0.0102     -0.0662     -1.1942
-------------------------------------------------------------------------------
   72 O3    x      -3.0026     -0.1787     -0.0030
            y      -0.0663     -1.4225      0.0119
            z      -0.0219      0.0373     -1.1225
-------------------------------------------------------------------------------




  Elastic Constant Matrix: (Units=GPa)

-------------------------------------------------------------------------------
  Indices      1         2         3         4         5         6    
-------------------------------------------------------------------------------
       1     26.8235   11.5883    8.4377    0.6976   -0.1994   -7.5191
       2     11.5883   35.2808    6.5046   -0.0015    0.4778   -7.7157
       3      8.4377    6.5046   15.1338    0.0124    0.1370   -2.5039
       4      0.6976   -0.0015    0.0124    8.3935   -2.4564   -0.1528
       5     -0.1994    0.4778    0.1370   -2.4564   15.0238   -0.0438
       6     -7.5191   -7.7157   -2.5039   -0.1528   -0.0438   19.8453
-------------------------------------------------------------------------------


  Elastic Compliance Matrix: (Units=1/GPa)

-------------------------------------------------------------------------------
  Indices      1         2         3         4         5         6    
-------------------------------------------------------------------------------
       1    0.052641 -0.010242 -0.022790 -0.003922  0.000629  0.013059
       2   -0.010242  0.035100 -0.007916  0.000726 -0.001036  0.008770
       3   -0.022790 -0.007916  0.081964  0.001588 -0.000542 -0.001360
       4   -0.003922  0.000726  0.001588  0.125440  0.020420  0.000008
       5    0.000629 -0.001036 -0.000542  0.020420  0.069946  0.000079
       6    0.013059  0.008770 -0.001360  0.000008  0.000079  0.058576
-------------------------------------------------------------------------------

  Mechanical properties :

-------------------------------------------------------------------------------
  Convention :                    Reuss         Voigt         Hill
-------------------------------------------------------------------------------
  Bulk  Modulus (GPa)     =      11.38815      14.47772      12.93293
  Shear Modulus (GPa)     =       9.34872      12.03302      10.69087
-------------------------------------------------------------------------------
  Velocity S-wave (km/s)  =       1.84636       2.09473       1.97446
  Velocity P-wave (km/s)  =       2.94926       3.33615       3.14866
-------------------------------------------------------------------------------
  Compressibility (1/GPa) =    0.08781057
-------------------------------------------------------------------------------
  Stress axis :                     x             y             z
-------------------------------------------------------------------------------
  Youngs Moduli (GPa)     =      18.99643      28.49033      12.20043
-------------------------------------------------------------------------------
  Poissons Ratio (x)      =                     0.29179       0.27804
  Poissons Ratio (y)      =       0.19456                     0.09658
  Poissons Ratio (z)      =       0.43292       0.22553
-------------------------------------------------------------------------------


  Piezoelectric Strain Matrix: (Units=C/m**2)

-------------------------------------------------------------------------------
  Indices      1         2         3         4         5         6    
-------------------------------------------------------------------------------
       x     0.08438  -0.28202  -0.18678   0.01702  -0.08019   0.05183
       y    -0.31168  -0.39517  -0.05390  -0.06138   0.04200  -0.03631
       z     0.10945   0.05285  -0.02404   0.09712   0.42292   0.08295
-------------------------------------------------------------------------------


  Piezoelectric Stress Matrix: (Units=10**-11 C/N)

-------------------------------------------------------------------------------
  Indices      1         2         3         4         5         6    
-------------------------------------------------------------------------------
       x     1.21465  -0.87343  -1.50000  -0.03340  -0.48108   0.19125
       y    -1.13388  -1.06579   0.57424  -0.59925   0.19237  -0.95870
       z     0.67368   0.12843  -0.50709   2.03900   3.15986   0.68189
-------------------------------------------------------------------------------


  Static dielectric constant tensor : 

-------------------------------------------------------------------------------
              x         y         z
-------------------------------------------------------------------------------
       x     5.25857  -0.00136  -0.02753
       y    -0.00136   6.38132   0.05667
       z    -0.02753   0.05667   4.23604
--------------------------------------------------------------------------------

  High frequency dielectric constant tensor : 

-------------------------------------------------------------------------------
              x         y         z
-------------------------------------------------------------------------------
       x     1.54809  -0.00239   0.00056
       y    -0.00239   1.55546   0.00019
       z     0.00056   0.00019   1.50669
-------------------------------------------------------------------------------

  Static refractive indices : 

-------------------------------------------------------------------------------
    1 =    2.05762      2 =    2.29332      3 =    2.52642
-------------------------------------------------------------------------------

  High frequency refractive indices : 

-------------------------------------------------------------------------------
    1 =    1.22747      2 =    1.24394      3 =    1.24747
-------------------------------------------------------------------------------


  Time to end of optimisation =      10.0254 seconds


  Peak dynamic memory used =       5.01 MB 


  Timing analysis for GULP :

--------------------------------------------------------------------------------
  Task / Subroutine                                          Time (Seconds)
--------------------------------------------------------------------------------
  Calculation of reciprocal space energy and derivatives          0.6884
  Calculation of real space energy and derivatives                7.0168
  Calculation of three-body energy and derivatives                0.0883
  Calculation and manipulation of Hessian matrix                  2.5183
  Calculation of matrix inversion                                 0.0424
  Global summation overhead                                       0.0002
--------------------------------------------------------------------------------
  Total CPU time                                                 10.0254
--------------------------------------------------------------------------------


  Dump file written as c00376.vasp.grs
  CIF file written as c00376.vasp.cif


  Job Finished at 13:02.44 31st October    2025                               

