********************************************************************************
*                       GENERAL UTILITY LATTICE PROGRAM                        *
*                                 Julian Gale                                  *
*                       Curtin Institute for Computation                       *
*                    School of Molecular and Life Sciences                     *
*                    Curtin University, Western Australia                      *
********************************************************************************
* Version = 6.1.2 * Last modified =   3rd November 2022                        *
********************************************************************************
*  optimise     - perform optimisation run                                     *
*  conp         - constant pressure calculation                                *
*  property     - calculate properties for final geometry                      *
********************************************************************************

  Job Started  at 13:15.11 31st October    2025                               

  Number of CPUs =     1


  Total number of configurations input =      1

********************************************************************************
*  Input for Configuration =   1 : c00443.vasp                                 *
********************************************************************************

  Formula = Ge20Si4O48                                                  

  Number of irreducible atoms/shells =     120


  Total number atoms/shells =     120

  Dimensionality = 3               :  Bulk   



  Cartesian lattice vectors (Angstroms) :

       17.182800    0.000000    0.000000
        0.000000    7.513760    0.000000
        0.000000    0.000000   10.447700

  Cell parameters (Angstroms/Degrees):

  a =      17.1828    alpha =  90.0000
  b =       7.5138    beta  =  90.0000
  c =      10.4477    gamma =  90.0000

  Initial cell volume =        1348.875752 Angs**3

  Temperature of configuration =   0.00     K 

  Pressure of configuration =         0.000 GPa 

  Fractional coordinates of asymmetric unit :

--------------------------------------------------------------------------------
   No.  Atomic       x           y          z         Charge      Occupancy
        Label      (Frac)      (Frac)     (Frac)        (e)         (Frac)  
--------------------------------------------------------------------------------
      1 Ge    c    0.052090    0.000000    0.372270     4.00000    1.000000    
      2 Ge    c    0.447910 *  0.000000 *  0.372270 *   4.00000    1.000000    
      3 Ge    c    0.947910 *  0.000000 *  0.627730 *   4.00000    1.000000    
      4 Ge    c    0.552090 *  0.000000 *  0.627730 *   4.00000    1.000000    
      5 Ge    c    0.556730 *  0.000000 *  0.122130 *   4.00000    1.000000    
      6 Ge    c    0.943270 *  0.000000 *  0.122130 *   4.00000    1.000000    
      7 Ge    c    0.443270 *  0.000000 *  0.877870 *   4.00000    1.000000    
      8 Ge    c    0.160190 *  0.293910 *  0.273440 *   4.00000    1.000000    
      9 Ge    c    0.339810 *  0.706090 *  0.273440 *   4.00000    1.000000    
     10 Ge    c    0.839810 *  0.293910 *  0.726560 *   4.00000    1.000000    
     11 Ge    c    0.660190 *  0.706090 *  0.726560 *   4.00000    1.000000    
     12 Ge    c    0.160190 *  0.706090 *  0.273440 *   4.00000    1.000000    
     13 Ge    c    0.660660 *  0.294090 *  0.017440 *   4.00000    1.000000    
     14 Ge    c    0.839340 *  0.705910 *  0.017440 *   4.00000    1.000000    
     15 Ge    c    0.339340 *  0.294090 *  0.982560 *   4.00000    1.000000    
     16 Ge    c    0.160660 *  0.705910 *  0.982560 *   4.00000    1.000000    
     17 Ge    c    0.339340 *  0.705910 *  0.982560 *   4.00000    1.000000    
     18 Ge    c    0.160660 *  0.294090 *  0.982560 *   4.00000    1.000000    
     19 Ge    c    0.660660 *  0.705910 *  0.017440 *   4.00000    1.000000    
     20 Ge    c    0.839340 *  0.294090 *  0.017440 *   4.00000    1.000000    
     21 Si    c    0.056730 *  0.000000 *  0.877870 *   4.00000    1.000000    
     22 Si    c    0.839810 *  0.706090 *  0.726560 *   4.00000    1.000000    
     23 Si    c    0.660190 *  0.293910 *  0.726560 *   4.00000    1.000000    
     24 Si    c    0.339810 *  0.293910 *  0.273440 *   4.00000    1.000000    
     25 O1    c    0.106570 *  0.174340 *  0.366200 *   1.73396    1.000000    
     26 O1    c    0.393430 *  0.825660 *  0.366200 *   1.73396    1.000000    
     27 O1    c    0.893430 *  0.174340 *  0.633800 *   1.73396    1.000000    
     28 O1    c    0.606570 *  0.825660 *  0.633800 *   1.73396    1.000000    
     29 O3    c    0.893430 *  0.825660 *  0.633800 *   1.33043    1.000000    
     30 O3    c    0.606570 *  0.174340 *  0.633800 *   1.33043    1.000000    
     31 O1    c    0.106570 *  0.825660 *  0.366200 *   1.73396    1.000000    
     32 O3    c    0.393430 *  0.174340 *  0.366200 *   1.33043    1.000000    
     33 O1    c    0.000000 *  0.000000 *  0.500000 *   1.73396    1.000000    
     34 O1    c    0.500000 *  0.000000 *  0.500000 *   1.73396    1.000000    
     35 O1    c    0.994520 *  0.000000 *  0.250840 *   1.73396    1.000000    
     36 O1    c    0.505480 *  0.000000 *  0.250840 *   1.73396    1.000000    
     37 O3    c    0.005480 *  0.000000 *  0.749160 *   1.33043    1.000000    
     38 O1    c    0.494520 *  0.000000 *  0.749160 *   1.73396    1.000000    
     39 O1    c    0.610230 *  0.175520 *  0.115390 *   1.73396    1.000000    
     40 O1    c    0.889770 *  0.824480 *  0.115390 *   1.73396    1.000000    
     41 O1    c    0.389770 *  0.175520 *  0.884610 *   1.73396    1.000000    
     42 O3    c    0.110230 *  0.824480 *  0.884610 *   1.33043    1.000000    
     43 O1    c    0.389770 *  0.824480 *  0.884610 *   1.73396    1.000000    
     44 O3    c    0.110230 *  0.175520 *  0.884610 *   1.33043    1.000000    
     45 O1    c    0.610230 *  0.824480 *  0.115390 *   1.73396    1.000000    
     46 O1    c    0.889770 *  0.175520 *  0.115390 *   1.73396    1.000000    
     47 O1    c    0.500000 *  0.000000 *  0.000000 *   1.73396    1.000000    
     48 O3    c    0.000000 *  0.000000 *  0.000000 *   1.33043    1.000000    
     49 O1    c    0.151750 *  0.500000 *  0.313330 *   1.73396    1.000000    
     50 O3    c    0.348250 *  0.500000 *  0.313330 *   1.33043    1.000000    
     51 O3    c    0.848250 *  0.500000 *  0.686670 *   1.33043    1.000000    
     52 O3    c    0.651750 *  0.500000 *  0.686670 *   1.33043    1.000000    
     53 O3    c    0.250000 *  0.234950 *  0.285720 *   1.33043    1.000000    
     54 O1    c    0.250000 *  0.765050 *  0.285720 *   1.73396    1.000000    
     55 O3    c    0.750000 *  0.234950 *  0.714280 *   1.33043    1.000000    
     56 O3    c    0.750000 *  0.765050 *  0.714280 *   1.33043    1.000000    
     57 O1    c    0.131410 *  0.268650 *  0.127790 *   1.73396    1.000000    
     58 O1    c    0.368590 *  0.731350 *  0.127790 *   1.73396    1.000000    
     59 O1    c    0.868590 *  0.268650 *  0.872210 *   1.73396    1.000000    
     60 O1    c    0.631410 *  0.731350 *  0.872210 *   1.73396    1.000000    
     61 O3    c    0.868590 *  0.731350 *  0.872210 *   1.33043    1.000000    
     62 O3    c    0.631410 *  0.268650 *  0.872210 *   1.33043    1.000000    
     63 O1    c    0.131410 *  0.731350 *  0.127790 *   1.73396    1.000000    
     64 O3    c    0.368590 *  0.268650 *  0.127790 *   1.33043    1.000000    
     65 O1    c    0.653920 *  0.500000 *  0.058200 *   1.73396    1.000000    
     66 O1    c    0.846080 *  0.500000 *  0.058200 *   1.73396    1.000000    
     67 O1    c    0.346080 *  0.500000 *  0.941800 *   1.73396    1.000000    
     68 O1    c    0.153920 *  0.500000 *  0.941800 *   1.73396    1.000000    
     69 O1    c    0.750000 *  0.231060 *  0.027050 *   1.73396    1.000000    
     70 O1    c    0.750000 *  0.768940 *  0.027050 *   1.73396    1.000000    
     71 O1    c    0.250000 *  0.231060 *  0.972950 *   1.73396    1.000000    
     72 O1    c    0.250000 *  0.768940 *  0.972950 *   1.73396    1.000000    
     73 O1    s    0.106570 *  0.174340 *  0.366200 *  -3.73396    1.000000    
     74 O1    s    0.393430 *  0.825660 *  0.366200 *  -3.73396    1.000000    
     75 O1    s    0.893430 *  0.174340 *  0.633800 *  -3.73396    1.000000    
     76 O1    s    0.606570 *  0.825660 *  0.633800 *  -3.73396    1.000000    
     77 O3    s    0.893430 *  0.825660 *  0.633800 *  -3.33043    1.000000    
     78 O3    s    0.606570 *  0.174340 *  0.633800 *  -3.33043    1.000000    
     79 O1    s    0.106570 *  0.825660 *  0.366200 *  -3.73396    1.000000    
     80 O3    s    0.393430 *  0.174340 *  0.366200 *  -3.33043    1.000000    
     81 O1    s    0.000000 *  0.000000 *  0.500000 *  -3.73396    1.000000    
     82 O1    s    0.500000 *  0.000000 *  0.500000 *  -3.73396    1.000000    
     83 O1    s    0.994520 *  0.000000 *  0.250840 *  -3.73396    1.000000    
     84 O1    s    0.505480 *  0.000000 *  0.250840 *  -3.73396    1.000000    
     85 O3    s    0.005480 *  0.000000 *  0.749160 *  -3.33043    1.000000    
     86 O1    s    0.494520 *  0.000000 *  0.749160 *  -3.73396    1.000000    
     87 O1    s    0.610230 *  0.175520 *  0.115390 *  -3.73396    1.000000    
     88 O1    s    0.889770 *  0.824480 *  0.115390 *  -3.73396    1.000000    
     89 O1    s    0.389770 *  0.175520 *  0.884610 *  -3.73396    1.000000    
     90 O3    s    0.110230 *  0.824480 *  0.884610 *  -3.33043    1.000000    
     91 O1    s    0.389770 *  0.824480 *  0.884610 *  -3.73396    1.000000    
     92 O3    s    0.110230 *  0.175520 *  0.884610 *  -3.33043    1.000000    
     93 O1    s    0.610230 *  0.824480 *  0.115390 *  -3.73396    1.000000    
     94 O1    s    0.889770 *  0.175520 *  0.115390 *  -3.73396    1.000000    
     95 O1    s    0.500000 *  0.000000 *  0.000000 *  -3.73396    1.000000    
     96 O3    s    0.000000 *  0.000000 *  0.000000 *  -3.33043    1.000000    
     97 O1    s    0.151750 *  0.500000 *  0.313330 *  -3.73396    1.000000    
     98 O3    s    0.348250 *  0.500000 *  0.313330 *  -3.33043    1.000000    
     99 O3    s    0.848250 *  0.500000 *  0.686670 *  -3.33043    1.000000    
    100 O3    s    0.651750 *  0.500000 *  0.686670 *  -3.33043    1.000000    
    101 O3    s    0.250000 *  0.234950 *  0.285720 *  -3.33043    1.000000    
    102 O1    s    0.250000 *  0.765050 *  0.285720 *  -3.73396    1.000000    
    103 O3    s    0.750000 *  0.234950 *  0.714280 *  -3.33043    1.000000    
    104 O3    s    0.750000 *  0.765050 *  0.714280 *  -3.33043    1.000000    
    105 O1    s    0.131410 *  0.268650 *  0.127790 *  -3.73396    1.000000    
    106 O1    s    0.368590 *  0.731350 *  0.127790 *  -3.73396    1.000000    
    107 O1    s    0.868590 *  0.268650 *  0.872210 *  -3.73396    1.000000    
    108 O1    s    0.631410 *  0.731350 *  0.872210 *  -3.73396    1.000000    
    109 O3    s    0.868590 *  0.731350 *  0.872210 *  -3.33043    1.000000    
    110 O3    s    0.631410 *  0.268650 *  0.872210 *  -3.33043    1.000000    
    111 O1    s    0.131410 *  0.731350 *  0.127790 *  -3.73396    1.000000    
    112 O3    s    0.368590 *  0.268650 *  0.127790 *  -3.33043    1.000000    
    113 O1    s    0.653920 *  0.500000 *  0.058200 *  -3.73396    1.000000    
    114 O1    s    0.846080 *  0.500000 *  0.058200 *  -3.73396    1.000000    
    115 O1    s    0.346080 *  0.500000 *  0.941800 *  -3.73396    1.000000    
    116 O1    s    0.153920 *  0.500000 *  0.941800 *  -3.73396    1.000000    
    117 O1    s    0.750000 *  0.231060 *  0.027050 *  -3.73396    1.000000    
    118 O1    s    0.750000 *  0.768940 *  0.027050 *  -3.73396    1.000000    
    119 O1    s    0.250000 *  0.231060 *  0.972950 *  -3.73396    1.000000    
    120 O1    s    0.250000 *  0.768940 *  0.972950 *  -3.73396    1.000000    
--------------------------------------------------------------------------------



********************************************************************************
*  General input information                                                   *
********************************************************************************

  Species output for all configurations : 

--------------------------------------------------------------------------------
  Species    Type    Atomic    Atomic    Charge       Radii (Angs)     Library
                     Number     Mass       (e)     Cova   Ionic  VDW   Symbol
--------------------------------------------------------------------------------
    Ge       Core       32      72.61   4.000000   1.170  0.000  1.750 Ge       
    Si       Core       14      28.09   4.000000   1.200  0.000  2.100 Si       
    O1       Core        8      16.00   1.733957   0.730  0.000  1.360 O1       
    O2       Core        8      16.00   0.870733   0.730  0.000  0.000 O2       
    O3       Core        8      16.00   1.330431   0.730  0.000  1.360 O3       
    O1       Shell       8       0.00  -3.733957   0.730  0.000  0.000 O1       
    O2       Shell       8       0.00  -2.870733   0.730  0.000  0.000 O2       
    O3       Shell       8       0.00  -3.330431   0.730  0.000  0.000 O3       
--------------------------------------------------------------------------------


  Lattice summation method               =    Ewald          (3-D)
                                         =    Parry          (2-D)
                                         =    Saunders et al (1-D)
  Accuracy factor for lattice sums       =   12.000


  Analytic derivatives to be used

  Time limit = Infinity

  Maximum range for interatomic potentials =    100000.000000 Angstroms

  General interatomic potentials :

--------------------------------------------------------------------------------
Atom  Types   Potential      Parameter       Value         Units   Cutoffs(Ang)
  1     2                                                            Min /  Max 
--------------------------------------------------------------------------------
Si   c O1   s Buckingham    Buckingham A     1315.2478    eV        0.000 16.000
                            Buckingham rho  0.31775900    Ang       
                            Buckingham C     10.141118    eV*Ang^6  
--------------------------------------------------------------------------------
Si   c O2   s Buckingham    Buckingham A     1315.2478    eV        0.000 16.000
                            Buckingham rho  0.31775900    Ang       
                            Buckingham C     10.141118    eV*Ang^6  
--------------------------------------------------------------------------------
Si   c O3   s Buckingham    Buckingham A     1315.2478    eV        0.000 16.000
                            Buckingham rho  0.31775900    Ang       
                            Buckingham C     10.141118    eV*Ang^6  
--------------------------------------------------------------------------------
Ge   c O1   s Buckingham    Buckingham A     1497.3996    eV        0.000 16.000
                            Buckingham rho  0.32564600    Ang       
                            Buckingham C     16.808599    eV*Ang^6  
--------------------------------------------------------------------------------
Ge   c O2   s Buckingham    Buckingham A     1497.3996    eV        0.000 16.000
                            Buckingham rho  0.32564600    Ang       
                            Buckingham C     16.808599    eV*Ang^6  
--------------------------------------------------------------------------------
Ge   c O3   s Buckingham    Buckingham A     1497.3996    eV        0.000 16.000
                            Buckingham rho  0.32564600    Ang       
                            Buckingham C     16.808599    eV*Ang^6  
--------------------------------------------------------------------------------
O1   s O1   s Buckingham    Buckingham A     22764.000    eV        0.000 16.000
                            Buckingham rho  0.14900000    Ang       
                            Buckingham C     10.937044    eV*Ang^6  
--------------------------------------------------------------------------------
O1   s O2   s Buckingham    Buckingham A     22764.000    eV        0.000 16.000
                            Buckingham rho  0.14900000    Ang       
                            Buckingham C     10.937044    eV*Ang^6  
--------------------------------------------------------------------------------
O1   s O3   s Buckingham    Buckingham A     22764.000    eV        0.000 16.000
                            Buckingham rho  0.14900000    Ang       
                            Buckingham C     10.937044    eV*Ang^6  
--------------------------------------------------------------------------------
O2   s O2   s Buckingham    Buckingham A     22764.000    eV        0.000 16.000
                            Buckingham rho  0.14900000    Ang       
                            Buckingham C     10.937044    eV*Ang^6  
--------------------------------------------------------------------------------
O2   s O3   s Buckingham    Buckingham A     22764.000    eV        0.000 16.000
                            Buckingham rho  0.14900000    Ang       
                            Buckingham C     10.937044    eV*Ang^6  
--------------------------------------------------------------------------------
O3   s O3   s Buckingham    Buckingham A     22764.000    eV        0.000 16.000
                            Buckingham rho  0.14900000    Ang       
                            Buckingham C     10.937044    eV*Ang^6  
--------------------------------------------------------------------------------
O1   c O1   s Spring (c-s)  Spring k 2       180.31577    eV*Ang^-2 0.000  0.800
                            Spring k 4       0.0000000    eV*Ang^-4 
--------------------------------------------------------------------------------
O2   c O2   s Spring (c-s)  Spring k 2       75.969800    eV*Ang^-2 0.000  0.800
                            Spring k 4       0.0000000    eV*Ang^-4 
--------------------------------------------------------------------------------
O3   c O3   s Spring (c-s)  Spring k 2       128.14270    eV*Ang^-2 0.000  0.800
                            Spring k 4       0.0000000    eV*Ang^-4 
--------------------------------------------------------------------------------

  General Three-body potentials :

--------------------------------------------------------------------------------
  Atoms       Potential      Parameter       Value         Units   Cutoffs(Ang)
  1 / 2 / 3                                                          Min /  Max 
--------------------------------------------------------------------------------
Si    core    Harmonic      Three-body cnst  1.2614000    eV*rad^-2 0.000  1.900
O1    shel                  Three-body angl  109.47000    degrees   0.000  1.900
O1    shel                  Three-body k4    0.0000000    eV*rad^-4 0.000  3.500
                            Three-body k3    0.0000000    eV*rad^-3 
--------------------------------------------------------------------------------
Si    core    Harmonic      Three-body cnst  1.2614000    eV*rad^-2 0.000  1.900
O1    shel                  Three-body angl  109.47000    degrees   0.000  1.900
õ(1   shel                  Three-body k4    0.0000000    eV*rad^-4 0.000  3.500
                            Three-body k3    0.0000000    eV*rad^-3 
--------------------------------------------------------------------------------
Si    core    Harmonic      Three-body cnst  1.2614000    eV*rad^-2 0.000  1.900
õ(1   shel                  Three-body angl  109.47000    degrees   0.000  1.900
õ(1   shel                  Three-body k4    0.0000000    eV*rad^-4 0.000  3.500
                            Three-body k3    0.0000000    eV*rad^-3 
--------------------------------------------------------------------------------
Si    core    Harmonic      Three-body cnst  1.2614000    eV*rad^-2 0.000  1.900
O1    shel                  Three-body angl  109.47000    degrees   0.000  1.900
O2    shel                  Three-body k4    0.0000000    eV*rad^-4 0.000  3.500
                            Three-body k3    0.0000000    eV*rad^-3 
--------------------------------------------------------------------------------
Si    core    Harmonic      Three-body cnst  1.2614000    eV*rad^-2 0.000  1.900
O1    shel                  Three-body angl  109.47000    degrees   0.000  1.900
õ(2   shel                  Three-body k4    0.0000000    eV*rad^-4 0.000  3.500
                            Three-body k3    0.0000000    eV*rad^-3 
--------------------------------------------------------------------------------
Si    core    Harmonic      Three-body cnst  1.2614000    eV*rad^-2 0.000  1.900
O2    shel                  Three-body angl  109.47000    degrees   0.000  1.900
õ(1   shel                  Three-body k4    0.0000000    eV*rad^-4 0.000  3.500
                            Three-body k3    0.0000000    eV*rad^-3 
--------------------------------------------------------------------------------
Si    core    Harmonic      Three-body cnst  1.2614000    eV*rad^-2 0.000  1.900
õ(1   shel                  Three-body angl  109.47000    degrees   0.000  1.900
õ(2   shel                  Three-body k4    0.0000000    eV*rad^-4 0.000  3.500
                            Three-body k3    0.0000000    eV*rad^-3 
--------------------------------------------------------------------------------
Si    core    Harmonic      Three-body cnst  1.2614000    eV*rad^-2 0.000  1.900
O2    shel                  Three-body angl  109.47000    degrees   0.000  1.900
O2    shel                  Three-body k4    0.0000000    eV*rad^-4 0.000  3.500
                            Three-body k3    0.0000000    eV*rad^-3 
--------------------------------------------------------------------------------
Si    core    Harmonic      Three-body cnst  1.2614000    eV*rad^-2 0.000  1.900
O2    shel                  Three-body angl  109.47000    degrees   0.000  1.900
õ(2   shel                  Three-body k4    0.0000000    eV*rad^-4 0.000  3.500
                            Three-body k3    0.0000000    eV*rad^-3 
--------------------------------------------------------------------------------
Si    core    Harmonic      Three-body cnst  1.2614000    eV*rad^-2 0.000  1.900
õ(2   shel                  Three-body angl  109.47000    degrees   0.000  1.900
õ(2   shel                  Three-body k4    0.0000000    eV*rad^-4 0.000  3.500
                            Three-body k3    0.0000000    eV*rad^-3 
--------------------------------------------------------------------------------

********************************************************************************
*  Output for configuration   1 : c00443.vasp                                  *
********************************************************************************


  Components of energy : 

--------------------------------------------------------------------------------
  Interatomic potentials     =         896.62096954 eV    
  Three-body potentials      =           0.00000000 eV    
  Monopole - monopole (real) =       -2676.00317478 eV    
  Monopole - monopole (recip)=       -1115.35404472 eV    
  Monopole - monopole (total)=       -3791.35721950 eV    
--------------------------------------------------------------------------------
  Total lattice energy       =       -2894.73624997 eV    
--------------------------------------------------------------------------------
  Total lattice energy       =         -279297.7980 kJ/(mole unit cells)
--------------------------------------------------------------------------------


  Number of variables =      363

  Maximum number of calculations  =          1000
  Maximum Hessian update interval =            10
  Maximum step size               =   0.100000000
  Maximum parameter tolerance     =   0.000010000
  Maximum function  tolerance     =   0.000010000
  Maximum gradient  tolerance     =   0.001000000
  Maximum gradient  component     =   0.010000000

  Symmetry not applied to optimisation

  Cell parameters to be optimised using strains

  Newton-Raphson optimiser to be used

  BFGS hessian update to be used

  Lower half triangular hessian to be used

  Minimiser to switch to RFO
  When gradient norm is less than     0.050000

  Dumpfile to be written after every cycle

  Start of bulk optimisation :

  Cycle:      0 Energy:     -2894.736250  Gnorm:      5.837113  CPU:    0.096
  ** Hessian calculated **
  Cycle:      1 Energy:     -2938.371689  Gnorm:      1.398230  CPU:    0.222
  ** Hessian calculated **
  Cycle:      2 Energy:     -2943.282128  Gnorm:      0.808644  CPU:    0.419
  Cycle:      3 Energy:     -2944.252659  Gnorm:      0.407548  CPU:    0.513
  Cycle:      4 Energy:     -2944.825376  Gnorm:      0.332853  CPU:    0.629
  Cycle:      5 Energy:     -2945.525260  Gnorm:      0.278128  CPU:    0.741
  Cycle:      6 Energy:     -2946.244877  Gnorm:      0.227811  CPU:    0.854
  Cycle:      7 Energy:     -2946.550645  Gnorm:      0.157254  CPU:    0.948
  Cycle:      8 Energy:     -2946.654070  Gnorm:      0.104896  CPU:    1.044
  Cycle:      9 Energy:     -2946.699997  Gnorm:      0.080765  CPU:    1.158
  Cycle:     10 Energy:     -2946.735516  Gnorm:      0.074148  CPU:    1.269
  Cycle:     11 Energy:     -2946.775990  Gnorm:      0.079364  CPU:    1.380
  ** Hessian calculated **
  Cycle:     12 Energy:     -2946.794943  Gnorm:      0.077740  CPU:    1.580
  Cycle:     13 Energy:     -2946.827477  Gnorm:      0.074806  CPU:    1.701
  Cycle:     14 Energy:     -2946.873135  Gnorm:      0.070351  CPU:    1.809
  Cycle:     15 Energy:     -2946.944545  Gnorm:      0.062527  CPU:    1.937
  Cycle:     16 Energy:     -2947.016973  Gnorm:      0.053061  CPU:    2.048
  Cycle:     17 Energy:     -2947.052580  Gnorm:      0.050172  CPU:    2.160
  Cycle:     18 Energy:     -2947.086505  Gnorm:      0.042627  CPU:    2.277
  ** Hessian has wrong structure
  ** Imaginary eigenvectors =   6
  Cycle:     19 Energy:     -2947.123116  Gnorm:      0.112811  CPU:    2.486
  ** Hessian has wrong structure
  ** Imaginary eigenvectors =   4
  ** Hessian has wrong structure
  ** Imaginary eigenvectors =   3
  Cycle:     20 Energy:     -2947.250370  Gnorm:      0.111566  CPU:    2.950
  ** Hessian has wrong structure
  ** Imaginary eigenvectors =   2
  ** Hessian has wrong structure
  ** Imaginary eigenvectors =   1
  Cycle:     21 Energy:     -2947.366754  Gnorm:      0.134166  CPU:    3.394
  ** Hessian has required structure
  Cycle:     22 Energy:     -2947.605809  Gnorm:      0.168046  CPU:    3.533
  ** Hessian has required structure
  Cycle:     23 Energy:     -2947.776128  Gnorm:      0.091347  CPU:    3.659
  ** Hessian has required structure
  Cycle:     24 Energy:     -2947.861566  Gnorm:      0.050075  CPU:    3.800
  ** Hessian has required structure
  Cycle:     25 Energy:     -2947.915111  Gnorm:      0.060113  CPU:    3.955
  ** Hessian has required structure
  Cycle:     26 Energy:     -2947.961899  Gnorm:      0.053649  CPU:    4.094
  ** Hessian has required structure
  Cycle:     27 Energy:     -2947.995837  Gnorm:      0.051134  CPU:    4.235
  ** Hessian has required structure
  Cycle:     28 Energy:     -2948.013548  Gnorm:      0.043890  CPU:    4.375
  ** Hessian has required structure
  Cycle:     29 Energy:     -2948.025299  Gnorm:      0.027592  CPU:    4.515
  ** Hessian has required structure
  Cycle:     30 Energy:     -2948.032382  Gnorm:      0.024498  CPU:    4.656
  ** Hessian has required structure
  Cycle:     31 Energy:     -2948.044787  Gnorm:      0.013146  CPU:    4.888
  ** Hessian has required structure
  Cycle:     32 Energy:     -2948.048172  Gnorm:      0.007421  CPU:    5.042
  ** Hessian has required structure
  Cycle:     33 Energy:     -2948.049169  Gnorm:      0.003847  CPU:    5.198
  ** Hessian has required structure
  Cycle:     34 Energy:     -2948.049463  Gnorm:      0.002037  CPU:    5.349
  ** Hessian has required structure
  Cycle:     35 Energy:     -2948.049550  Gnorm:      0.001020  CPU:    5.503
  ** Hessian has required structure
  Cycle:     36 Energy:     -2948.049571  Gnorm:      0.000522  CPU:    5.656
  ** Hessian has required structure
  Cycle:     37 Energy:     -2948.049577  Gnorm:      0.000308  CPU:    5.797
  ** Hessian has required structure
  Cycle:     38 Energy:     -2948.049578  Gnorm:      0.000216  CPU:    5.921
  ** Hessian has required structure
  Cycle:     39 Energy:     -2948.049579  Gnorm:      0.000149  CPU:    6.042
  ** Hessian has required structure
  Cycle:     40 Energy:     -2948.049579  Gnorm:      0.000104  CPU:    6.165
  ** Hessian has required structure


  **** Optimisation achieved ****


  Final energy =   -2948.04957931 eV      
  Final Gnorm  =       0.00007317

  Components of energy : 

--------------------------------------------------------------------------------
  Interatomic potentials     =         780.50757290 eV    
  Three-body potentials      =           0.00000000 eV    
  Monopole - monopole (real) =       -1556.88047697 eV    
  Monopole - monopole (recip)=       -2171.67667524 eV    
  Monopole - monopole (total)=       -3728.55715221 eV    
--------------------------------------------------------------------------------
  Total lattice energy       =       -2948.04957931 eV    
--------------------------------------------------------------------------------
  Total lattice energy       =         -284441.7193 kJ/(mole unit cells)
--------------------------------------------------------------------------------

  Final fractional coordinates of atoms :

--------------------------------------------------------------------------------
   No.  Atomic        x           y          z          Radius
        Label       (Frac)      (Frac)     (Frac)       (Angs) 
--------------------------------------------------------------------------------
     1  Ge    c     0.052090    0.000000    0.372270    0.000000
     2  Ge    c     0.443374    0.960938    0.400643    0.000000
     3  Ge    c     0.939425    0.958262    0.615406    0.000000
     4  Ge    c     0.550475    0.018746    0.654005    0.000000
     5  Ge    c     0.551803    0.005629    0.156135    0.000000
     6  Ge    c     0.952088    0.942034    0.107873    0.000000
     7  Ge    c     0.445403    0.950016    0.903208    0.000000
     8  Ge    c     0.147826    0.315801    0.296181    0.000000
     9  Ge    c     0.353348    0.640827    0.282490    0.000000
    10  Ge    c     0.824322    0.254976    0.719497    0.000000
    11  Ge    c     0.669882    0.722470    0.723011    0.000000
    12  Ge    c     0.172057    0.716157    0.292535    0.000000
    13  Ge    c     0.646639    0.314923    0.032532    0.000000
    14  Ge    c     0.850464    0.631745    0.044693    0.000000
    15  Ge    c     0.320417    0.237666    0.970705    0.000000
    16  Ge    c     0.165268    0.717408    0.971907    0.000000
    17  Ge    c     0.346208    0.639537    0.963318    0.000000
    18  Ge    c     0.140126    0.311518    0.975952    0.000000
    19  Ge    c     0.672533    0.720814    0.043478    0.000000
    20  Ge    c     0.825428    0.228101    0.038440    0.000000
    21  Si    c     0.049142    0.005241    0.856700    0.000000
    22  Si    c     0.846745    0.647001    0.728328    0.000000
    23  Si    c     0.647292    0.330081    0.717334    0.000000
    24  Si    c     0.325408    0.245358    0.283343    0.000000
    25  O1    c     0.088919    0.199252    0.392626    0.000000
    26  O1    c     0.417409    0.753719    0.374087    0.000000
    27  O1    c     0.869242    0.111888    0.619745    0.000000
    28  O1    c     0.620586    0.866976    0.625931    0.000000
    29  O3    c     0.907904    0.757152    0.652818    0.000000
    30  O3    c     0.587299    0.221011    0.634616    0.000000
    31  O1    c     0.125612    0.854455    0.393899    0.000000
    32  O3    c     0.367913    0.100243    0.370133    0.000000
    33  O1    c     0.972407    0.956837    0.456462    0.000000
    34  O1    c     0.470112    0.985630    0.563792    0.000000
    35  O1    c     0.026802    0.985926    0.206045    0.000000
    36  O1    c     0.523765    0.010353    0.317488    0.000000
    37  O3    c     0.020334    0.006468    0.705374    0.000000
    38  O1    c     0.523321    0.997563    0.816282    0.000000
    39  O1    c     0.577063    0.208707    0.109891    0.000000
    40  O1    c     0.919467    0.737311    0.128062    0.000000
    41  O1    c     0.371899    0.097226    0.880801    0.000000
    42  O3    c     0.119488    0.873115    0.876599    0.000000
    43  O1    c     0.408147    0.753083    0.870730    0.000000
    44  O3    c     0.072646    0.197068    0.891973    0.000000
    45  O1    c     0.626687    0.863721    0.141535    0.000000
    46  O1    c     0.877150    0.083035    0.130445    0.000000
    47  O1    c     0.473785    0.945748    0.067177    0.000000
    48  O3    c     0.978694    0.949596    0.943534    0.000000
    49  O1    c     0.157263    0.514933    0.357261    0.000000
    50  O3    c     0.342178    0.433022    0.340594    0.000000
    51  O3    c     0.839085    0.461677    0.662783    0.000000
    52  O3    c     0.654079    0.519890    0.659673    0.000000
    53  O3    c     0.235966    0.213233    0.284204    0.000000
    54  O1    c     0.267370    0.748314    0.289002    0.000000
    55  O3    c     0.727386    0.226582    0.716566    0.000000
    56  O3    c     0.766794    0.752018    0.722051    0.000000
    57  O1    c     0.112883    0.329898    0.136587    0.000000
    58  O1    c     0.381795    0.628364    0.123083    0.000000
    59  O1    c     0.855804    0.217112    0.877721    0.000000
    60  O1    c     0.640345    0.745000    0.882449    0.000000
    61  O3    c     0.871795    0.610468    0.878724    0.000000
    62  O3    c     0.621569    0.348553    0.868121    0.000000
    63  O1    c     0.136367    0.728470    0.132548    0.000000
    64  O3    c     0.353925    0.235103    0.133398    0.000000
    65  O1    c     0.658188    0.513994    0.096985    0.000000
    66  O1    c     0.839868    0.429260    0.102519    0.000000
    67  O1    c     0.333251    0.439364    0.905149    0.000000
    68  O1    c     0.147880    0.515007    0.913450    0.000000
    69  O1    c     0.729739    0.195224    0.042997    0.000000
    70  O1    c     0.768141    0.752823    0.051572    0.000000
    71  O1    c     0.225430    0.201303    0.966907    0.000000
    72  O1    c     0.260601    0.750108    0.967895    0.000000
    73  O1    s     0.090564    0.193170    0.383956    0.000000
    74  O1    s     0.414528    0.760649    0.369198    0.000000
    75  O1    s     0.871189    0.111083    0.627178    0.000000
    76  O1    s     0.619281    0.866858    0.635436    0.000000
    77  O3    s     0.904380    0.762596    0.657270    0.000000
    78  O3    s     0.590204    0.215920    0.643975    0.000000
    79  O1    s     0.123673    0.854733    0.384550    0.000000
    80  O3    s     0.369784    0.103541    0.363821    0.000000
    81  O1    s     0.976243    0.960313    0.461504    0.000000
    82  O1    s     0.474428    0.986369    0.558959    0.000000
    83  O1    s     0.022434    0.983331    0.209568    0.000000
    84  O1    s     0.519888    0.006338    0.311818    0.000000
    85  O3    s     0.016807    0.002588    0.712780    0.000000
    86  O1    s     0.519137    0.995358    0.811535    0.000000
    87  O1    s     0.580699    0.202131    0.107170    0.000000
    88  O1    s     0.916531    0.743873    0.120291    0.000000
    89  O1    s     0.373176    0.097685    0.889613    0.000000
    90  O3    s     0.116347    0.873344    0.882381    0.000000
    91  O1    s     0.406272    0.758867    0.879881    0.000000
    92  O3    s     0.075830    0.187982    0.895375    0.000000
    93  O1    s     0.624599    0.863292    0.134954    0.000000
    94  O1    s     0.878598    0.084057    0.121598    0.000000
    95  O1    s     0.477572    0.950568    0.062172    0.000000
    96  O3    s     0.983378    0.954350    0.947545    0.000000
    97  O1    s     0.157588    0.513571    0.347713    0.000000
    98  O3    s     0.341487    0.431426    0.330932    0.000000
    99  O3    s     0.838694    0.463483    0.673310    0.000000
   100  O3    s     0.654603    0.516570    0.670100    0.000000
   101  O3    s     0.237842    0.224058    0.285002    0.000000
   102  O1    s     0.266417    0.737904    0.288786    0.000000
   103  O3    s     0.727459    0.238418    0.716888    0.000000
   104  O3    s     0.766663    0.740078    0.722709    0.000000
   105  O1    s     0.117502    0.327483    0.136232    0.000000
   106  O1    s     0.377015    0.630134    0.123794    0.000000
   107  O1    s     0.851208    0.220757    0.877257    0.000000
   108  O1    s     0.644857    0.741596    0.882322    0.000000
   109  O3    s     0.867689    0.615625    0.876705    0.000000
   110  O3    s     0.625976    0.344197    0.866629    0.000000
   111  O1    s     0.141037    0.726784    0.132120    0.000000
   112  O3    s     0.348746    0.236232    0.135129    0.000000
   113  O1    s     0.658347    0.513822    0.088248    0.000000
   114  O1    s     0.839662    0.430733    0.093432    0.000000
   115  O1    s     0.333340    0.440573    0.914432    0.000000
   116  O1    s     0.148541    0.514457    0.922255    0.000000
   117  O1    s     0.730787    0.206313    0.041901    0.000000
   118  O1    s     0.767039    0.741562    0.050427    0.000000
   119  O1    s     0.226453    0.212164    0.967870    0.000000
   120  O1    s     0.259590    0.739627    0.967889    0.000000
--------------------------------------------------------------------------------

  Final Cartesian lattice vectors (Angstroms) :

       17.653507    0.206338   -0.163970
        0.091674    7.824897    0.038145
       -0.101992    0.051521   10.131339


  Final cell parameters and derivatives :

--------------------------------------------------------------------------------
       a           17.655474 Angstrom     dE/de1(xx)     0.007825 eV/strain
       b            7.825527 Angstrom     dE/de2(yy)     0.007820 eV/strain
       c           10.131983 Angstrom     dE/de3(zz)     0.004121 eV/strain
       alpha       89.436153 Degrees      dE/de4(yz)    -0.000265 eV/strain
       beta        91.105441 Degrees      dE/de5(xz)    -0.000015 eV/strain
       gamma       88.661784 Degrees      dE/de6(xy)    -0.000631 eV/strain
--------------------------------------------------------------------------------

  Primitive cell volume =          1399.152664 Angs**3

  Density of cell =      2.768367 g/cm**3

  Non-primitive cell volume =          1399.152664 Angs**3


  Final internal derivatives :

--------------------------------------------------------------------------------
   No.  Atomic          a             b             c           Radius
        Label          (eV)          (eV)          (eV)        (eV/Angs)
--------------------------------------------------------------------------------
      1 Ge    c       0.000000      0.000000      0.000000      0.000000
      2 Ge    c       0.000849      0.000237      0.000998      0.000000
      3 Ge    c       0.000758      0.001158     -0.000933      0.000000
      4 Ge    c      -0.000065     -0.000104      0.001120      0.000000
      5 Ge    c       0.000733      0.000887      0.000473      0.000000
      6 Ge    c       0.003586     -0.000867     -0.000937      0.000000
      7 Ge    c       0.000324     -0.000434      0.000199      0.000000
      8 Ge    c      -0.000221     -0.000302     -0.000535      0.000000
      9 Ge    c       0.000583      0.000239     -0.000070      0.000000
     10 Ge    c       0.001104     -0.000499     -0.000180      0.000000
     11 Ge    c      -0.000526      0.000461     -0.000065      0.000000
     12 Ge    c      -0.000867      0.000506     -0.000406      0.000000
     13 Ge    c      -0.001001     -0.000033      0.000485      0.000000
     14 Ge    c      -0.000266     -0.000629      0.001050      0.000000
     15 Ge    c       0.000254     -0.000369     -0.000614      0.000000
     16 Ge    c      -0.000786      0.000176      0.000108      0.000000
     17 Ge    c       0.000636      0.000343      0.000300      0.000000
     18 Ge    c      -0.000881     -0.000625     -0.000429      0.000000
     19 Ge    c      -0.002425      0.000534     -0.000406      0.000000
     20 Ge    c       0.002382     -0.000682     -0.000760      0.000000
     21 Si    c       0.001000      0.000512     -0.000259      0.000000
     22 Si    c      -0.003476     -0.000646     -0.001099      0.000000
     23 Si    c      -0.001176     -0.000544     -0.000191      0.000000
     24 Si    c       0.000385     -0.000253     -0.000286      0.000000
     25 O1    c       0.001431      0.001030      0.001691      0.000000
     26 O1    c       0.000126     -0.001609      0.000052      0.000000
     27 O1    c      -0.002944      0.002125      0.000353      0.000000
     28 O1    c       0.001654     -0.000915      0.000348      0.000000
     29 O3    c       0.001738     -0.001300     -0.002047      0.000000
     30 O3    c      -0.000354      0.000152     -0.000971      0.000000
     31 O1    c       0.004886     -0.002026      0.000803      0.000000
     32 O3    c      -0.002109      0.000716      0.000247      0.000000
     33 O1    c      -0.003759     -0.000403      0.001296      0.000000
     34 O1    c      -0.002158      0.000170     -0.001462      0.000000
     35 O1    c       0.005082     -0.001152      0.000741      0.000000
     36 O1    c       0.002207      0.000365      0.000087      0.000000
     37 O3    c       0.004359      0.000528      0.001303      0.000000
     38 O1    c      -0.000382     -0.000643     -0.000506      0.000000
     39 O1    c      -0.000538      0.001145     -0.000442      0.000000
     40 O1    c      -0.000071     -0.001136      0.001479      0.000000
     41 O1    c      -0.001656      0.000925      0.000301      0.000000
     42 O3    c       0.001840     -0.000458      0.000452      0.000000
     43 O1    c       0.001607      0.000946     -0.001154      0.000000
     44 O3    c       0.000536      0.000746      0.000429      0.000000
     45 O1    c       0.004008     -0.003395     -0.000205      0.000000
     46 O1    c      -0.006551      0.003119      0.001104      0.000000
     47 O1    c      -0.005044     -0.000636     -0.001437      0.000000
     48 O3    c      -0.002713      0.000613      0.001661      0.000000
     49 O1    c      -0.001296     -0.000319      0.001184      0.000000
     50 O3    c       0.000515      0.000089      0.000820      0.000000
     51 O3    c       0.000933     -0.000314     -0.000826      0.000000
     52 O3    c      -0.000503      0.001071     -0.000764      0.000000
     53 O3    c      -0.000141     -0.000695     -0.000104      0.000000
     54 O1    c      -0.000699      0.000895      0.000046      0.000000
     55 O3    c       0.003315     -0.000932      0.000015      0.000000
     56 O3    c      -0.003977      0.001586      0.000399      0.000000
     57 O1    c      -0.000341      0.000102      0.001054      0.000000
     58 O1    c       0.001000      0.000118     -0.000891      0.000000
     59 O1    c       0.000861     -0.000285      0.000346      0.000000
     60 O1    c      -0.000178     -0.000038     -0.000160      0.000000
     61 O3    c       0.004473     -0.000465      0.002635      0.000000
     62 O3    c      -0.001014     -0.000012      0.000203      0.000000
     63 O1    c      -0.001071      0.000053     -0.000061      0.000000
     64 O3    c       0.000536      0.000038      0.000059      0.000000
     65 O1    c      -0.001044     -0.001243      0.000639      0.000000
     66 O1    c       0.001756      0.002632      0.000948      0.000000
     67 O1    c       0.000502     -0.000437     -0.001066      0.000000
     68 O1    c      -0.000397      0.000833     -0.000375      0.000000
     69 O1    c      -0.002575     -0.001485      0.000118      0.000000
     70 O1    c       0.001152      0.001528     -0.000304      0.000000
     71 O1    c       0.000637     -0.000763      0.000012      0.000000
     72 O1    c      -0.000614      0.000706      0.000037      0.000000
     73 O1    s      -0.001900      0.000454     -0.000543      0.000000
     74 O1    s       0.000331      0.000579      0.000525      0.000000
     75 O1    s      -0.000072     -0.000715     -0.000747      0.000000
     76 O1    s      -0.000360      0.000348     -0.000441      0.000000
     77 O3    s       0.001508      0.000683     -0.000482      0.000000
     78 O3    s      -0.000827     -0.000218      0.000291      0.000000
     79 O1    s      -0.001971      0.000535      0.000275      0.000000
     80 O3    s      -0.000096     -0.000364     -0.000241      0.000000
     81 O1    s       0.001968      0.000322     -0.001794      0.000000
     82 O1    s       0.001359     -0.000038      0.001626      0.000000
     83 O1    s      -0.003072      0.001229     -0.000756      0.000000
     84 O1    s      -0.000221     -0.000290      0.000144      0.000000
     85 O3    s      -0.000634     -0.000628     -0.000265      0.000000
     86 O1    s       0.000035      0.000942      0.000426      0.000000
     87 O1    s       0.001045     -0.000030      0.000471      0.000000
     88 O1    s       0.000295      0.000171     -0.000059      0.000000
     89 O1    s       0.000620     -0.000409     -0.000360      0.000000
     90 O3    s      -0.000870     -0.000073      0.000045      0.000000
     91 O1    s      -0.000331     -0.000904      0.000481      0.000000
     92 O3    s      -0.000568     -0.000128      0.000085      0.000000
     93 O1    s      -0.000950      0.001623      0.000377      0.000000
     94 O1    s       0.003693     -0.001912      0.000237      0.000000
     95 O1    s       0.001058      0.000573      0.000539      0.000000
     96 O3    s       0.000990     -0.000968     -0.001481      0.000000
     97 O1    s       0.001700      0.000161     -0.000767      0.000000
     98 O3    s      -0.000583     -0.000168     -0.000077      0.000000
     99 O3    s      -0.001567     -0.001157     -0.000053      0.000000
    100 O3    s       0.000237      0.000118      0.000149      0.000000
    101 O3    s       0.000061      0.000433      0.000044      0.000000
    102 O1    s      -0.000006     -0.000463      0.000046      0.000000
    103 O3    s      -0.000555      0.000375     -0.000221      0.000000
    104 O3    s      -0.002177     -0.000537     -0.001322      0.000000
    105 O1    s      -0.000737      0.000140     -0.000427      0.000000
    106 O1    s      -0.000013     -0.000176      0.000184      0.000000
    107 O1    s      -0.000707      0.000589     -0.000312      0.000000
    108 O1    s      -0.000716      0.000163     -0.000176      0.000000
    109 O3    s       0.003079     -0.000094      0.000409      0.000000
    110 O3    s      -0.001186     -0.000212      0.000370      0.000000
    111 O1    s       0.001338     -0.000197     -0.000020      0.000000
    112 O3    s      -0.000022     -0.000080     -0.000305      0.000000
    113 O1    s       0.000880      0.000539     -0.000096      0.000000
    114 O1    s      -0.001610     -0.001517     -0.000488      0.000000
    115 O1    s      -0.000713      0.000035      0.000507      0.000000
    116 O1    s       0.000339     -0.000261     -0.000148      0.000000
    117 O1    s       0.000672      0.001010      0.000044      0.000000
    118 O1    s      -0.000820     -0.000790      0.001096      0.000000
    119 O1    s       0.000220      0.000450     -0.000217      0.000000
    120 O1    s      -0.000006     -0.000284     -0.000135      0.000000
--------------------------------------------------------------------------------
  Maximum abs         0.006551      0.003395      0.002635      0.000000
--------------------------------------------------------------------------------


  Born effective charge tensors : 

-------------------------------------------------------------------------------
  Atom             x           y             z
-------------------------------------------------------------------------------
    1 Ge    x       4.1938      0.2599      0.0399
            y      -0.0735      3.9044      0.0259
            z      -0.8665     -0.1512      4.2412
-------------------------------------------------------------------------------
    2 Ge    x       4.1165      0.3221      0.4673
            y      -0.1240      3.9496      0.0869
            z       0.2231      0.0864      4.4480
-------------------------------------------------------------------------------
    3 Ge    x       4.1021      0.1430     -0.4632
            y      -0.2026      3.9177     -0.1281
            z      -0.2805      0.0399      4.3831
-------------------------------------------------------------------------------
    4 Ge    x       4.2029      0.2210     -0.1160
            y      -0.1175      3.9053      0.0212
            z       0.7909      0.1569      4.1444
-------------------------------------------------------------------------------
    5 Ge    x       4.2891      0.1980     -0.4300
            y      -0.1711      3.9323     -0.1011
            z      -0.3422      0.0122      3.9933
-------------------------------------------------------------------------------
    6 Ge    x       4.2856      0.2137     -0.0358
            y      -0.1136      3.9274      0.0219
            z       0.6785      0.1955      3.6295
-------------------------------------------------------------------------------
    7 Ge    x       4.3870      0.1985      0.0526
            y      -0.0520      3.9205      0.0224
            z      -0.6646     -0.1570      3.6546
-------------------------------------------------------------------------------
    8 Ge    x       3.8768      0.1379     -0.2542
            y       0.4942      4.1537     -0.0734
            z      -0.0750     -0.1686      3.6248
-------------------------------------------------------------------------------
    9 Ge    x       3.9265      0.0906      0.1713
            y       0.4600      4.1806      0.1693
            z       0.0561      0.2924      3.5834
-------------------------------------------------------------------------------
   10 Ge    x       3.8630     -0.3082     -0.2547
            y      -0.3565      4.1593      0.1099
            z       0.0006      0.1883      3.5403
-------------------------------------------------------------------------------
   11 Ge    x       3.8962     -0.3158      0.2504
            y      -0.3670      4.1297     -0.0765
            z       0.0233     -0.1651      3.5137
-------------------------------------------------------------------------------
   12 Ge    x       4.0128     -0.2455     -0.2739
            y      -0.2672      4.1508      0.0628
            z      -0.0314      0.1540      3.6183
-------------------------------------------------------------------------------
   13 Ge    x       4.0142      0.0827     -0.3178
            y       0.4569      4.1780     -0.0503
            z      -0.2024     -0.2043      3.4444
-------------------------------------------------------------------------------
   14 Ge    x       4.0012      0.0924      0.3180
            y       0.4512      4.2079      0.0813
            z       0.1470      0.1877      3.3839
-------------------------------------------------------------------------------
   15 Ge    x       4.0964     -0.2307     -0.3713
            y      -0.2544      4.1344      0.0825
            z      -0.0702      0.1663      3.4308
-------------------------------------------------------------------------------
   16 Ge    x       4.0258     -0.2167      0.2888
            y      -0.1966      4.2022     -0.0380
            z      -0.0112     -0.1345      3.4802
-------------------------------------------------------------------------------
   17 Ge    x       4.0413      0.1092     -0.2899
            y       0.4313      4.2172     -0.0912
            z      -0.0663     -0.1647      3.4443
-------------------------------------------------------------------------------
   18 Ge    x       3.9448      0.0205      0.2258
            y       0.4157      4.2194      0.0679
            z       0.0825      0.1671      3.4725
-------------------------------------------------------------------------------
   19 Ge    x       4.0362     -0.2374     -0.3284
            y      -0.2488      4.2059      0.1358
            z      -0.0610      0.2015      3.5521
-------------------------------------------------------------------------------
   20 Ge    x       4.0855     -0.2742      0.3031
            y      -0.2899      4.1731     -0.0684
            z       0.0387     -0.1455      3.4632
-------------------------------------------------------------------------------
   21 Si    x       3.9329      0.2049      0.4009
            y      -0.1631      3.7023      0.0944
            z       0.3067     -0.0047      3.6683
-------------------------------------------------------------------------------
   22 Si    x       3.6846      0.0941     -0.1696
            y       0.4487      3.9254     -0.0913
            z      -0.0883     -0.2475      3.2857
-------------------------------------------------------------------------------
   23 Si    x       3.6566      0.0954      0.1918
            y       0.4320      3.9229      0.1016
            z       0.0782      0.2099      3.2717
-------------------------------------------------------------------------------
   24 Si    x       3.7030     -0.2426      0.2681
            y      -0.2098      3.9384     -0.0628
            z      -0.0063     -0.2080      3.3376
-------------------------------------------------------------------------------
   25 O1    x      -1.9499     -0.8716      0.3648
            y      -0.8504     -2.5200      0.3273
            z       0.4439      0.3604     -1.6346
-------------------------------------------------------------------------------
   26 O1    x      -1.9182     -0.8421     -0.5135
            y      -0.7772     -2.6515     -0.5497
            z      -0.4564     -0.5420     -1.6541
-------------------------------------------------------------------------------
   27 O1    x      -2.1379      0.9324      0.4636
            y       0.9887     -2.4326     -0.4888
            z       0.4155     -0.5138     -1.6503
-------------------------------------------------------------------------------
   28 O1    x      -2.1428      0.9114     -0.2752
            y       0.9999     -2.4133      0.3337
            z      -0.3715      0.3572     -1.5886
-------------------------------------------------------------------------------
   29 O3    x      -1.9419     -0.8892      0.5169
            y      -0.8317     -2.3596      0.5365
            z       0.4548      0.5196     -1.5327
-------------------------------------------------------------------------------
   30 O3    x      -1.9266     -0.8720     -0.3657
            y      -0.8322     -2.3362     -0.3286
            z      -0.4501     -0.3910     -1.4871
-------------------------------------------------------------------------------
   31 O1    x      -2.1469      0.8586      0.3197
            y       0.9437     -2.2690     -0.3858
            z       0.3995     -0.3825     -1.6549
-------------------------------------------------------------------------------
   32 O3    x      -2.0161      0.8590     -0.5289
            y       0.8803     -2.2384      0.5425
            z      -0.4800      0.5732     -1.5951
-------------------------------------------------------------------------------
   33 O1    x      -2.1851     -0.2229      0.9482
            y      -0.0958     -1.2753      0.0997
            z       1.2394      0.1756     -3.0700
-------------------------------------------------------------------------------
   34 O1    x      -2.1438     -0.2536     -0.9311
            y      -0.0866     -1.2954     -0.1488
            z      -1.1598     -0.2961     -3.0718
-------------------------------------------------------------------------------
   35 O1    x      -2.0924     -0.2269     -0.8073
            y      -0.0998     -1.3413     -0.1696
            z      -0.8064     -0.2307     -2.6767
-------------------------------------------------------------------------------
   36 O1    x      -2.1546     -0.2055      0.7901
            y      -0.0735     -1.2969      0.0872
            z       0.8037      0.1133     -2.7197
-------------------------------------------------------------------------------
   37 O3    x      -1.9416     -0.1939     -0.7553
            y      -0.0922     -1.2365     -0.1094
            z      -0.7635     -0.1290     -2.6340
-------------------------------------------------------------------------------
   38 O1    x      -2.2107     -0.2630      0.8442
            y      -0.1457     -1.3563      0.1900
            z       0.8270      0.2438     -2.5470
-------------------------------------------------------------------------------
   39 O1    x      -2.0811     -0.8544      0.5705
            y      -0.7835     -2.4878      0.5732
            z       0.5131      0.5601     -1.5791
-------------------------------------------------------------------------------
   40 O1    x      -2.1057     -0.8960     -0.3390
            y      -0.8402     -2.5012     -0.2455
            z      -0.4029     -0.2899     -1.4648
-------------------------------------------------------------------------------
   41 O1    x      -2.2739      0.9283      0.3346
            y       0.9766     -2.2860     -0.3486
            z       0.3978     -0.3686     -1.5118
-------------------------------------------------------------------------------
   42 O3    x      -2.1386      0.8855     -0.4711
            y       0.8801     -2.1956      0.4314
            z      -0.3911      0.4310     -1.4409
-------------------------------------------------------------------------------
   43 O1    x      -2.0501     -0.8687      0.3331
            y      -0.8400     -2.4926      0.2345
            z       0.3843      0.2758     -1.4938
-------------------------------------------------------------------------------
   44 O3    x      -1.8408     -0.7821     -0.4658
            y      -0.7051     -2.4972     -0.5296
            z      -0.4021     -0.4952     -1.4338
-------------------------------------------------------------------------------
   45 O1    x      -2.2411      0.9118      0.5412
            y       0.9297     -2.2913     -0.5107
            z       0.4828     -0.5199     -1.6153
-------------------------------------------------------------------------------
   46 O1    x      -2.2805      0.9231     -0.2804
            y       0.9723     -2.2792      0.3201
            z      -0.3544      0.3318     -1.4977
-------------------------------------------------------------------------------
   47 O1    x      -2.1740     -0.2425     -0.6836
            y      -0.1525     -1.3744     -0.1497
            z      -0.4684     -0.1241     -2.2826
-------------------------------------------------------------------------------
   48 O3    x      -2.0733     -0.2544      0.6919
            y      -0.1504     -1.3158      0.1800
            z       0.4636      0.1522     -2.1006
-------------------------------------------------------------------------------
   49 O1    x      -1.3409     -0.1331      0.0839
            y      -0.2621     -3.1499     -0.0050
            z       0.0368     -0.0159     -1.4022
-------------------------------------------------------------------------------
   50 O3    x      -1.2963     -0.2019     -0.0833
            y      -0.3055     -3.0028     -0.0910
            z      -0.0450     -0.0966     -1.3046
-------------------------------------------------------------------------------
   51 O3    x      -1.2809     -0.1867      0.0495
            y      -0.2484     -2.9693     -0.1600
            z       0.0084     -0.1704     -1.3172
-------------------------------------------------------------------------------
   52 O3    x      -1.2783     -0.1760     -0.0697
            y      -0.2513     -2.9749      0.0677
            z      -0.0274      0.1101     -1.2978
-------------------------------------------------------------------------------
   53 O3    x      -2.9420      0.1630      0.0667
            y       0.0811     -1.4343     -0.0066
            z       0.0684      0.0308     -1.1642
-------------------------------------------------------------------------------
   54 O1    x      -3.0444      0.2673      0.0674
            y       0.1930     -1.5905     -0.0236
            z       0.0433     -0.0602     -1.2142
-------------------------------------------------------------------------------
   55 O3    x      -2.8481      0.3187      0.0113
            y       0.2295     -1.5208     -0.0147
            z      -0.0141     -0.0507     -1.1425
-------------------------------------------------------------------------------
   56 O3    x      -2.8395      0.3206     -0.0154
            y       0.2290     -1.5270      0.0141
            z       0.0066      0.0535     -1.1373
-------------------------------------------------------------------------------
   57 O1    x      -1.4841     -0.0155     -0.1470
            y      -0.0930     -1.4291     -0.0486
            z      -0.0841     -0.0200     -2.7633
-------------------------------------------------------------------------------
   58 O1    x      -1.4673     -0.0408      0.0190
            y      -0.1046     -1.4454      0.0351
            z       0.0061      0.0015     -2.7160
-------------------------------------------------------------------------------
   59 O1    x      -1.4946      0.1369     -0.0700
            y       0.1459     -1.4536      0.1181
            z      -0.0308      0.1045     -2.6809
-------------------------------------------------------------------------------
   60 O1    x      -1.4919      0.1244      0.0480
            y       0.1394     -1.4456     -0.0316
            z       0.0226     -0.0160     -2.7093
-------------------------------------------------------------------------------
   61 O3    x      -1.3391     -0.0132     -0.1350
            y      -0.0812     -1.3817      0.0654
            z      -0.1039      0.0822     -2.5876
-------------------------------------------------------------------------------
   62 O3    x      -1.3506     -0.0198      0.1451
            y      -0.0872     -1.3696      0.0084
            z       0.1002      0.0075     -2.5932
-------------------------------------------------------------------------------
   63 O1    x      -1.4989      0.1115     -0.0911
            y       0.1236     -1.4305      0.0149
            z      -0.0602     -0.0005     -2.7433
-------------------------------------------------------------------------------
   64 O3    x      -1.4033      0.0920      0.0899
            y       0.0944     -1.3494     -0.0582
            z       0.0806     -0.0418     -2.5894
-------------------------------------------------------------------------------
   65 O1    x      -1.3824     -0.2040      0.0793
            y      -0.2909     -3.1661     -0.0959
            z       0.0291     -0.0862     -1.3825
-------------------------------------------------------------------------------
   66 O1    x      -1.3731     -0.1867     -0.0899
            y      -0.2798     -3.1483     -0.0086
            z      -0.0320      0.0259     -1.3788
-------------------------------------------------------------------------------
   67 O1    x      -1.3773     -0.1952      0.0896
            y      -0.2883     -3.1372      0.0285
            z       0.0286      0.0335     -1.3766
-------------------------------------------------------------------------------
   68 O1    x      -1.3860     -0.1742     -0.0995
            y      -0.2885     -3.2495      0.0310
            z      -0.0495      0.0200     -1.3482
-------------------------------------------------------------------------------
   69 O1    x      -3.0256      0.2946     -0.0095
            y       0.1988     -1.6020      0.0351
            z       0.0089      0.0679     -1.2079
-------------------------------------------------------------------------------
   70 O1    x      -3.0308      0.3029      0.0179
            y       0.2040     -1.6004     -0.0392
            z       0.0294     -0.0765     -1.2125
-------------------------------------------------------------------------------
   71 O1    x      -3.0989      0.2460      0.0164
            y       0.1250     -1.5532     -0.0364
            z      -0.0431     -0.0589     -1.2057
-------------------------------------------------------------------------------
   72 O1    x      -3.1326      0.2860      0.0511
            y       0.2201     -1.5841      0.0067
            z       0.0432      0.0377     -1.1970
-------------------------------------------------------------------------------




  Elastic Constant Matrix: (Units=GPa)

-------------------------------------------------------------------------------
  Indices      1         2         3         4         5         6    
-------------------------------------------------------------------------------
       1     29.4680   12.2601    8.2322   -0.1935   -1.0952    7.5186
       2     12.2601   34.4164    6.1236    0.2236    0.5006    6.9835
       3      8.2322    6.1236   12.4200    0.5971   -0.3835    1.8170
       4     -0.1935    0.2236    0.5971    8.2638    1.6805   -0.0007
       5     -1.0952    0.5006   -0.3835    1.6805   16.5126    1.0026
       6      7.5186    6.9835    1.8170   -0.0007    1.0026   20.0334
-------------------------------------------------------------------------------


  Elastic Compliance Matrix: (Units=1/GPa)

-------------------------------------------------------------------------------
  Indices      1         2         3         4         5         6    
-------------------------------------------------------------------------------
       1    0.048660 -0.010352 -0.025332  0.002546  0.003455 -0.012529
       2   -0.010352  0.036085 -0.009837 -0.000200 -0.001520 -0.007726
       3   -0.025332 -0.009837  0.102064 -0.008024  0.001586  0.003600
       4    0.002546 -0.000200 -0.008024  0.124234 -0.012684  0.000481
       5    0.003455 -0.001520  0.001586 -0.012684  0.062408 -0.004034
       6   -0.012529 -0.007726  0.003600  0.000481 -0.004034  0.057187
-------------------------------------------------------------------------------

  Mechanical properties :

-------------------------------------------------------------------------------
  Convention :                    Reuss         Voigt         Hill
-------------------------------------------------------------------------------
  Bulk  Modulus (GPa)     =      10.44194      14.39292      12.41743
  Shear Modulus (GPa)     =       9.03175      12.27453      10.65314
-------------------------------------------------------------------------------
  Velocity S-wave (km/s)  =       1.80623       2.10567       1.96167
  Velocity P-wave (km/s)  =       2.84989       3.33330       3.10103
-------------------------------------------------------------------------------
  Compressibility (1/GPa) =    0.09576768
-------------------------------------------------------------------------------
  Stress axis :                     x             y             z
-------------------------------------------------------------------------------
  Youngs Moduli (GPa)     =      20.55056      27.71252       9.79776
-------------------------------------------------------------------------------
  Poissons Ratio (x)      =                     0.28687       0.24820
  Poissons Ratio (y)      =       0.21273                     0.09638
  Poissons Ratio (z)      =       0.52059       0.27262
-------------------------------------------------------------------------------


  Piezoelectric Strain Matrix: (Units=C/m**2)

-------------------------------------------------------------------------------
  Indices      1         2         3         4         5         6    
-------------------------------------------------------------------------------
       x     0.08833  -0.11645   0.41216   0.05414  -0.19886  -0.08393
       y    -0.61262  -0.77859  -0.40299   0.27548   0.69242  -0.11074
       z    -0.08779  -0.22557  -0.15066  -0.03155  -0.27026   0.06267
-------------------------------------------------------------------------------


  Piezoelectric Stress Matrix: (Units=10**-11 C/N)

-------------------------------------------------------------------------------
  Indices      1         2         3         4         5         6    
-------------------------------------------------------------------------------
       x    -0.44349  -0.82312   3.99225   0.61498  -1.16226  -0.26947
       y    -0.70611  -1.80413  -1.94632   2.72173   3.85924   0.32463
       z     0.00805  -0.58160  -1.08841   0.05695  -1.69185   0.69593
-------------------------------------------------------------------------------


  Static dielectric constant tensor : 

-------------------------------------------------------------------------------
              x         y         z
-------------------------------------------------------------------------------
       x     5.30797  -0.01923  -0.06484
       y    -0.01923   6.55005   0.02693
       z    -0.06484   0.02693   4.26312
--------------------------------------------------------------------------------

  High frequency dielectric constant tensor : 

-------------------------------------------------------------------------------
              x         y         z
-------------------------------------------------------------------------------
       x     1.55406   0.00317   0.00023
       y     0.00317   1.56033   0.00061
       z     0.00023   0.00061   1.51286
-------------------------------------------------------------------------------

  Static refractive indices : 

-------------------------------------------------------------------------------
    1 =    2.06369      2 =    2.30470      3 =    2.55943
-------------------------------------------------------------------------------

  High frequency refractive indices : 

-------------------------------------------------------------------------------
    1 =    1.22998      2 =    1.24609      3 =    1.24966
-------------------------------------------------------------------------------


  Time to end of optimisation =       6.5310 seconds


  Peak dynamic memory used =       5.01 MB 


  Timing analysis for GULP :

--------------------------------------------------------------------------------
  Task / Subroutine                                          Time (Seconds)
--------------------------------------------------------------------------------
  Calculation of reciprocal space energy and derivatives          0.4354
  Calculation of real space energy and derivatives                4.5844
  Calculation of three-body energy and derivatives                0.0591
  Calculation and manipulation of Hessian matrix                  1.6491
  Calculation of matrix inversion                                 0.0202
--------------------------------------------------------------------------------
  Total CPU time                                                  6.5310
--------------------------------------------------------------------------------


  Dump file written as c00443.vasp.grs
  CIF file written as c00443.vasp.cif


  Job Finished at 13:15.17 31st October    2025                               

