********************************************************************************
*                       GENERAL UTILITY LATTICE PROGRAM                        *
*                                 Julian Gale                                  *
*                       Curtin Institute for Computation                       *
*                    School of Molecular and Life Sciences                     *
*                    Curtin University, Western Australia                      *
********************************************************************************
* Version = 6.1.2 * Last modified =   3rd November 2022                        *
********************************************************************************
*  optimise     - perform optimisation run                                     *
*  conp         - constant pressure calculation                                *
*  property     - calculate properties for final geometry                      *
********************************************************************************

  Job Started  at 13:23.17 31st October    2025                               

  Number of CPUs =     1


  Total number of configurations input =      1

********************************************************************************
*  Input for Configuration =   1 : c00488.vasp                                 *
********************************************************************************

  Formula = Ge20Si4O48                                                  

  Number of irreducible atoms/shells =     120


  Total number atoms/shells =     120

  Dimensionality = 3               :  Bulk   



  Cartesian lattice vectors (Angstroms) :

       17.182800    0.000000    0.000000
        0.000000    7.513760    0.000000
        0.000000    0.000000   10.447700

  Cell parameters (Angstroms/Degrees):

  a =      17.1828    alpha =  90.0000
  b =       7.5138    beta  =  90.0000
  c =      10.4477    gamma =  90.0000

  Initial cell volume =        1348.875752 Angs**3

  Temperature of configuration =   0.00     K 

  Pressure of configuration =         0.000 GPa 

  Fractional coordinates of asymmetric unit :

--------------------------------------------------------------------------------
   No.  Atomic       x           y          z         Charge      Occupancy
        Label      (Frac)      (Frac)     (Frac)        (e)         (Frac)  
--------------------------------------------------------------------------------
      1 Ge    c    0.052090    0.000000    0.372270     4.00000    1.000000    
      2 Ge    c    0.447910 *  0.000000 *  0.372270 *   4.00000    1.000000    
      3 Ge    c    0.947910 *  0.000000 *  0.627730 *   4.00000    1.000000    
      4 Ge    c    0.552090 *  0.000000 *  0.627730 *   4.00000    1.000000    
      5 Ge    c    0.556730 *  0.000000 *  0.122130 *   4.00000    1.000000    
      6 Ge    c    0.943270 *  0.000000 *  0.122130 *   4.00000    1.000000    
      7 Ge    c    0.443270 *  0.000000 *  0.877870 *   4.00000    1.000000    
      8 Ge    c    0.160190 *  0.293910 *  0.273440 *   4.00000    1.000000    
      9 Ge    c    0.339810 *  0.706090 *  0.273440 *   4.00000    1.000000    
     10 Ge    c    0.660190 *  0.706090 *  0.726560 *   4.00000    1.000000    
     11 Ge    c    0.839810 *  0.706090 *  0.726560 *   4.00000    1.000000    
     12 Ge    c    0.660190 *  0.293910 *  0.726560 *   4.00000    1.000000    
     13 Ge    c    0.339810 *  0.293910 *  0.273440 *   4.00000    1.000000    
     14 Ge    c    0.660660 *  0.294090 *  0.017440 *   4.00000    1.000000    
     15 Ge    c    0.839340 *  0.705910 *  0.017440 *   4.00000    1.000000    
     16 Ge    c    0.339340 *  0.294090 *  0.982560 *   4.00000    1.000000    
     17 Ge    c    0.160660 *  0.705910 *  0.982560 *   4.00000    1.000000    
     18 Ge    c    0.339340 *  0.705910 *  0.982560 *   4.00000    1.000000    
     19 Ge    c    0.160660 *  0.294090 *  0.982560 *   4.00000    1.000000    
     20 Ge    c    0.839340 *  0.294090 *  0.017440 *   4.00000    1.000000    
     21 Si    c    0.056730 *  0.000000 *  0.877870 *   4.00000    1.000000    
     22 Si    c    0.839810 *  0.293910 *  0.726560 *   4.00000    1.000000    
     23 Si    c    0.160190 *  0.706090 *  0.273440 *   4.00000    1.000000    
     24 Si    c    0.660660 *  0.705910 *  0.017440 *   4.00000    1.000000    
     25 O1    c    0.106570 *  0.174340 *  0.366200 *   1.73396    1.000000    
     26 O1    c    0.393430 *  0.825660 *  0.366200 *   1.73396    1.000000    
     27 O3    c    0.893430 *  0.174340 *  0.633800 *   1.33043    1.000000    
     28 O1    c    0.606570 *  0.825660 *  0.633800 *   1.73396    1.000000    
     29 O1    c    0.893430 *  0.825660 *  0.633800 *   1.73396    1.000000    
     30 O1    c    0.606570 *  0.174340 *  0.633800 *   1.73396    1.000000    
     31 O3    c    0.106570 *  0.825660 *  0.366200 *   1.33043    1.000000    
     32 O1    c    0.393430 *  0.174340 *  0.366200 *   1.73396    1.000000    
     33 O1    c    0.000000 *  0.000000 *  0.500000 *   1.73396    1.000000    
     34 O1    c    0.500000 *  0.000000 *  0.500000 *   1.73396    1.000000    
     35 O1    c    0.994520 *  0.000000 *  0.250840 *   1.73396    1.000000    
     36 O1    c    0.505480 *  0.000000 *  0.250840 *   1.73396    1.000000    
     37 O3    c    0.005480 *  0.000000 *  0.749160 *   1.33043    1.000000    
     38 O1    c    0.494520 *  0.000000 *  0.749160 *   1.73396    1.000000    
     39 O1    c    0.610230 *  0.175520 *  0.115390 *   1.73396    1.000000    
     40 O1    c    0.889770 *  0.824480 *  0.115390 *   1.73396    1.000000    
     41 O1    c    0.389770 *  0.175520 *  0.884610 *   1.73396    1.000000    
     42 O3    c    0.110230 *  0.824480 *  0.884610 *   1.33043    1.000000    
     43 O1    c    0.389770 *  0.824480 *  0.884610 *   1.73396    1.000000    
     44 O3    c    0.110230 *  0.175520 *  0.884610 *   1.33043    1.000000    
     45 O3    c    0.610230 *  0.824480 *  0.115390 *   1.33043    1.000000    
     46 O1    c    0.889770 *  0.175520 *  0.115390 *   1.73396    1.000000    
     47 O1    c    0.500000 *  0.000000 *  0.000000 *   1.73396    1.000000    
     48 O3    c    0.000000 *  0.000000 *  0.000000 *   1.33043    1.000000    
     49 O3    c    0.151750 *  0.500000 *  0.313330 *   1.33043    1.000000    
     50 O1    c    0.348250 *  0.500000 *  0.313330 *   1.73396    1.000000    
     51 O3    c    0.848250 *  0.500000 *  0.686670 *   1.33043    1.000000    
     52 O1    c    0.651750 *  0.500000 *  0.686670 *   1.73396    1.000000    
     53 O1    c    0.250000 *  0.234950 *  0.285720 *   1.73396    1.000000    
     54 O3    c    0.250000 *  0.765050 *  0.285720 *   1.33043    1.000000    
     55 O3    c    0.750000 *  0.234950 *  0.714280 *   1.33043    1.000000    
     56 O1    c    0.750000 *  0.765050 *  0.714280 *   1.73396    1.000000    
     57 O1    c    0.131410 *  0.268650 *  0.127790 *   1.73396    1.000000    
     58 O1    c    0.368590 *  0.731350 *  0.127790 *   1.73396    1.000000    
     59 O3    c    0.868590 *  0.268650 *  0.872210 *   1.33043    1.000000    
     60 O3    c    0.631410 *  0.731350 *  0.872210 *   1.33043    1.000000    
     61 O1    c    0.868590 *  0.731350 *  0.872210 *   1.73396    1.000000    
     62 O1    c    0.631410 *  0.268650 *  0.872210 *   1.73396    1.000000    
     63 O3    c    0.131410 *  0.731350 *  0.127790 *   1.33043    1.000000    
     64 O1    c    0.368590 *  0.268650 *  0.127790 *   1.73396    1.000000    
     65 O3    c    0.653920 *  0.500000 *  0.058200 *   1.33043    1.000000    
     66 O1    c    0.846080 *  0.500000 *  0.058200 *   1.73396    1.000000    
     67 O1    c    0.346080 *  0.500000 *  0.941800 *   1.73396    1.000000    
     68 O1    c    0.153920 *  0.500000 *  0.941800 *   1.73396    1.000000    
     69 O1    c    0.750000 *  0.231060 *  0.027050 *   1.73396    1.000000    
     70 O3    c    0.750000 *  0.768940 *  0.027050 *   1.33043    1.000000    
     71 O1    c    0.250000 *  0.231060 *  0.972950 *   1.73396    1.000000    
     72 O1    c    0.250000 *  0.768940 *  0.972950 *   1.73396    1.000000    
     73 O1    s    0.106570 *  0.174340 *  0.366200 *  -3.73396    1.000000    
     74 O1    s    0.393430 *  0.825660 *  0.366200 *  -3.73396    1.000000    
     75 O3    s    0.893430 *  0.174340 *  0.633800 *  -3.33043    1.000000    
     76 O1    s    0.606570 *  0.825660 *  0.633800 *  -3.73396    1.000000    
     77 O1    s    0.893430 *  0.825660 *  0.633800 *  -3.73396    1.000000    
     78 O1    s    0.606570 *  0.174340 *  0.633800 *  -3.73396    1.000000    
     79 O3    s    0.106570 *  0.825660 *  0.366200 *  -3.33043    1.000000    
     80 O1    s    0.393430 *  0.174340 *  0.366200 *  -3.73396    1.000000    
     81 O1    s    0.000000 *  0.000000 *  0.500000 *  -3.73396    1.000000    
     82 O1    s    0.500000 *  0.000000 *  0.500000 *  -3.73396    1.000000    
     83 O1    s    0.994520 *  0.000000 *  0.250840 *  -3.73396    1.000000    
     84 O1    s    0.505480 *  0.000000 *  0.250840 *  -3.73396    1.000000    
     85 O3    s    0.005480 *  0.000000 *  0.749160 *  -3.33043    1.000000    
     86 O1    s    0.494520 *  0.000000 *  0.749160 *  -3.73396    1.000000    
     87 O1    s    0.610230 *  0.175520 *  0.115390 *  -3.73396    1.000000    
     88 O1    s    0.889770 *  0.824480 *  0.115390 *  -3.73396    1.000000    
     89 O1    s    0.389770 *  0.175520 *  0.884610 *  -3.73396    1.000000    
     90 O3    s    0.110230 *  0.824480 *  0.884610 *  -3.33043    1.000000    
     91 O1    s    0.389770 *  0.824480 *  0.884610 *  -3.73396    1.000000    
     92 O3    s    0.110230 *  0.175520 *  0.884610 *  -3.33043    1.000000    
     93 O3    s    0.610230 *  0.824480 *  0.115390 *  -3.33043    1.000000    
     94 O1    s    0.889770 *  0.175520 *  0.115390 *  -3.73396    1.000000    
     95 O1    s    0.500000 *  0.000000 *  0.000000 *  -3.73396    1.000000    
     96 O3    s    0.000000 *  0.000000 *  0.000000 *  -3.33043    1.000000    
     97 O3    s    0.151750 *  0.500000 *  0.313330 *  -3.33043    1.000000    
     98 O1    s    0.348250 *  0.500000 *  0.313330 *  -3.73396    1.000000    
     99 O3    s    0.848250 *  0.500000 *  0.686670 *  -3.33043    1.000000    
    100 O1    s    0.651750 *  0.500000 *  0.686670 *  -3.73396    1.000000    
    101 O1    s    0.250000 *  0.234950 *  0.285720 *  -3.73396    1.000000    
    102 O3    s    0.250000 *  0.765050 *  0.285720 *  -3.33043    1.000000    
    103 O3    s    0.750000 *  0.234950 *  0.714280 *  -3.33043    1.000000    
    104 O1    s    0.750000 *  0.765050 *  0.714280 *  -3.73396    1.000000    
    105 O1    s    0.131410 *  0.268650 *  0.127790 *  -3.73396    1.000000    
    106 O1    s    0.368590 *  0.731350 *  0.127790 *  -3.73396    1.000000    
    107 O3    s    0.868590 *  0.268650 *  0.872210 *  -3.33043    1.000000    
    108 O3    s    0.631410 *  0.731350 *  0.872210 *  -3.33043    1.000000    
    109 O1    s    0.868590 *  0.731350 *  0.872210 *  -3.73396    1.000000    
    110 O1    s    0.631410 *  0.268650 *  0.872210 *  -3.73396    1.000000    
    111 O3    s    0.131410 *  0.731350 *  0.127790 *  -3.33043    1.000000    
    112 O1    s    0.368590 *  0.268650 *  0.127790 *  -3.73396    1.000000    
    113 O3    s    0.653920 *  0.500000 *  0.058200 *  -3.33043    1.000000    
    114 O1    s    0.846080 *  0.500000 *  0.058200 *  -3.73396    1.000000    
    115 O1    s    0.346080 *  0.500000 *  0.941800 *  -3.73396    1.000000    
    116 O1    s    0.153920 *  0.500000 *  0.941800 *  -3.73396    1.000000    
    117 O1    s    0.750000 *  0.231060 *  0.027050 *  -3.73396    1.000000    
    118 O3    s    0.750000 *  0.768940 *  0.027050 *  -3.33043    1.000000    
    119 O1    s    0.250000 *  0.231060 *  0.972950 *  -3.73396    1.000000    
    120 O1    s    0.250000 *  0.768940 *  0.972950 *  -3.73396    1.000000    
--------------------------------------------------------------------------------



********************************************************************************
*  General input information                                                   *
********************************************************************************

  Species output for all configurations : 

--------------------------------------------------------------------------------
  Species    Type    Atomic    Atomic    Charge       Radii (Angs)     Library
                     Number     Mass       (e)     Cova   Ionic  VDW   Symbol
--------------------------------------------------------------------------------
    Ge       Core       32      72.61   4.000000   1.170  0.000  1.750 Ge       
    Si       Core       14      28.09   4.000000   1.200  0.000  2.100 Si       
    O1       Core        8      16.00   1.733957   0.730  0.000  1.360 O1       
    O2       Core        8      16.00   0.870733   0.730  0.000  0.000 O2       
    O3       Core        8      16.00   1.330431   0.730  0.000  1.360 O3       
    O1       Shell       8       0.00  -3.733957   0.730  0.000  0.000 O1       
    O2       Shell       8       0.00  -2.870733   0.730  0.000  0.000 O2       
    O3       Shell       8       0.00  -3.330431   0.730  0.000  0.000 O3       
--------------------------------------------------------------------------------


  Lattice summation method               =    Ewald          (3-D)
                                         =    Parry          (2-D)
                                         =    Saunders et al (1-D)
  Accuracy factor for lattice sums       =   12.000


  Analytic derivatives to be used

  Time limit = Infinity

  Maximum range for interatomic potentials =    100000.000000 Angstroms

  General interatomic potentials :

--------------------------------------------------------------------------------
Atom  Types   Potential      Parameter       Value         Units   Cutoffs(Ang)
  1     2                                                            Min /  Max 
--------------------------------------------------------------------------------
Si   c O1   s Buckingham    Buckingham A     1315.2478    eV        0.000 16.000
                            Buckingham rho  0.31775900    Ang       
                            Buckingham C     10.141118    eV*Ang^6  
--------------------------------------------------------------------------------
Si   c O2   s Buckingham    Buckingham A     1315.2478    eV        0.000 16.000
                            Buckingham rho  0.31775900    Ang       
                            Buckingham C     10.141118    eV*Ang^6  
--------------------------------------------------------------------------------
Si   c O3   s Buckingham    Buckingham A     1315.2478    eV        0.000 16.000
                            Buckingham rho  0.31775900    Ang       
                            Buckingham C     10.141118    eV*Ang^6  
--------------------------------------------------------------------------------
Ge   c O1   s Buckingham    Buckingham A     1497.3996    eV        0.000 16.000
                            Buckingham rho  0.32564600    Ang       
                            Buckingham C     16.808599    eV*Ang^6  
--------------------------------------------------------------------------------
Ge   c O2   s Buckingham    Buckingham A     1497.3996    eV        0.000 16.000
                            Buckingham rho  0.32564600    Ang       
                            Buckingham C     16.808599    eV*Ang^6  
--------------------------------------------------------------------------------
Ge   c O3   s Buckingham    Buckingham A     1497.3996    eV        0.000 16.000
                            Buckingham rho  0.32564600    Ang       
                            Buckingham C     16.808599    eV*Ang^6  
--------------------------------------------------------------------------------
O1   s O1   s Buckingham    Buckingham A     22764.000    eV        0.000 16.000
                            Buckingham rho  0.14900000    Ang       
                            Buckingham C     10.937044    eV*Ang^6  
--------------------------------------------------------------------------------
O1   s O2   s Buckingham    Buckingham A     22764.000    eV        0.000 16.000
                            Buckingham rho  0.14900000    Ang       
                            Buckingham C     10.937044    eV*Ang^6  
--------------------------------------------------------------------------------
O1   s O3   s Buckingham    Buckingham A     22764.000    eV        0.000 16.000
                            Buckingham rho  0.14900000    Ang       
                            Buckingham C     10.937044    eV*Ang^6  
--------------------------------------------------------------------------------
O2   s O2   s Buckingham    Buckingham A     22764.000    eV        0.000 16.000
                            Buckingham rho  0.14900000    Ang       
                            Buckingham C     10.937044    eV*Ang^6  
--------------------------------------------------------------------------------
O2   s O3   s Buckingham    Buckingham A     22764.000    eV        0.000 16.000
                            Buckingham rho  0.14900000    Ang       
                            Buckingham C     10.937044    eV*Ang^6  
--------------------------------------------------------------------------------
O3   s O3   s Buckingham    Buckingham A     22764.000    eV        0.000 16.000
                            Buckingham rho  0.14900000    Ang       
                            Buckingham C     10.937044    eV*Ang^6  
--------------------------------------------------------------------------------
O1   c O1   s Spring (c-s)  Spring k 2       180.31577    eV*Ang^-2 0.000  0.800
                            Spring k 4       0.0000000    eV*Ang^-4 
--------------------------------------------------------------------------------
O2   c O2   s Spring (c-s)  Spring k 2       75.969800    eV*Ang^-2 0.000  0.800
                            Spring k 4       0.0000000    eV*Ang^-4 
--------------------------------------------------------------------------------
O3   c O3   s Spring (c-s)  Spring k 2       128.14270    eV*Ang^-2 0.000  0.800
                            Spring k 4       0.0000000    eV*Ang^-4 
--------------------------------------------------------------------------------

  General Three-body potentials :

--------------------------------------------------------------------------------
  Atoms       Potential      Parameter       Value         Units   Cutoffs(Ang)
  1 / 2 / 3                                                          Min /  Max 
--------------------------------------------------------------------------------
Si    core    Harmonic      Three-body cnst  1.2614000    eV*rad^-2 0.000  1.900
O1    shel                  Three-body angl  109.47000    degrees   0.000  1.900
O1    shel                  Three-body k4    0.0000000    eV*rad^-4 0.000  3.500
                            Three-body k3    0.0000000    eV*rad^-3 
--------------------------------------------------------------------------------
Si    core    Harmonic      Three-body cnst  1.2614000    eV*rad^-2 0.000  1.900
O1    shel                  Three-body angl  109.47000    degrees   0.000  1.900
õ(1   shel                  Three-body k4    0.0000000    eV*rad^-4 0.000  3.500
                            Three-body k3    0.0000000    eV*rad^-3 
--------------------------------------------------------------------------------
Si    core    Harmonic      Three-body cnst  1.2614000    eV*rad^-2 0.000  1.900
õ(1   shel                  Three-body angl  109.47000    degrees   0.000  1.900
õ(1   shel                  Three-body k4    0.0000000    eV*rad^-4 0.000  3.500
                            Three-body k3    0.0000000    eV*rad^-3 
--------------------------------------------------------------------------------
Si    core    Harmonic      Three-body cnst  1.2614000    eV*rad^-2 0.000  1.900
O1    shel                  Three-body angl  109.47000    degrees   0.000  1.900
O2    shel                  Three-body k4    0.0000000    eV*rad^-4 0.000  3.500
                            Three-body k3    0.0000000    eV*rad^-3 
--------------------------------------------------------------------------------
Si    core    Harmonic      Three-body cnst  1.2614000    eV*rad^-2 0.000  1.900
O1    shel                  Three-body angl  109.47000    degrees   0.000  1.900
õ(2   shel                  Three-body k4    0.0000000    eV*rad^-4 0.000  3.500
                            Three-body k3    0.0000000    eV*rad^-3 
--------------------------------------------------------------------------------
Si    core    Harmonic      Three-body cnst  1.2614000    eV*rad^-2 0.000  1.900
O2    shel                  Three-body angl  109.47000    degrees   0.000  1.900
õ(1   shel                  Three-body k4    0.0000000    eV*rad^-4 0.000  3.500
                            Three-body k3    0.0000000    eV*rad^-3 
--------------------------------------------------------------------------------
Si    core    Harmonic      Three-body cnst  1.2614000    eV*rad^-2 0.000  1.900
õ(1   shel                  Three-body angl  109.47000    degrees   0.000  1.900
õ(2   shel                  Three-body k4    0.0000000    eV*rad^-4 0.000  3.500
                            Three-body k3    0.0000000    eV*rad^-3 
--------------------------------------------------------------------------------
Si    core    Harmonic      Three-body cnst  1.2614000    eV*rad^-2 0.000  1.900
O2    shel                  Three-body angl  109.47000    degrees   0.000  1.900
O2    shel                  Three-body k4    0.0000000    eV*rad^-4 0.000  3.500
                            Three-body k3    0.0000000    eV*rad^-3 
--------------------------------------------------------------------------------
Si    core    Harmonic      Three-body cnst  1.2614000    eV*rad^-2 0.000  1.900
O2    shel                  Three-body angl  109.47000    degrees   0.000  1.900
õ(2   shel                  Three-body k4    0.0000000    eV*rad^-4 0.000  3.500
                            Three-body k3    0.0000000    eV*rad^-3 
--------------------------------------------------------------------------------
Si    core    Harmonic      Three-body cnst  1.2614000    eV*rad^-2 0.000  1.900
õ(2   shel                  Three-body angl  109.47000    degrees   0.000  1.900
õ(2   shel                  Three-body k4    0.0000000    eV*rad^-4 0.000  3.500
                            Three-body k3    0.0000000    eV*rad^-3 
--------------------------------------------------------------------------------

********************************************************************************
*  Output for configuration   1 : c00488.vasp                                  *
********************************************************************************


  Components of energy : 

--------------------------------------------------------------------------------
  Interatomic potentials     =         896.59426478 eV    
  Three-body potentials      =           0.00000000 eV    
  Monopole - monopole (real) =       -2676.00317478 eV    
  Monopole - monopole (recip)=       -1115.35404472 eV    
  Monopole - monopole (total)=       -3791.35721950 eV    
--------------------------------------------------------------------------------
  Total lattice energy       =       -2894.76295472 eV    
--------------------------------------------------------------------------------
  Total lattice energy       =         -279300.3746 kJ/(mole unit cells)
--------------------------------------------------------------------------------


  Number of variables =      363

  Maximum number of calculations  =          1000
  Maximum Hessian update interval =            10
  Maximum step size               =   0.100000000
  Maximum parameter tolerance     =   0.000010000
  Maximum function  tolerance     =   0.000010000
  Maximum gradient  tolerance     =   0.001000000
  Maximum gradient  component     =   0.010000000

  Symmetry not applied to optimisation

  Cell parameters to be optimised using strains

  Newton-Raphson optimiser to be used

  BFGS hessian update to be used

  Lower half triangular hessian to be used

  Minimiser to switch to RFO
  When gradient norm is less than     0.050000

  Dumpfile to be written after every cycle

  Start of bulk optimisation :

  Cycle:      0 Energy:     -2894.762955  Gnorm:      5.836631  CPU:    0.104
  ** Hessian calculated **
  Cycle:      1 Energy:     -2938.401330  Gnorm:      1.403794  CPU:    0.245
  ** Hessian calculated **
  Cycle:      2 Energy:     -2942.894543  Gnorm:      0.942314  CPU:    0.487
  ** Hessian calculated **
  Cycle:      3 Energy:     -2944.990924  Gnorm:      0.460826  CPU:    0.677
  Cycle:      4 Energy:     -2945.450231  Gnorm:      0.262077  CPU:    0.774
  Cycle:      5 Energy:     -2945.737120  Gnorm:      0.218618  CPU:    0.923
  Cycle:      6 Energy:     -2946.090927  Gnorm:      0.176658  CPU:    1.033
  Cycle:      7 Energy:     -2946.353898  Gnorm:      0.146286  CPU:    1.126
  Cycle:      8 Energy:     -2946.487966  Gnorm:      0.102184  CPU:    1.219
  Cycle:      9 Energy:     -2946.540996  Gnorm:      0.072681  CPU:    1.306
  Cycle:     10 Energy:     -2946.569920  Gnorm:      0.062140  CPU:    1.404
  Cycle:     11 Energy:     -2946.592333  Gnorm:      0.057930  CPU:    1.502
  Cycle:     12 Energy:     -2946.618609  Gnorm:      0.062960  CPU:    1.600
  ** Hessian calculated **
  Cycle:     13 Energy:     -2946.635186  Gnorm:      0.062146  CPU:    1.779
  Cycle:     14 Energy:     -2946.662098  Gnorm:      0.060763  CPU:    1.908
  Cycle:     15 Energy:     -2946.698766  Gnorm:      0.058714  CPU:    2.039
  Cycle:     16 Energy:     -2946.732588  Gnorm:      0.056518  CPU:    2.153
  Cycle:     17 Energy:     -2946.759147  Gnorm:      0.054276  CPU:    2.284
  ** Hessian calculated **
  Cycle:     18 Energy:     -2946.862696  Gnorm:      0.049329  CPU:    2.488
  ** Hessian has wrong structure
  ** Imaginary eigenvectors =   6
  Cycle:     19 Energy:     -2946.925204  Gnorm:      0.257228  CPU:    2.743
  ** Hessian has wrong structure
  ** Imaginary eigenvectors =   5
  ** Hessian has wrong structure
  ** Imaginary eigenvectors =   4
  Cycle:     20 Energy:     -2946.966668  Gnorm:      0.262840  CPU:    3.207
  ** Hessian has wrong structure
  ** Imaginary eigenvectors =   3
  ** Hessian has wrong structure
  ** Imaginary eigenvectors =   2
  Cycle:     21 Energy:     -2947.135977  Gnorm:      0.268527  CPU:    3.686
  ** Hessian has wrong structure
  ** Imaginary eigenvectors =   1
  ** Hessian has required structure
  Cycle:     22 Energy:     -2947.615617  Gnorm:      0.176250  CPU:    4.047
  ** Hessian has required structure
  Cycle:     23 Energy:     -2947.841496  Gnorm:      0.074966  CPU:    4.185
  ** Hessian has required structure
  Cycle:     24 Energy:     -2947.971748  Gnorm:      0.065549  CPU:    4.336
  ** Hessian has required structure
  Cycle:     25 Energy:     -2948.015449  Gnorm:      0.047800  CPU:    4.471
  ** Hessian has required structure
  Cycle:     26 Energy:     -2948.058754  Gnorm:      0.055985  CPU:    4.621
  ** Hessian has required structure
  Cycle:     27 Energy:     -2948.091859  Gnorm:      0.050661  CPU:    4.752
  ** Hessian has required structure
  Cycle:     28 Energy:     -2948.110011  Gnorm:      0.061117  CPU:    4.890
  ** Hessian has required structure
  Cycle:     29 Energy:     -2948.130228  Gnorm:      0.044258  CPU:    5.010
  ** Hessian has required structure
  Cycle:     30 Energy:     -2948.141828  Gnorm:      0.031866  CPU:    5.147
  ** Hessian has required structure
  Cycle:     31 Energy:     -2948.149316  Gnorm:      0.025241  CPU:    5.282
  ** Hessian has required structure
  Cycle:     32 Energy:     -2948.159557  Gnorm:      0.013136  CPU:    5.501
  ** Hessian has required structure
  Cycle:     33 Energy:     -2948.162669  Gnorm:      0.007124  CPU:    5.650
  ** Hessian has required structure
  Cycle:     34 Energy:     -2948.163792  Gnorm:      0.003739  CPU:    5.798
  ** Hessian has required structure
  Cycle:     35 Energy:     -2948.164193  Gnorm:      0.001938  CPU:    5.944
  ** Hessian has required structure
  Cycle:     36 Energy:     -2948.164343  Gnorm:      0.001004  CPU:    6.092
  ** Hessian has required structure
  Cycle:     37 Energy:     -2948.164403  Gnorm:      0.000541  CPU:    6.239
  ** Hessian has required structure
  Cycle:     38 Energy:     -2948.164420  Gnorm:      0.000349  CPU:    6.372
  ** Hessian has required structure
  Cycle:     39 Energy:     -2948.164432  Gnorm:      0.000227  CPU:    6.507
  ** Hessian has required structure
  Cycle:     40 Energy:     -2948.164436  Gnorm:      0.000146  CPU:    6.641
  ** Hessian has required structure
  Cycle:     41 Energy:     -2948.164437  Gnorm:      0.000106  CPU:    6.756
  ** Hessian has required structure
  Cycle:     42 Energy:     -2948.164438  Gnorm:      0.000085  CPU:    6.949
  ** Hessian has required structure
  Cycle:     43 Energy:     -2948.164439  Gnorm:      0.000066  CPU:    7.066
  ** Hessian has required structure


  **** Optimisation achieved ****


  Final energy =   -2948.16443954 eV      
  Final Gnorm  =       0.00005016

  Components of energy : 

--------------------------------------------------------------------------------
  Interatomic potentials     =         780.64658920 eV    
  Three-body potentials      =           0.00000000 eV    
  Monopole - monopole (real) =       -1562.08486930 eV    
  Monopole - monopole (recip)=       -2166.72615943 eV    
  Monopole - monopole (total)=       -3728.81102873 eV    
--------------------------------------------------------------------------------
  Total lattice energy       =       -2948.16443954 eV    
--------------------------------------------------------------------------------
  Total lattice energy       =         -284452.8016 kJ/(mole unit cells)
--------------------------------------------------------------------------------

  Final fractional coordinates of atoms :

--------------------------------------------------------------------------------
   No.  Atomic        x           y          z          Radius
        Label       (Frac)      (Frac)     (Frac)       (Angs) 
--------------------------------------------------------------------------------
     1  Ge    c     0.052090    0.000000    0.372270    0.000000
     2  Ge    c     0.443502    0.045197    0.365452    0.000000
     3  Ge    c     0.946214    0.025427    0.628156    0.000000
     4  Ge    c     0.548620    0.973960    0.614513    0.000000
     5  Ge    c     0.551285    0.989110    0.117627    0.000000
     6  Ge    c     0.940279    0.046536    0.128319    0.000000
     7  Ge    c     0.443838    0.029787    0.869065    0.000000
     8  Ge    c     0.168371    0.289803    0.264571    0.000000
     9  Ge    c     0.320693    0.760342    0.252715    0.000000
    10  Ge    c     0.646729    0.660696    0.681666    0.000000
    11  Ge    c     0.825650    0.737432    0.692033    0.000000
    12  Ge    c     0.671505    0.258241    0.691926    0.000000
    13  Ge    c     0.349950    0.358814    0.254884    0.000000
    14  Ge    c     0.668658    0.279385    0.007803    0.000000
    15  Ge    c     0.820591    0.760238    0.009331    0.000000
    16  Ge    c     0.340082    0.339991    0.936249    0.000000
    17  Ge    c     0.141417    0.666261    0.939641    0.000000
    18  Ge    c     0.319422    0.745201    0.934859    0.000000
    19  Ge    c     0.160354    0.260815    0.950022    0.000000
    20  Ge    c     0.848466    0.356471    0.010134    0.000000
    21  Si    c     0.041934    0.970416    0.882100    0.000000
    22  Si    c     0.847564    0.339541    0.698791    0.000000
    23  Si    c     0.144460    0.684560    0.251792    0.000000
    24  Si    c     0.644742    0.678040    0.994852    0.000000
    25  O1    c     0.121692    0.153614    0.365393    0.000000
    26  O1    c     0.363506    0.921013    0.342648    0.000000
    27  O3    c     0.907349    0.227509    0.616405    0.000000
    28  O1    c     0.580362    0.767648    0.594916    0.000000
    29  O1    c     0.878832    0.868160    0.596401    0.000000
    30  O1    c     0.625202    0.110086    0.594305    0.000000
    31  O3    c     0.082073    0.796590    0.326795    0.000000
    32  O1    c     0.419325    0.252493    0.335683    0.000000
    33  O1    c     0.023760    0.998321    0.533295    0.000000
    34  O1    c     0.471538    0.024999    0.525655    0.000000
    35  O1    c     0.971785    0.046906    0.286296    0.000000
    36  O1    c     0.521032    0.979119    0.277031    0.000000
    37  O3    c     0.971587    0.006117    0.791362    0.000000
    38  O1    c     0.521787    0.995205    0.776875    0.000000
    39  O1    c     0.620238    0.145415    0.107884    0.000000
    40  O1    c     0.861677    0.915949    0.107447    0.000000
    41  O1    c     0.402607    0.224579    0.843419    0.000000
    42  O3    c     0.074096    0.779549    0.857363    0.000000
    43  O1    c     0.374211    0.874986    0.842258    0.000000
    44  O3    c     0.108661    0.109945    0.860088    0.000000
    45  O3    c     0.581104    0.785804    0.070260    0.000000
    46  O1    c     0.917063    0.252789    0.092055    0.000000
    47  O1    c     0.472193    0.036987    0.030554    0.000000
    48  O3    c     0.015385    0.978022    0.032922    0.000000
    49  O3    c     0.155976    0.502258    0.317378    0.000000
    50  O1    c     0.341859    0.565477    0.315959    0.000000
    51  O3    c     0.835881    0.523938    0.638847    0.000000
    52  O1    c     0.654229    0.454257    0.625781    0.000000
    53  O1    c     0.263777    0.253125    0.266452    0.000000
    54  O3    c     0.223554    0.790831    0.253471    0.000000
    55  O3    c     0.768500    0.231317    0.699536    0.000000
    56  O1    c     0.730659    0.775104    0.675792    0.000000
    57  O1    c     0.131932    0.253520    0.110520    0.000000
    58  O1    c     0.351097    0.767540    0.093674    0.000000
    59  O3    c     0.874587    0.370857    0.847527    0.000000
    60  O3    c     0.620809    0.646271    0.844778    0.000000
    61  O1    c     0.852850    0.771948    0.851801    0.000000
    62  O1    c     0.638450    0.244336    0.849816    0.000000
    63  O3    c     0.119655    0.642697    0.103375    0.000000
    64  O1    c     0.373403    0.371655    0.093252    0.000000
    65  O3    c     0.655063    0.493129    0.056432    0.000000
    66  O1    c     0.839951    0.562583    0.069876    0.000000
    67  O1    c     0.326391    0.536874    0.874474    0.000000
    68  O1    c     0.146969    0.459156    0.882677    0.000000
    69  O1    c     0.764060    0.244953    0.020081    0.000000
    70  O3    c     0.723162    0.786609    0.003762    0.000000
    71  O1    c     0.255852    0.224643    0.945015    0.000000
    72  O1    c     0.224038    0.784081    0.929348    0.000000
    73  O1    s     0.119899    0.152221    0.358085    0.000000
    74  O1    s     0.366248    0.917767    0.337232    0.000000
    75  O3    s     0.904562    0.222805    0.625230    0.000000
    76  O1    s     0.582956    0.774854    0.602763    0.000000
    77  O1    s     0.879753    0.869785    0.606016    0.000000
    78  O1    s     0.623178    0.111567    0.603291    0.000000
    79  O3    s     0.085924    0.801591    0.322922    0.000000
    80  O1    s     0.415954    0.244917    0.331887    0.000000
    81  O1    s     0.019555    0.000614    0.529078    0.000000
    82  O1    s     0.475597    0.022453    0.521039    0.000000
    83  O1    s     0.975325    0.043385    0.280716    0.000000
    84  O1    s     0.517537    0.984720    0.271956    0.000000
    85  O3    s     0.976861    0.003985    0.788341    0.000000
    86  O1    s     0.517434    0.996444    0.772758    0.000000
    87  O1    s     0.618756    0.143941    0.100855    0.000000
    88  O1    s     0.864384    0.913634    0.101371    0.000000
    89  O1    s     0.400843    0.219285    0.852315    0.000000
    90  O3    s     0.076394    0.788293    0.866055    0.000000
    91  O1    s     0.375001    0.876088    0.851401    0.000000
    92  O3    s     0.106549    0.108969    0.869379    0.000000
    93  O3    s     0.585109    0.791035    0.066456    0.000000
    94  O1    s     0.913426    0.245529    0.088344    0.000000
    95  O1    s     0.476070    0.032893    0.025603    0.000000
    96  O3    s     0.012009    0.982680    0.026422    0.000000
    97  O3    s     0.155813    0.503612    0.307221    0.000000
    98  O1    s     0.340908    0.564606    0.306809    0.000000
    99  O3    s     0.836262    0.521738    0.648682    0.000000
   100  O1    s     0.654904    0.456175    0.634993    0.000000
   101  O1    s     0.262859    0.263591    0.265466    0.000000
   102  O3    s     0.223644    0.778585    0.253244    0.000000
   103  O3    s     0.768140    0.243204    0.698894    0.000000
   104  O1    s     0.731566    0.763938    0.677455    0.000000
   105  O1    s     0.136688    0.256699    0.110174    0.000000
   106  O1    s     0.346534    0.765397    0.093871    0.000000
   107  O3    s     0.869964    0.366764    0.845851    0.000000
   108  O3    s     0.625107    0.650420    0.846745    0.000000
   109  O1    s     0.848392    0.768510    0.851701    0.000000
   110  O1    s     0.643081    0.247929    0.850130    0.000000
   111  O3    s     0.123757    0.648529    0.105046    0.000000
   112  O1    s     0.369161    0.368365    0.093906    0.000000
   113  O3    s     0.655091    0.494794    0.046906    0.000000
   114  O1    s     0.839172    0.561567    0.060895    0.000000
   115  O1    s     0.326945    0.536588    0.883634    0.000000
   116  O1    s     0.147488    0.461082    0.891807    0.000000
   117  O1    s     0.763158    0.255775    0.018418    0.000000
   118  O3    s     0.723314    0.774513    0.003358    0.000000
   119  O1    s     0.254724    0.235504    0.944781    0.000000
   120  O1    s     0.225036    0.772500    0.930544    0.000000
--------------------------------------------------------------------------------

  Final Cartesian lattice vectors (Angstroms) :

       17.642350   -0.127618   -0.001376
       -0.057959    7.802207   -0.120900
        0.002077   -0.172274   10.237690


  Final cell parameters and derivatives :

--------------------------------------------------------------------------------
       a           17.642812 Angstrom     dE/de1(xx)     0.001798 eV/strain
       b            7.803359 Angstrom     dE/de2(yy)     0.001011 eV/strain
       c           10.239140 Angstrom     dE/de3(zz)     0.002877 eV/strain
       alpha       91.851845 Degrees      dE/de4(yz)     0.000236 eV/strain
       beta        89.985876 Degrees      dE/de5(xz)     0.000090 eV/strain
       gamma       90.839890 Degrees      dE/de6(xy)    -0.000396 eV/strain
--------------------------------------------------------------------------------

  Primitive cell volume =          1408.767442 Angs**3

  Density of cell =      2.749473 g/cm**3

  Non-primitive cell volume =          1408.767442 Angs**3


  Final internal derivatives :

--------------------------------------------------------------------------------
   No.  Atomic          a             b             c           Radius
        Label          (eV)          (eV)          (eV)        (eV/Angs)
--------------------------------------------------------------------------------
      1 Ge    c       0.000000      0.000000      0.000000      0.000000
      2 Ge    c      -0.000136      0.000106     -0.000513      0.000000
      3 Ge    c      -0.000262      0.000098     -0.000235      0.000000
      4 Ge    c      -0.000299      0.000128     -0.000030      0.000000
      5 Ge    c      -0.000083      0.000073      0.000109      0.000000
      6 Ge    c      -0.000355      0.000292     -0.000069      0.000000
      7 Ge    c      -0.000297     -0.000076     -0.000090      0.000000
      8 Ge    c      -0.000514      0.000102      0.000521      0.000000
      9 Ge    c      -0.000218     -0.000123      0.000141      0.000000
     10 Ge    c       0.000152     -0.000128      0.000240      0.000000
     11 Ge    c       0.000084     -0.000036     -0.000011      0.000000
     12 Ge    c       0.000193      0.000158      0.000083      0.000000
     13 Ge    c      -0.000066      0.000080      0.000021      0.000000
     14 Ge    c       0.000122      0.000045     -0.000100      0.000000
     15 Ge    c      -0.000207     -0.000011     -0.000105      0.000000
     16 Ge    c      -0.000393      0.000030     -0.000351      0.000000
     17 Ge    c       0.003088     -0.000744     -0.002236      0.000000
     18 Ge    c       0.000431     -0.000122      0.000162      0.000000
     19 Ge    c      -0.000179     -0.000695      0.000086      0.000000
     20 Ge    c       0.000117      0.000031      0.000019      0.000000
     21 Si    c       0.000370      0.000388     -0.000020      0.000000
     22 Si    c      -0.000043      0.000093     -0.000040      0.000000
     23 Si    c       0.007482     -0.001430      0.002507      0.000000
     24 Si    c      -0.000027      0.000083     -0.000110      0.000000
     25 O1    c      -0.000362     -0.000378     -0.000237      0.000000
     26 O1    c       0.000518      0.000524      0.000262      0.000000
     27 O3    c       0.000164     -0.000071     -0.000055      0.000000
     28 O1    c      -0.000039      0.000036     -0.000192      0.000000
     29 O1    c      -0.000358     -0.000236     -0.000031      0.000000
     30 O1    c      -0.000162     -0.000161     -0.000266      0.000000
     31 O3    c      -0.005683      0.000487      0.003132      0.000000
     32 O1    c       0.000333     -0.000434      0.000273      0.000000
     33 O1    c      -0.000931     -0.000249      0.001210      0.000000
     34 O1    c       0.000562     -0.000066      0.000637      0.000000
     35 O1    c       0.000092      0.000069      0.000474      0.000000
     36 O1    c      -0.000881      0.000107      0.000225      0.000000
     37 O3    c       0.000409      0.000060      0.000438      0.000000
     38 O1    c      -0.000667     -0.000123      0.000363      0.000000
     39 O1    c      -0.000229     -0.000190      0.000185      0.000000
     40 O1    c      -0.000275     -0.000056      0.000016      0.000000
     41 O1    c       0.000314     -0.000380      0.000177      0.000000
     42 O3    c      -0.002277      0.000916     -0.001048      0.000000
     43 O1    c       0.001708      0.000889     -0.000326      0.000000
     44 O3    c      -0.000663     -0.000377      0.000099      0.000000
     45 O3    c       0.000168     -0.000138     -0.000061      0.000000
     46 O1    c      -0.000308      0.000282     -0.000046      0.000000
     47 O1    c      -0.000345      0.000008     -0.000082      0.000000
     48 O3    c      -0.000003      0.000237     -0.000574      0.000000
     49 O3    c      -0.000963      0.000022      0.000169      0.000000
     50 O1    c      -0.000110      0.000079     -0.000122      0.000000
     51 O3    c       0.000040     -0.000067      0.000063      0.000000
     52 O1    c       0.000004     -0.000064     -0.000004      0.000000
     53 O1    c      -0.000017      0.000017      0.000112      0.000000
     54 O3    c       0.000166      0.000765     -0.000407      0.000000
     55 O3    c       0.000101     -0.000008      0.000007      0.000000
     56 O1    c      -0.000090     -0.000062     -0.000031      0.000000
     57 O1    c      -0.001267     -0.000372     -0.000257      0.000000
     58 O1    c       0.000923      0.000179     -0.000131      0.000000
     59 O3    c       0.000132     -0.000023      0.000034      0.000000
     60 O3    c       0.000169      0.000038     -0.000008      0.000000
     61 O1    c      -0.000149     -0.000041     -0.000055      0.000000
     62 O1    c       0.000006     -0.000006      0.000108      0.000000
     63 O3    c      -0.008996     -0.001785     -0.003884      0.000000
     64 O1    c       0.000183     -0.000000      0.000572      0.000000
     65 O3    c      -0.000017     -0.000065      0.000038      0.000000
     66 O1    c      -0.000029     -0.000141     -0.000033      0.000000
     67 O1    c      -0.000627     -0.000555     -0.000005      0.000000
     68 O1    c      -0.000630      0.002028     -0.000564      0.000000
     69 O1    c      -0.000100      0.000035     -0.000021      0.000000
     70 O3    c      -0.000377     -0.000085      0.000010      0.000000
     71 O1    c       0.000937      0.000225     -0.000179      0.000000
     72 O1    c      -0.001504      0.000498      0.000081      0.000000
     73 O1    s       0.000317      0.000306      0.000472      0.000000
     74 O1    s       0.000424     -0.000282      0.000058      0.000000
     75 O3    s      -0.000137      0.000054      0.000015      0.000000
     76 O1    s      -0.000007     -0.000046      0.000080      0.000000
     77 O1    s       0.000053      0.000122      0.000100      0.000000
     78 O1    s       0.000006      0.000052      0.000161      0.000000
     79 O3    s      -0.000430      0.000550      0.000455      0.000000
     80 O1    s      -0.000069      0.000175     -0.000209      0.000000
     81 O1    s       0.000872      0.000311     -0.000384      0.000000
     82 O1    s      -0.000391     -0.000003     -0.000361      0.000000
     83 O1    s      -0.000410     -0.000075     -0.000793      0.000000
     84 O1    s       0.000322     -0.000073     -0.000112      0.000000
     85 O3    s       0.000215     -0.000141     -0.000116      0.000000
     86 O1    s       0.000058      0.000180     -0.000288      0.000000
     87 O1    s       0.000102      0.000115     -0.000112      0.000000
     88 O1    s       0.000372     -0.000059     -0.000014      0.000000
     89 O1    s      -0.000112      0.000174     -0.000070      0.000000
     90 O3    s      -0.000006     -0.000169     -0.000111      0.000000
     91 O1    s      -0.000484     -0.000356     -0.000086      0.000000
     92 O3    s       0.000111     -0.000072     -0.000269      0.000000
     93 O3    s       0.000039      0.000032      0.000036      0.000000
     94 O1    s       0.000038     -0.000194      0.000005      0.000000
     95 O1    s       0.000199      0.000021     -0.000086      0.000000
     96 O3    s       0.000443     -0.000538      0.000657      0.000000
     97 O3    s       0.002898     -0.001622      0.001002      0.000000
     98 O1    s       0.000120     -0.000175     -0.000027      0.000000
     99 O3    s      -0.000123      0.000060      0.000025      0.000000
    100 O1    s      -0.000007      0.000102      0.000010      0.000000
    101 O1    s       0.000284      0.000115     -0.000299      0.000000
    102 O3    s       0.004756      0.000048      0.000800      0.000000
    103 O3    s      -0.000052     -0.000028     -0.000038      0.000000
    104 O1    s       0.000013      0.000054      0.000069      0.000000
    105 O1    s       0.001535      0.000538      0.000090      0.000000
    106 O1    s      -0.000330     -0.000335      0.000159      0.000000
    107 O3    s      -0.000122      0.000029      0.000037      0.000000
    108 O3    s       0.000287     -0.000070      0.000079      0.000000
    109 O1    s       0.000125      0.000057      0.000080      0.000000
    110 O1    s       0.000005      0.000022     -0.000021      0.000000
    111 O3    s      -0.002372      0.001252     -0.000375      0.000000
    112 O1    s      -0.000356      0.000047     -0.000363      0.000000
    113 O3    s      -0.000034      0.000081     -0.000046      0.000000
    114 O1    s       0.000065      0.000103      0.000010      0.000000
    115 O1    s       0.001121      0.000115     -0.000036      0.000000
    116 O1    s       0.000793     -0.001570      0.000016      0.000000
    117 O1    s       0.000134     -0.000030      0.000028      0.000000
    118 O3    s       0.000125      0.000020     -0.000063      0.000000
    119 O1    s      -0.000047     -0.000233      0.000430      0.000000
    120 O1    s       0.002061      0.000115     -0.000365      0.000000
--------------------------------------------------------------------------------
  Maximum abs         0.008996      0.002028      0.003884      0.000000
--------------------------------------------------------------------------------


  Born effective charge tensors : 

-------------------------------------------------------------------------------
  Atom             x           y             z
-------------------------------------------------------------------------------
    1 Ge    x       4.0979     -0.1579     -0.4540
            y       0.1859      3.9102      0.1045
            z      -0.2176     -0.0681      4.5418
-------------------------------------------------------------------------------
    2 Ge    x       4.2449     -0.3224      0.4393
            y       0.1655      3.8889     -0.1220
            z       0.2219     -0.0635      4.4598
-------------------------------------------------------------------------------
    3 Ge    x       4.1130     -0.1739      0.0703
            y       0.1323      3.8921      0.0164
            z      -0.8643      0.1068      4.1714
-------------------------------------------------------------------------------
    4 Ge    x       4.1979     -0.2929     -0.0749
            y       0.0910      3.9238     -0.0471
            z       0.7904     -0.2361      4.1797
-------------------------------------------------------------------------------
    5 Ge    x       4.2844     -0.1323     -0.3949
            y       0.1796      3.9220      0.1106
            z      -0.3177     -0.0612      3.9575
-------------------------------------------------------------------------------
    6 Ge    x       4.1747     -0.2048      0.4785
            y       0.2106      3.9252     -0.1296
            z       0.3717     -0.0317      3.9682
-------------------------------------------------------------------------------
    7 Ge    x       4.3981     -0.1481      0.0876
            y       0.0507      3.9049     -0.0275
            z      -0.6476      0.1130      3.6410
-------------------------------------------------------------------------------
    8 Ge    x       3.9755      0.2348     -0.2213
            y       0.2942      4.1676     -0.1406
            z       0.0242     -0.2428      3.5848
-------------------------------------------------------------------------------
    9 Ge    x       3.8919      0.2832      0.2680
            y       0.2480      4.1898      0.0336
            z       0.0159      0.1742      3.5917
-------------------------------------------------------------------------------
   10 Ge    x       3.9053     -0.0815      0.2592
            y      -0.4463      4.2081     -0.1103
            z       0.1483     -0.1974      3.4970
-------------------------------------------------------------------------------
   11 Ge    x       4.0082      0.2783     -0.2199
            y       0.3573      4.1349     -0.1171
            z      -0.0017     -0.1700      3.5249
-------------------------------------------------------------------------------
   12 Ge    x       3.8936      0.3040      0.3154
            y       0.3099      4.1516      0.0452
            z       0.0444      0.1197      3.5693
-------------------------------------------------------------------------------
   13 Ge    x       4.0042     -0.0942      0.1768
            y      -0.4768      4.1873     -0.0908
            z       0.1179     -0.2146      3.5859
-------------------------------------------------------------------------------
   14 Ge    x       4.0281      0.2355     -0.3061
            y       0.2898      4.1548     -0.1740
            z      -0.0454     -0.2258      3.5050
-------------------------------------------------------------------------------
   15 Ge    x       3.9216      0.2834      0.3156
            y       0.2606      4.2000      0.0814
            z       0.0327      0.1693      3.5073
-------------------------------------------------------------------------------
   16 Ge    x       4.0476     -0.0998     -0.3148
            y      -0.4288      4.1868      0.0803
            z      -0.0962      0.1772      3.4497
-------------------------------------------------------------------------------
   17 Ge    x       3.8941     -0.0042      0.2695
            y      -0.3839      4.2453     -0.0862
            z       0.0867     -0.1937      3.3173
-------------------------------------------------------------------------------
   18 Ge    x       4.1529      0.2584     -0.3227
            y       0.3461      4.1236     -0.0713
            z      -0.0764     -0.1266      3.4693
-------------------------------------------------------------------------------
   19 Ge    x       4.0447      0.2416      0.2789
            y       0.2625      4.1688     -0.0231
            z      -0.0103      0.0786      3.4041
-------------------------------------------------------------------------------
   20 Ge    x       4.0088     -0.0810      0.3008
            y      -0.4550      4.1929     -0.0888
            z       0.1859     -0.2003      3.4091
-------------------------------------------------------------------------------
   21 Si    x       3.9393     -0.1839     -0.0366
            y       0.0934      3.6917     -0.0230
            z       0.6369     -0.1811      3.3813
-------------------------------------------------------------------------------
   22 Si    x       3.6345     -0.1004     -0.2185
            y      -0.4403      3.9268      0.0933
            z      -0.0481      0.2050      3.2797
-------------------------------------------------------------------------------
   23 Si    x       3.6558     -0.0607     -0.1739
            y      -0.4473      3.9114      0.0605
            z      -0.0919      0.2512      3.3289
-------------------------------------------------------------------------------
   24 Si    x       3.7401     -0.0768     -0.2446
            y      -0.4319      3.9122      0.0640
            z      -0.1255      0.2186      3.2359
-------------------------------------------------------------------------------
   25 O1    x      -2.0943     -0.8938      0.4886
            y      -0.9574     -2.3873      0.4968
            z       0.4714      0.5522     -1.7064
-------------------------------------------------------------------------------
   26 O1    x      -2.2740     -0.8984     -0.5154
            y      -0.9456     -2.2977     -0.4927
            z      -0.4677     -0.5131     -1.6248
-------------------------------------------------------------------------------
   27 O3    x      -1.9371      0.8978      0.3685
            y       0.8461     -2.3271     -0.3402
            z       0.4366     -0.3772     -1.5029
-------------------------------------------------------------------------------
   28 O1    x      -1.9758      0.8587     -0.3580
            y       0.8255     -2.5183      0.3032
            z      -0.4523      0.3471     -1.5945
-------------------------------------------------------------------------------
   29 O1    x      -2.1481     -0.9185      0.2680
            y      -0.9853     -2.3513      0.3122
            z       0.3749      0.3341     -1.6298
-------------------------------------------------------------------------------
   30 O1    x      -2.2157     -0.8811     -0.3083
            y      -0.9621     -2.2787     -0.3630
            z      -0.3859     -0.3625     -1.6053
-------------------------------------------------------------------------------
   31 O3    x      -1.9065      0.8543      0.5310
            y       0.7969     -2.3380     -0.5489
            z       0.4744     -0.5562     -1.5726
-------------------------------------------------------------------------------
   32 O1    x      -1.9835      0.8244     -0.4998
            y       0.7732     -2.5508      0.5282
            z      -0.4637      0.5158     -1.6273
-------------------------------------------------------------------------------
   33 O1    x      -2.1048      0.1571      0.9969
            y       0.0461     -1.2728     -0.0614
            z       1.2495     -0.1049     -3.1978
-------------------------------------------------------------------------------
   34 O1    x      -2.0935      0.3038     -0.9121
            y       0.1321     -1.2978      0.2022
            z      -1.1346      0.3624     -3.0535
-------------------------------------------------------------------------------
   35 O1    x      -2.1388      0.2410     -0.8141
            y       0.1385     -1.3161      0.1482
            z      -0.8405      0.1662     -2.7609
-------------------------------------------------------------------------------
   36 O1    x      -2.1286      0.2425      0.8314
            y       0.1231     -1.3273     -0.1259
            z       0.8413     -0.1356     -2.7610
-------------------------------------------------------------------------------
   37 O3    x      -2.0659      0.2345     -0.8592
            y       0.1090     -1.2840      0.1898
            z      -0.8112      0.2391     -2.3979
-------------------------------------------------------------------------------
   38 O1    x      -2.1934      0.1942      0.8402
            y       0.0893     -1.3264     -0.1247
            z       0.8223     -0.1603     -2.5749
-------------------------------------------------------------------------------
   39 O1    x      -2.1797     -0.9245      0.5300
            y      -0.9538     -2.3896      0.5101
            z       0.4752      0.5207     -1.6039
-------------------------------------------------------------------------------
   40 O1    x      -2.2617     -0.8913     -0.5197
            y      -0.9258     -2.2986     -0.5232
            z      -0.4335     -0.4988     -1.5799
-------------------------------------------------------------------------------
   41 O1    x      -2.0965      0.8992      0.3400
            y       0.8711     -2.4578     -0.2523
            z       0.3906     -0.2889     -1.4788
-------------------------------------------------------------------------------
   42 O3    x      -1.8951      0.8253     -0.2554
            y       0.7875     -2.4493      0.1878
            z      -0.3177      0.2261     -1.3267
-------------------------------------------------------------------------------
   43 O1    x      -2.2762     -0.9217      0.3307
            y      -0.9691     -2.2613      0.3216
            z       0.4045      0.3438     -1.5090
-------------------------------------------------------------------------------
   44 O3    x      -2.1203     -0.8810     -0.2202
            y      -0.9120     -2.2059     -0.2286
            z      -0.2856     -0.2393     -1.3411
-------------------------------------------------------------------------------
   45 O3    x      -2.0157      0.8642      0.5699
            y       0.7822     -2.3127     -0.5504
            z       0.4905     -0.5351     -1.4782
-------------------------------------------------------------------------------
   46 O1    x      -2.0283      0.8327     -0.5520
            y       0.7567     -2.5334      0.5742
            z      -0.4881      0.5422     -1.5665
-------------------------------------------------------------------------------
   47 O1    x      -2.2390      0.2213     -0.7360
            y       0.1476     -1.3665      0.1301
            z      -0.4918      0.0910     -2.2601
-------------------------------------------------------------------------------
   48 O3    x      -1.9218      0.2088      0.6295
            y       0.1127     -1.3085     -0.1471
            z       0.4365     -0.1313     -2.2147
-------------------------------------------------------------------------------
   49 O3    x      -1.2656      0.1616      0.0303
            y       0.2628     -2.9814      0.2016
            z      -0.0125      0.1930     -1.3404
-------------------------------------------------------------------------------
   50 O1    x      -1.3855      0.2144     -0.0988
            y       0.3217     -3.1197      0.0278
            z      -0.0633      0.0243     -1.3971
-------------------------------------------------------------------------------
   51 O3    x      -1.2671      0.1746      0.0374
            y       0.2430     -2.9975      0.1580
            z      -0.0073      0.1733     -1.3026
-------------------------------------------------------------------------------
   52 O1    x      -1.3497      0.1911     -0.1050
            y       0.2806     -3.1324      0.0537
            z      -0.0536     -0.0005     -1.4115
-------------------------------------------------------------------------------
   53 O1    x      -3.0691     -0.2259      0.0502
            y      -0.1353     -1.5814      0.0352
            z       0.0163      0.0725     -1.2182
-------------------------------------------------------------------------------
   54 O3    x      -2.8280     -0.3390      0.0013
            y      -0.2824     -1.5195     -0.0072
            z       0.0101     -0.0493     -1.1545
-------------------------------------------------------------------------------
   55 O3    x      -2.8110     -0.3487     -0.0261
            y      -0.2692     -1.5334     -0.0059
            z      -0.0092     -0.0382     -1.1449
-------------------------------------------------------------------------------
   56 O1    x      -3.0070     -0.2525     -0.0461
            y      -0.1321     -1.6043      0.0346
            z      -0.0530      0.0715     -1.2237
-------------------------------------------------------------------------------
   57 O1    x      -1.4806     -0.1313     -0.1026
            y      -0.1491     -1.4628     -0.1182
            z      -0.0991     -0.0911     -2.6975
-------------------------------------------------------------------------------
   58 O1    x      -1.5143     -0.1088      0.0527
            y      -0.1171     -1.4166      0.0151
            z       0.0391     -0.0183     -2.7254
-------------------------------------------------------------------------------
   59 O3    x      -1.3496      0.0140     -0.1207
            y       0.0807     -1.3699     -0.0638
            z      -0.0960     -0.0691     -2.5728
-------------------------------------------------------------------------------
   60 O3    x      -1.3434      0.0173     -0.0320
            y       0.0863     -1.3665     -0.0697
            z      -0.0283     -0.0598     -2.6054
-------------------------------------------------------------------------------
   61 O1    x      -1.4906     -0.1283      0.0725
            y      -0.1422     -1.4453     -0.0455
            z       0.0317     -0.0670     -2.6903
-------------------------------------------------------------------------------
   62 O1    x      -1.4959     -0.1219      0.0733
            y      -0.1409     -1.4485     -0.0698
            z       0.0475     -0.0568     -2.6909
-------------------------------------------------------------------------------
   63 O3    x      -1.3277     -0.0028     -0.1603
            y       0.0758     -1.3896     -0.0672
            z      -0.1202     -0.0670     -2.6021
-------------------------------------------------------------------------------
   64 O1    x      -1.4619      0.0194     -0.0241
            y       0.0854     -1.4394     -0.0404
            z      -0.0412     -0.0442     -2.7319
-------------------------------------------------------------------------------
   65 O3    x      -1.3057      0.1760      0.0564
            y       0.2585     -3.0149      0.2003
            z       0.0120      0.1784     -1.2741
-------------------------------------------------------------------------------
   66 O1    x      -1.3913      0.2111     -0.1051
            y       0.3080     -3.1488      0.0046
            z      -0.0521     -0.0057     -1.3618
-------------------------------------------------------------------------------
   67 O1    x      -1.3894      0.1810      0.0679
            y       0.2261     -3.1383      0.0487
            z       0.0129      0.0527     -1.3538
-------------------------------------------------------------------------------
   68 O1    x      -1.3644      0.1257     -0.1100
            y       0.2132     -3.2352      0.0552
            z      -0.0434     -0.0125     -1.3747
-------------------------------------------------------------------------------
   69 O1    x      -3.0522     -0.2588     -0.0064
            y      -0.1513     -1.5930      0.0485
            z      -0.0147      0.0776     -1.2048
-------------------------------------------------------------------------------
   70 O3    x      -2.8483     -0.3626     -0.0631
            y      -0.2911     -1.5374     -0.0320
            z      -0.0239     -0.0584     -1.1290
-------------------------------------------------------------------------------
   71 O1    x      -3.0982     -0.2862      0.0747
            y      -0.1976     -1.6061      0.0100
            z       0.0886     -0.0236     -1.1851
-------------------------------------------------------------------------------
   72 O1    x      -3.0661     -0.2737      0.0315
            y      -0.1274     -1.5814      0.0422
            z       0.0303      0.0799     -1.1995
-------------------------------------------------------------------------------




  Elastic Constant Matrix: (Units=GPa)

-------------------------------------------------------------------------------
  Indices      1         2         3         4         5         6    
-------------------------------------------------------------------------------
       1     30.6290   13.4782    9.3635   -1.0508   -0.6479   -5.7067
       2     13.4782   33.4707    6.1226   -1.6164    0.1278   -5.0009
       3      9.3635    6.1226   14.3468   -1.6857   -0.0453   -0.5359
       4     -1.0508   -1.6164   -1.6857    7.4245   -1.2530    1.0461
       5     -0.6479    0.1278   -0.0453   -1.2530   15.6605   -3.0617
       6     -5.7067   -5.0009   -0.5359    1.0461   -3.0617   19.3522
-------------------------------------------------------------------------------


  Elastic Compliance Matrix: (Units=1/GPa)

-------------------------------------------------------------------------------
  Indices      1         2         3         4         5         6    
-------------------------------------------------------------------------------
       1    0.048414 -0.013291 -0.025832 -0.002777  0.003946  0.010901
       2   -0.013291  0.037448 -0.006622  0.004090  0.000515  0.005435
       3   -0.025832 -0.006622  0.091031  0.016514 -0.000965 -0.007853
       4   -0.002777  0.004090  0.016514  0.141405  0.010170 -0.005340
       5    0.003946  0.000515 -0.000965  0.010170  0.067039  0.011327
       6    0.010901  0.005435 -0.007853 -0.005340  0.011327  0.058156
-------------------------------------------------------------------------------

  Mechanical properties :

-------------------------------------------------------------------------------
  Convention :                    Reuss         Voigt         Hill
-------------------------------------------------------------------------------
  Bulk  Modulus (GPa)     =      11.70911      15.15280      13.43095
  Shear Modulus (GPa)     =       8.87391      11.78624      10.33007
-------------------------------------------------------------------------------
  Velocity S-wave (km/s)  =       1.79652       2.07044       1.93833
  Velocity P-wave (km/s)  =       2.92609       3.35064       3.14554
-------------------------------------------------------------------------------
  Compressibility (1/GPa) =    0.08540357
-------------------------------------------------------------------------------
  Stress axis :                     x             y             z
-------------------------------------------------------------------------------
  Youngs Moduli (GPa)     =      20.65538      26.70395      10.98526
-------------------------------------------------------------------------------
  Poissons Ratio (x)      =                     0.35491       0.28377
  Poissons Ratio (y)      =       0.27452                     0.07274
  Poissons Ratio (z)      =       0.53357       0.17683
-------------------------------------------------------------------------------


  Piezoelectric Strain Matrix: (Units=C/m**2)

-------------------------------------------------------------------------------
  Indices      1         2         3         4         5         6    
-------------------------------------------------------------------------------
       x    -0.32620  -0.54776  -0.11715  -0.28088  -0.49314   0.07719
       y    -0.27877  -0.38317  -0.55199  -1.27383   0.49334   0.21186
       z    -0.30236   0.27950   1.13747  -0.14271  -0.02951   0.33445
-------------------------------------------------------------------------------


  Piezoelectric Stress Matrix: (Units=10**-11 C/N)

-------------------------------------------------------------------------------
  Indices      1         2         3         4         5         6    
-------------------------------------------------------------------------------
       x    -0.58106  -1.63845  -0.33793  -4.84146  -3.64979  -0.52096
       y     1.36488  -1.07927  -6.36867 -18.61489   2.17540   2.39242
       z    -4.38100   0.81719  10.45494  -0.14990  -0.17891   0.91682
-------------------------------------------------------------------------------


  Static dielectric constant tensor : 

-------------------------------------------------------------------------------
              x         y         z
-------------------------------------------------------------------------------
       x     5.32808   0.10811  -0.03171
       y     0.10811   6.58170  -0.18918
       z    -0.03171  -0.18918   4.21338
--------------------------------------------------------------------------------

  High frequency dielectric constant tensor : 

-------------------------------------------------------------------------------
              x         y         z
-------------------------------------------------------------------------------
       x     1.54979  -0.00348   0.00037
       y    -0.00348   1.55633  -0.00130
       z     0.00037  -0.00130   1.50809
-------------------------------------------------------------------------------

  Static refractive indices : 

-------------------------------------------------------------------------------
    1 =    2.04888      2 =    2.30630      3 =    2.57026
-------------------------------------------------------------------------------

  High frequency refractive indices : 

-------------------------------------------------------------------------------
    1 =    1.22803      2 =    1.24430      3 =    1.24815
-------------------------------------------------------------------------------


  Time to end of optimisation =       7.3479 seconds


  Peak dynamic memory used =       5.01 MB 


  Timing analysis for GULP :

--------------------------------------------------------------------------------
  Task / Subroutine                                          Time (Seconds)
--------------------------------------------------------------------------------
  Calculation of reciprocal space energy and derivatives          0.5090
  Calculation of real space energy and derivatives                5.1591
  Calculation of three-body energy and derivatives                0.0638
  Calculation and manipulation of Hessian matrix                  1.9553
  Calculation of matrix inversion                                 0.0360
--------------------------------------------------------------------------------
  Total CPU time                                                  7.3479
--------------------------------------------------------------------------------


  Dump file written as c00488.vasp.grs
  CIF file written as c00488.vasp.cif


  Job Finished at 13:23.24 31st October    2025                               

