********************************************************************************
*                       GENERAL UTILITY LATTICE PROGRAM                        *
*                                 Julian Gale                                  *
*                       Curtin Institute for Computation                       *
*                    School of Molecular and Life Sciences                     *
*                    Curtin University, Western Australia                      *
********************************************************************************
* Version = 6.1.2 * Last modified =   3rd November 2022                        *
********************************************************************************
*  optimise     - perform optimisation run                                     *
*  conp         - constant pressure calculation                                *
*  property     - calculate properties for final geometry                      *
********************************************************************************

  Job Started  at 13:38.03 31st October    2025                               

  Number of CPUs =     1


  Total number of configurations input =      1

********************************************************************************
*  Input for Configuration =   1 : c00575.vasp                                 *
********************************************************************************

  Formula = Ge20Si4O48                                                  

  Number of irreducible atoms/shells =     120


  Total number atoms/shells =     120

  Dimensionality = 3               :  Bulk   



  Cartesian lattice vectors (Angstroms) :

       17.182800    0.000000    0.000000
        0.000000    7.513760    0.000000
        0.000000    0.000000   10.447700

  Cell parameters (Angstroms/Degrees):

  a =      17.1828    alpha =  90.0000
  b =       7.5138    beta  =  90.0000
  c =      10.4477    gamma =  90.0000

  Initial cell volume =        1348.875752 Angs**3

  Temperature of configuration =   0.00     K 

  Pressure of configuration =         0.000 GPa 

  Fractional coordinates of asymmetric unit :

--------------------------------------------------------------------------------
   No.  Atomic       x           y          z         Charge      Occupancy
        Label      (Frac)      (Frac)     (Frac)        (e)         (Frac)  
--------------------------------------------------------------------------------
      1 Ge    c    0.052090    0.000000    0.372270     4.00000    1.000000    
      2 Ge    c    0.447910 *  0.000000 *  0.372270 *   4.00000    1.000000    
      3 Ge    c    0.947910 *  0.000000 *  0.627730 *   4.00000    1.000000    
      4 Ge    c    0.552090 *  0.000000 *  0.627730 *   4.00000    1.000000    
      5 Ge    c    0.556730 *  0.000000 *  0.122130 *   4.00000    1.000000    
      6 Ge    c    0.443270 *  0.000000 *  0.877870 *   4.00000    1.000000    
      7 Ge    c    0.160190 *  0.293910 *  0.273440 *   4.00000    1.000000    
      8 Ge    c    0.339810 *  0.706090 *  0.273440 *   4.00000    1.000000    
      9 Ge    c    0.839810 *  0.293910 *  0.726560 *   4.00000    1.000000    
     10 Ge    c    0.660190 *  0.706090 *  0.726560 *   4.00000    1.000000    
     11 Ge    c    0.839810 *  0.706090 *  0.726560 *   4.00000    1.000000    
     12 Ge    c    0.660190 *  0.293910 *  0.726560 *   4.00000    1.000000    
     13 Ge    c    0.160190 *  0.706090 *  0.273440 *   4.00000    1.000000    
     14 Ge    c    0.339810 *  0.293910 *  0.273440 *   4.00000    1.000000    
     15 Ge    c    0.660660 *  0.294090 *  0.017440 *   4.00000    1.000000    
     16 Ge    c    0.839340 *  0.705910 *  0.017440 *   4.00000    1.000000    
     17 Ge    c    0.339340 *  0.294090 *  0.982560 *   4.00000    1.000000    
     18 Ge    c    0.339340 *  0.705910 *  0.982560 *   4.00000    1.000000    
     19 Ge    c    0.660660 *  0.705910 *  0.017440 *   4.00000    1.000000    
     20 Ge    c    0.839340 *  0.294090 *  0.017440 *   4.00000    1.000000    
     21 Si    c    0.943270 *  0.000000 *  0.122130 *   4.00000    1.000000    
     22 Si    c    0.056730 *  0.000000 *  0.877870 *   4.00000    1.000000    
     23 Si    c    0.160660 *  0.705910 *  0.982560 *   4.00000    1.000000    
     24 Si    c    0.160660 *  0.294090 *  0.982560 *   4.00000    1.000000    
     25 O1    c    0.106570 *  0.174340 *  0.366200 *   1.73396    1.000000    
     26 O1    c    0.393430 *  0.825660 *  0.366200 *   1.73396    1.000000    
     27 O1    c    0.893430 *  0.174340 *  0.633800 *   1.73396    1.000000    
     28 O1    c    0.606570 *  0.825660 *  0.633800 *   1.73396    1.000000    
     29 O1    c    0.893430 *  0.825660 *  0.633800 *   1.73396    1.000000    
     30 O1    c    0.606570 *  0.174340 *  0.633800 *   1.73396    1.000000    
     31 O1    c    0.106570 *  0.825660 *  0.366200 *   1.73396    1.000000    
     32 O1    c    0.393430 *  0.174340 *  0.366200 *   1.73396    1.000000    
     33 O1    c    0.000000 *  0.000000 *  0.500000 *   1.73396    1.000000    
     34 O1    c    0.500000 *  0.000000 *  0.500000 *   1.73396    1.000000    
     35 O3    c    0.994520 *  0.000000 *  0.250840 *   1.33043    1.000000    
     36 O1    c    0.505480 *  0.000000 *  0.250840 *   1.73396    1.000000    
     37 O3    c    0.005480 *  0.000000 *  0.749160 *   1.33043    1.000000    
     38 O1    c    0.494520 *  0.000000 *  0.749160 *   1.73396    1.000000    
     39 O1    c    0.610230 *  0.175520 *  0.115390 *   1.73396    1.000000    
     40 O3    c    0.889770 *  0.824480 *  0.115390 *   1.33043    1.000000    
     41 O1    c    0.389770 *  0.175520 *  0.884610 *   1.73396    1.000000    
     42 O2    c    0.110230 *  0.824480 *  0.884610 *   0.87073    1.000000    
     43 O1    c    0.389770 *  0.824480 *  0.884610 *   1.73396    1.000000    
     44 O2    c    0.110230 *  0.175520 *  0.884610 *   0.87073    1.000000    
     45 O1    c    0.610230 *  0.824480 *  0.115390 *   1.73396    1.000000    
     46 O3    c    0.889770 *  0.175520 *  0.115390 *   1.33043    1.000000    
     47 O1    c    0.500000 *  0.000000 *  0.000000 *   1.73396    1.000000    
     48 O2    c    0.000000 *  0.000000 *  0.000000 *   0.87073    1.000000    
     49 O1    c    0.151750 *  0.500000 *  0.313330 *   1.73396    1.000000    
     50 O1    c    0.348250 *  0.500000 *  0.313330 *   1.73396    1.000000    
     51 O1    c    0.848250 *  0.500000 *  0.686670 *   1.73396    1.000000    
     52 O1    c    0.651750 *  0.500000 *  0.686670 *   1.73396    1.000000    
     53 O1    c    0.250000 *  0.234950 *  0.285720 *   1.73396    1.000000    
     54 O1    c    0.250000 *  0.765050 *  0.285720 *   1.73396    1.000000    
     55 O1    c    0.750000 *  0.234950 *  0.714280 *   1.73396    1.000000    
     56 O1    c    0.750000 *  0.765050 *  0.714280 *   1.73396    1.000000    
     57 O3    c    0.131410 *  0.268650 *  0.127790 *   1.33043    1.000000    
     58 O1    c    0.368590 *  0.731350 *  0.127790 *   1.73396    1.000000    
     59 O1    c    0.868590 *  0.268650 *  0.872210 *   1.73396    1.000000    
     60 O1    c    0.631410 *  0.731350 *  0.872210 *   1.73396    1.000000    
     61 O1    c    0.868590 *  0.731350 *  0.872210 *   1.73396    1.000000    
     62 O1    c    0.631410 *  0.268650 *  0.872210 *   1.73396    1.000000    
     63 O3    c    0.131410 *  0.731350 *  0.127790 *   1.33043    1.000000    
     64 O1    c    0.368590 *  0.268650 *  0.127790 *   1.73396    1.000000    
     65 O1    c    0.653920 *  0.500000 *  0.058200 *   1.73396    1.000000    
     66 O1    c    0.846080 *  0.500000 *  0.058200 *   1.73396    1.000000    
     67 O1    c    0.346080 *  0.500000 *  0.941800 *   1.73396    1.000000    
     68 O2    c    0.153920 *  0.500000 *  0.941800 *   0.87073    1.000000    
     69 O1    c    0.750000 *  0.231060 *  0.027050 *   1.73396    1.000000    
     70 O1    c    0.750000 *  0.768940 *  0.027050 *   1.73396    1.000000    
     71 O3    c    0.250000 *  0.231060 *  0.972950 *   1.33043    1.000000    
     72 O3    c    0.250000 *  0.768940 *  0.972950 *   1.33043    1.000000    
     73 O1    s    0.106570 *  0.174340 *  0.366200 *  -3.73396    1.000000    
     74 O1    s    0.393430 *  0.825660 *  0.366200 *  -3.73396    1.000000    
     75 O1    s    0.893430 *  0.174340 *  0.633800 *  -3.73396    1.000000    
     76 O1    s    0.606570 *  0.825660 *  0.633800 *  -3.73396    1.000000    
     77 O1    s    0.893430 *  0.825660 *  0.633800 *  -3.73396    1.000000    
     78 O1    s    0.606570 *  0.174340 *  0.633800 *  -3.73396    1.000000    
     79 O1    s    0.106570 *  0.825660 *  0.366200 *  -3.73396    1.000000    
     80 O1    s    0.393430 *  0.174340 *  0.366200 *  -3.73396    1.000000    
     81 O1    s    0.000000 *  0.000000 *  0.500000 *  -3.73396    1.000000    
     82 O1    s    0.500000 *  0.000000 *  0.500000 *  -3.73396    1.000000    
     83 O3    s    0.994520 *  0.000000 *  0.250840 *  -3.33043    1.000000    
     84 O1    s    0.505480 *  0.000000 *  0.250840 *  -3.73396    1.000000    
     85 O3    s    0.005480 *  0.000000 *  0.749160 *  -3.33043    1.000000    
     86 O1    s    0.494520 *  0.000000 *  0.749160 *  -3.73396    1.000000    
     87 O1    s    0.610230 *  0.175520 *  0.115390 *  -3.73396    1.000000    
     88 O3    s    0.889770 *  0.824480 *  0.115390 *  -3.33043    1.000000    
     89 O1    s    0.389770 *  0.175520 *  0.884610 *  -3.73396    1.000000    
     90 O2    s    0.110230 *  0.824480 *  0.884610 *  -2.87073    1.000000    
     91 O1    s    0.389770 *  0.824480 *  0.884610 *  -3.73396    1.000000    
     92 O2    s    0.110230 *  0.175520 *  0.884610 *  -2.87073    1.000000    
     93 O1    s    0.610230 *  0.824480 *  0.115390 *  -3.73396    1.000000    
     94 O3    s    0.889770 *  0.175520 *  0.115390 *  -3.33043    1.000000    
     95 O1    s    0.500000 *  0.000000 *  0.000000 *  -3.73396    1.000000    
     96 O2    s    0.000000 *  0.000000 *  0.000000 *  -2.87073    1.000000    
     97 O1    s    0.151750 *  0.500000 *  0.313330 *  -3.73396    1.000000    
     98 O1    s    0.348250 *  0.500000 *  0.313330 *  -3.73396    1.000000    
     99 O1    s    0.848250 *  0.500000 *  0.686670 *  -3.73396    1.000000    
    100 O1    s    0.651750 *  0.500000 *  0.686670 *  -3.73396    1.000000    
    101 O1    s    0.250000 *  0.234950 *  0.285720 *  -3.73396    1.000000    
    102 O1    s    0.250000 *  0.765050 *  0.285720 *  -3.73396    1.000000    
    103 O1    s    0.750000 *  0.234950 *  0.714280 *  -3.73396    1.000000    
    104 O1    s    0.750000 *  0.765050 *  0.714280 *  -3.73396    1.000000    
    105 O3    s    0.131410 *  0.268650 *  0.127790 *  -3.33043    1.000000    
    106 O1    s    0.368590 *  0.731350 *  0.127790 *  -3.73396    1.000000    
    107 O1    s    0.868590 *  0.268650 *  0.872210 *  -3.73396    1.000000    
    108 O1    s    0.631410 *  0.731350 *  0.872210 *  -3.73396    1.000000    
    109 O1    s    0.868590 *  0.731350 *  0.872210 *  -3.73396    1.000000    
    110 O1    s    0.631410 *  0.268650 *  0.872210 *  -3.73396    1.000000    
    111 O3    s    0.131410 *  0.731350 *  0.127790 *  -3.33043    1.000000    
    112 O1    s    0.368590 *  0.268650 *  0.127790 *  -3.73396    1.000000    
    113 O1    s    0.653920 *  0.500000 *  0.058200 *  -3.73396    1.000000    
    114 O1    s    0.846080 *  0.500000 *  0.058200 *  -3.73396    1.000000    
    115 O1    s    0.346080 *  0.500000 *  0.941800 *  -3.73396    1.000000    
    116 O2    s    0.153920 *  0.500000 *  0.941800 *  -2.87073    1.000000    
    117 O1    s    0.750000 *  0.231060 *  0.027050 *  -3.73396    1.000000    
    118 O1    s    0.750000 *  0.768940 *  0.027050 *  -3.73396    1.000000    
    119 O3    s    0.250000 *  0.231060 *  0.972950 *  -3.33043    1.000000    
    120 O3    s    0.250000 *  0.768940 *  0.972950 *  -3.33043    1.000000    
--------------------------------------------------------------------------------



********************************************************************************
*  General input information                                                   *
********************************************************************************

  Species output for all configurations : 

--------------------------------------------------------------------------------
  Species    Type    Atomic    Atomic    Charge       Radii (Angs)     Library
                     Number     Mass       (e)     Cova   Ionic  VDW   Symbol
--------------------------------------------------------------------------------
    Ge       Core       32      72.61   4.000000   1.170  0.000  1.750 Ge       
    Si       Core       14      28.09   4.000000   1.200  0.000  2.100 Si       
    O1       Core        8      16.00   1.733957   0.730  0.000  1.360 O1       
    O2       Core        8      16.00   0.870733   0.730  0.000  1.360 O2       
    O3       Core        8      16.00   1.330431   0.730  0.000  1.360 O3       
    O1       Shell       8       0.00  -3.733957   0.730  0.000  0.000 O1       
    O2       Shell       8       0.00  -2.870733   0.730  0.000  0.000 O2       
    O3       Shell       8       0.00  -3.330431   0.730  0.000  0.000 O3       
--------------------------------------------------------------------------------


  Lattice summation method               =    Ewald          (3-D)
                                         =    Parry          (2-D)
                                         =    Saunders et al (1-D)
  Accuracy factor for lattice sums       =   12.000


  Analytic derivatives to be used

  Time limit = Infinity

  Maximum range for interatomic potentials =    100000.000000 Angstroms

  General interatomic potentials :

--------------------------------------------------------------------------------
Atom  Types   Potential      Parameter       Value         Units   Cutoffs(Ang)
  1     2                                                            Min /  Max 
--------------------------------------------------------------------------------
Si   c O1   s Buckingham    Buckingham A     1315.2478    eV        0.000 16.000
                            Buckingham rho  0.31775900    Ang       
                            Buckingham C     10.141118    eV*Ang^6  
--------------------------------------------------------------------------------
Si   c O2   s Buckingham    Buckingham A     1315.2478    eV        0.000 16.000
                            Buckingham rho  0.31775900    Ang       
                            Buckingham C     10.141118    eV*Ang^6  
--------------------------------------------------------------------------------
Si   c O3   s Buckingham    Buckingham A     1315.2478    eV        0.000 16.000
                            Buckingham rho  0.31775900    Ang       
                            Buckingham C     10.141118    eV*Ang^6  
--------------------------------------------------------------------------------
Ge   c O1   s Buckingham    Buckingham A     1497.3996    eV        0.000 16.000
                            Buckingham rho  0.32564600    Ang       
                            Buckingham C     16.808599    eV*Ang^6  
--------------------------------------------------------------------------------
Ge   c O2   s Buckingham    Buckingham A     1497.3996    eV        0.000 16.000
                            Buckingham rho  0.32564600    Ang       
                            Buckingham C     16.808599    eV*Ang^6  
--------------------------------------------------------------------------------
Ge   c O3   s Buckingham    Buckingham A     1497.3996    eV        0.000 16.000
                            Buckingham rho  0.32564600    Ang       
                            Buckingham C     16.808599    eV*Ang^6  
--------------------------------------------------------------------------------
O1   s O1   s Buckingham    Buckingham A     22764.000    eV        0.000 16.000
                            Buckingham rho  0.14900000    Ang       
                            Buckingham C     10.937044    eV*Ang^6  
--------------------------------------------------------------------------------
O1   s O2   s Buckingham    Buckingham A     22764.000    eV        0.000 16.000
                            Buckingham rho  0.14900000    Ang       
                            Buckingham C     10.937044    eV*Ang^6  
--------------------------------------------------------------------------------
O1   s O3   s Buckingham    Buckingham A     22764.000    eV        0.000 16.000
                            Buckingham rho  0.14900000    Ang       
                            Buckingham C     10.937044    eV*Ang^6  
--------------------------------------------------------------------------------
O2   s O2   s Buckingham    Buckingham A     22764.000    eV        0.000 16.000
                            Buckingham rho  0.14900000    Ang       
                            Buckingham C     10.937044    eV*Ang^6  
--------------------------------------------------------------------------------
O2   s O3   s Buckingham    Buckingham A     22764.000    eV        0.000 16.000
                            Buckingham rho  0.14900000    Ang       
                            Buckingham C     10.937044    eV*Ang^6  
--------------------------------------------------------------------------------
O3   s O3   s Buckingham    Buckingham A     22764.000    eV        0.000 16.000
                            Buckingham rho  0.14900000    Ang       
                            Buckingham C     10.937044    eV*Ang^6  
--------------------------------------------------------------------------------
O1   c O1   s Spring (c-s)  Spring k 2       180.31577    eV*Ang^-2 0.000  0.800
                            Spring k 4       0.0000000    eV*Ang^-4 
--------------------------------------------------------------------------------
O2   c O2   s Spring (c-s)  Spring k 2       75.969800    eV*Ang^-2 0.000  0.800
                            Spring k 4       0.0000000    eV*Ang^-4 
--------------------------------------------------------------------------------
O3   c O3   s Spring (c-s)  Spring k 2       128.14270    eV*Ang^-2 0.000  0.800
                            Spring k 4       0.0000000    eV*Ang^-4 
--------------------------------------------------------------------------------

  General Three-body potentials :

--------------------------------------------------------------------------------
  Atoms       Potential      Parameter       Value         Units   Cutoffs(Ang)
  1 / 2 / 3                                                          Min /  Max 
--------------------------------------------------------------------------------
Si    core    Harmonic      Three-body cnst  1.2614000    eV*rad^-2 0.000  1.900
O1    shel                  Three-body angl  109.47000    degrees   0.000  1.900
O1    shel                  Three-body k4    0.0000000    eV*rad^-4 0.000  3.500
                            Three-body k3    0.0000000    eV*rad^-3 
--------------------------------------------------------------------------------
Si    core    Harmonic      Three-body cnst  1.2614000    eV*rad^-2 0.000  1.900
O1    shel                  Three-body angl  109.47000    degrees   0.000  1.900
õ(1   shel                  Three-body k4    0.0000000    eV*rad^-4 0.000  3.500
                            Three-body k3    0.0000000    eV*rad^-3 
--------------------------------------------------------------------------------
Si    core    Harmonic      Three-body cnst  1.2614000    eV*rad^-2 0.000  1.900
õ(1   shel                  Three-body angl  109.47000    degrees   0.000  1.900
õ(1   shel                  Three-body k4    0.0000000    eV*rad^-4 0.000  3.500
                            Three-body k3    0.0000000    eV*rad^-3 
--------------------------------------------------------------------------------
Si    core    Harmonic      Three-body cnst  1.2614000    eV*rad^-2 0.000  1.900
O1    shel                  Three-body angl  109.47000    degrees   0.000  1.900
O2    shel                  Three-body k4    0.0000000    eV*rad^-4 0.000  3.500
                            Three-body k3    0.0000000    eV*rad^-3 
--------------------------------------------------------------------------------
Si    core    Harmonic      Three-body cnst  1.2614000    eV*rad^-2 0.000  1.900
O1    shel                  Three-body angl  109.47000    degrees   0.000  1.900
õ(2   shel                  Three-body k4    0.0000000    eV*rad^-4 0.000  3.500
                            Three-body k3    0.0000000    eV*rad^-3 
--------------------------------------------------------------------------------
Si    core    Harmonic      Three-body cnst  1.2614000    eV*rad^-2 0.000  1.900
O2    shel                  Three-body angl  109.47000    degrees   0.000  1.900
õ(1   shel                  Three-body k4    0.0000000    eV*rad^-4 0.000  3.500
                            Three-body k3    0.0000000    eV*rad^-3 
--------------------------------------------------------------------------------
Si    core    Harmonic      Three-body cnst  1.2614000    eV*rad^-2 0.000  1.900
õ(1   shel                  Three-body angl  109.47000    degrees   0.000  1.900
õ(2   shel                  Three-body k4    0.0000000    eV*rad^-4 0.000  3.500
                            Three-body k3    0.0000000    eV*rad^-3 
--------------------------------------------------------------------------------
Si    core    Harmonic      Three-body cnst  1.2614000    eV*rad^-2 0.000  1.900
O2    shel                  Three-body angl  109.47000    degrees   0.000  1.900
O2    shel                  Three-body k4    0.0000000    eV*rad^-4 0.000  3.500
                            Three-body k3    0.0000000    eV*rad^-3 
--------------------------------------------------------------------------------
Si    core    Harmonic      Three-body cnst  1.2614000    eV*rad^-2 0.000  1.900
O2    shel                  Three-body angl  109.47000    degrees   0.000  1.900
õ(2   shel                  Three-body k4    0.0000000    eV*rad^-4 0.000  3.500
                            Three-body k3    0.0000000    eV*rad^-3 
--------------------------------------------------------------------------------
Si    core    Harmonic      Three-body cnst  1.2614000    eV*rad^-2 0.000  1.900
õ(2   shel                  Three-body angl  109.47000    degrees   0.000  1.900
õ(2   shel                  Three-body k4    0.0000000    eV*rad^-4 0.000  3.500
                            Three-body k3    0.0000000    eV*rad^-3 
--------------------------------------------------------------------------------

********************************************************************************
*  Output for configuration   1 : c00575.vasp                                  *
********************************************************************************


  Components of energy : 

--------------------------------------------------------------------------------
  Interatomic potentials     =         896.50971559 eV    
  Three-body potentials      =           0.00080415 eV    
  Monopole - monopole (real) =       -2676.00317478 eV    
  Monopole - monopole (recip)=       -1115.35404472 eV    
  Monopole - monopole (total)=       -3791.35721950 eV    
--------------------------------------------------------------------------------
  Total lattice energy       =       -2894.84669976 eV    
--------------------------------------------------------------------------------
  Total lattice energy       =         -279308.4547 kJ/(mole unit cells)
--------------------------------------------------------------------------------


  Number of variables =      363

  Maximum number of calculations  =          1000
  Maximum Hessian update interval =            10
  Maximum step size               =   0.100000000
  Maximum parameter tolerance     =   0.000010000
  Maximum function  tolerance     =   0.000010000
  Maximum gradient  tolerance     =   0.001000000
  Maximum gradient  component     =   0.010000000

  Symmetry not applied to optimisation

  Cell parameters to be optimised using strains

  Newton-Raphson optimiser to be used

  BFGS hessian update to be used

  Lower half triangular hessian to be used

  Minimiser to switch to RFO
  When gradient norm is less than     0.050000

  Dumpfile to be written after every cycle

  Start of bulk optimisation :

  Cycle:      0 Energy:     -2894.846700  Gnorm:      5.873299  CPU:    0.096
  ** Hessian calculated **
  Cycle:      1 Energy:     -2938.075035  Gnorm:      1.396274  CPU:    0.218
  ** Hessian calculated **
  Cycle:      2 Energy:     -2942.849220  Gnorm:      0.658192  CPU:    0.382
  Cycle:      3 Energy:     -2943.742695  Gnorm:      0.342811  CPU:    0.463
  Cycle:      4 Energy:     -2944.163860  Gnorm:      0.288900  CPU:    0.559
  Cycle:      5 Energy:     -2944.703939  Gnorm:      0.245543  CPU:    0.656
  Cycle:      6 Energy:     -2945.309556  Gnorm:      0.218966  CPU:    0.755
  Cycle:      7 Energy:     -2945.698782  Gnorm:      0.166755  CPU:    0.840
  Cycle:      8 Energy:     -2945.865033  Gnorm:      0.119206  CPU:    0.923
  Cycle:      9 Energy:     -2945.946533  Gnorm:      0.100154  CPU:    1.020
  Cycle:     10 Energy:     -2945.997480  Gnorm:      0.086001  CPU:    1.116
  Cycle:     11 Energy:     -2946.041260  Gnorm:      0.084635  CPU:    1.213
  ** Hessian calculated **
  Cycle:     12 Energy:     -2946.055121  Gnorm:      0.076811  CPU:    1.393
  Cycle:     13 Energy:     -2946.078875  Gnorm:      0.074466  CPU:    1.505
  Cycle:     14 Energy:     -2946.107736  Gnorm:      0.072496  CPU:    1.603
  Cycle:     15 Energy:     -2946.144104  Gnorm:      0.064029  CPU:    1.700
  Cycle:     16 Energy:     -2946.187142  Gnorm:      0.060801  CPU:    1.797
  Cycle:     17 Energy:     -2946.231799  Gnorm:      0.064312  CPU:    1.895
  Cycle:     18 Energy:     -2946.253911  Gnorm:      0.057796  CPU:    1.979
  Cycle:     19 Energy:     -2946.272793  Gnorm:      0.062499  CPU:    2.077
  Cycle:     20 Energy:     -2946.293125  Gnorm:      0.063959  CPU:    2.175
  Cycle:     21 Energy:     -2946.320762  Gnorm:      0.066517  CPU:    2.273
  ** Hessian calculated **
  Cycle:     22 Energy:     -2946.333361  Gnorm:      0.066062  CPU:    2.456
  Cycle:     23 Energy:     -2946.358568  Gnorm:      0.064728  CPU:    2.609
  Cycle:     24 Energy:     -2946.393044  Gnorm:      0.063046  CPU:    2.720
  Cycle:     25 Energy:     -2946.503153  Gnorm:      0.054707  CPU:    2.817
  Cycle:     26 Energy:     -2946.549808  Gnorm:      0.054097  CPU:    2.915
  Cycle:     27 Energy:     -2946.705917  Gnorm:      0.035319  CPU:    3.016
  ** Hessian has wrong structure
  ** Imaginary eigenvectors =   5
  Cycle:     28 Energy:     -2946.741188  Gnorm:      0.086670  CPU:    3.236
  ** Hessian has wrong structure
  ** Imaginary eigenvectors =   3
  Cycle:     29 Energy:     -2946.829456  Gnorm:      0.110983  CPU:    3.610
  ** Hessian has wrong structure
  ** Imaginary eigenvectors =   1
  Cycle:     30 Energy:     -2946.959809  Gnorm:      0.110531  CPU:    3.902
  ** Hessian has required structure
  Cycle:     31 Energy:     -2947.193763  Gnorm:      0.067537  CPU:    4.130
  ** Hessian has required structure
  Cycle:     32 Energy:     -2947.298967  Gnorm:      0.054094  CPU:    4.283
  ** Hessian has required structure
  Cycle:     33 Energy:     -2947.337608  Gnorm:      0.027096  CPU:    4.402
  ** Hessian has required structure
  Cycle:     34 Energy:     -2947.383779  Gnorm:      0.031571  CPU:    4.567
  ** Hessian has required structure
  Cycle:     35 Energy:     -2947.405855  Gnorm:      0.051945  CPU:    4.705
  ** Hessian has required structure
  Cycle:     36 Energy:     -2947.422561  Gnorm:      0.039752  CPU:    4.856
  ** Hessian has required structure
  Cycle:     37 Energy:     -2947.430654  Gnorm:      0.022878  CPU:    4.994
  ** Hessian has required structure
  Cycle:     38 Energy:     -2947.436999  Gnorm:      0.017605  CPU:    5.146
  ** Hessian has required structure
  Cycle:     39 Energy:     -2947.440894  Gnorm:      0.015658  CPU:    5.281
  ** Hessian has required structure
  Cycle:     40 Energy:     -2947.443304  Gnorm:      0.016177  CPU:    5.420
  ** Hessian has required structure
  Cycle:     41 Energy:     -2947.447810  Gnorm:      0.008210  CPU:    5.646
  ** Hessian has required structure
  Cycle:     42 Energy:     -2947.448996  Gnorm:      0.004240  CPU:    5.803
  ** Hessian has required structure
  Cycle:     43 Energy:     -2947.449279  Gnorm:      0.002568  CPU:    5.937
  ** Hessian has required structure
  Cycle:     44 Energy:     -2947.449408  Gnorm:      0.001302  CPU:    6.091
  ** Hessian has required structure
  Cycle:     45 Energy:     -2947.449440  Gnorm:      0.000656  CPU:    6.241
  ** Hessian has required structure
  Cycle:     46 Energy:     -2947.449452  Gnorm:      0.000330  CPU:    6.395
  ** Hessian has required structure
  Cycle:     47 Energy:     -2947.449454  Gnorm:      0.000231  CPU:    6.516
  ** Hessian has required structure
  Cycle:     48 Energy:     -2947.449454  Gnorm:      0.000162  CPU:    6.639
  ** Hessian has required structure
  Cycle:     49 Energy:     -2947.449455  Gnorm:      0.000113  CPU:    6.758
  ** Hessian has required structure
  Cycle:     50 Energy:     -2947.449455  Gnorm:      0.000079  CPU:    6.888
  ** Hessian has required structure


  **** Optimisation achieved ****


  Final energy =   -2947.44945601 eV      
  Final Gnorm  =       0.00004753

  Components of energy : 

--------------------------------------------------------------------------------
  Interatomic potentials     =         777.58001605 eV    
  Three-body potentials      =           0.02861920 eV    
  Monopole - monopole (real) =       -1563.51303925 eV    
  Monopole - monopole (recip)=       -2161.54505201 eV    
  Monopole - monopole (total)=       -3725.05809126 eV    
--------------------------------------------------------------------------------
  Total lattice energy       =       -2947.44945601 eV    
--------------------------------------------------------------------------------
  Total lattice energy       =         -284383.8166 kJ/(mole unit cells)
--------------------------------------------------------------------------------

  Final fractional coordinates of atoms :

--------------------------------------------------------------------------------
   No.  Atomic        x           y          z          Radius
        Label       (Frac)      (Frac)     (Frac)       (Angs) 
--------------------------------------------------------------------------------
     1  Ge    c     0.052090    0.000000    0.372270    0.000000
     2  Ge    c     0.452070    0.941157    0.361009    0.000000
     3  Ge    c     0.952100    0.937120    0.629660    0.000000
     4  Ge    c     0.551921    0.998768    0.618788    0.000000
     5  Ge    c     0.549612    0.008772    0.105258    0.000000
     6  Ge    c     0.440116    0.940297    0.854315    0.000000
     7  Ge    c     0.146662    0.308740    0.288363    0.000000
     8  Ge    c     0.353868    0.628785    0.284714    0.000000
     9  Ge    c     0.827289    0.225385    0.732410    0.000000
    10  Ge    c     0.676484    0.712637    0.731577    0.000000
    11  Ge    c     0.858370    0.624703    0.732392    0.000000
    12  Ge    c     0.646444    0.311670    0.735396    0.000000
    13  Ge    c     0.174460    0.715359    0.285763    0.000000
    14  Ge    c     0.327052    0.222884    0.283620    0.000000
    15  Ge    c     0.653649    0.317197    0.051595    0.000000
    16  Ge    c     0.859385    0.635582    0.044103    0.000000
    17  Ge    c     0.324612    0.228963    0.974791    0.000000
    18  Ge    c     0.347414    0.627103    0.969499    0.000000
    19  Ge    c     0.677161    0.718998    0.042731    0.000000
    20  Ge    c     0.835052    0.233926    0.046824    0.000000
    21  Si    c     0.956523    0.945983    0.113223    0.000000
    22  Si    c     0.057706    0.993158    0.875067    0.000000
    23  Si    c     0.166118    0.696454    0.980013    0.000000
    24  Si    c     0.142841    0.306435    0.989449    0.000000
    25  O1    c     0.084477    0.204363    0.383345    0.000000
    26  O1    c     0.421009    0.735878    0.373758    0.000000
    27  O1    c     0.873625    0.069578    0.645629    0.000000
    28  O1    c     0.629568    0.864146    0.640823    0.000000
    29  O1    c     0.926219    0.730596    0.650051    0.000000
    30  O1    c     0.575341    0.205003    0.656341    0.000000
    31  O1    c     0.127074    0.853597    0.385707    0.000000
    32  O1    c     0.376949    0.085342    0.382346    0.000000
    33  O1    c     0.981163    0.960990    0.474082    0.000000
    34  O1    c     0.528083    0.984817    0.457443    0.000000
    35  O3    c     0.024305    0.973726    0.211964    0.000000
    36  O1    c     0.476803    0.964161    0.201803    0.000000
    37  O3    c     0.028435    0.991908    0.729276    0.000000
    38  O1    c     0.471575    0.942399    0.699054    0.000000
    39  O1    c     0.586049    0.209033    0.131447    0.000000
    40  O3    c     0.924175    0.757379    0.129182    0.000000
    41  O1    c     0.360301    0.070971    0.877373    0.000000
    42  O2    c     0.120639    0.838631    0.893874    0.000000
    43  O1    c     0.411655    0.736438    0.884469    0.000000
    44  O2    c     0.091551    0.181920    0.900072    0.000000
    45  O1    c     0.625455    0.865617    0.129128    0.000000
    46  O3    c     0.888005    0.085373    0.134619    0.000000
    47  O1    c     0.516059    0.002126    0.947931    0.000000
    48  O2    c     0.985384    0.965051    0.965886    0.000000
    49  O1    c     0.160976    0.511041    0.341798    0.000000
    50  O1    c     0.340916    0.429034    0.340871    0.000000
    51  O1    c     0.843769    0.424689    0.669880    0.000000
    52  O1    c     0.658541    0.510397    0.672061    0.000000
    53  O1    c     0.231003    0.189052    0.287184    0.000000
    54  O1    c     0.270036    0.751374    0.288926    0.000000
    55  O1    c     0.730950    0.192894    0.727055    0.000000
    56  O1    c     0.773079    0.741514    0.730299    0.000000
    57  O3    c     0.109733    0.316861    0.131211    0.000000
    58  O1    c     0.379268    0.615421    0.125811    0.000000
    59  O1    c     0.860056    0.223136    0.888634    0.000000
    60  O1    c     0.643619    0.729634    0.886002    0.000000
    61  O1    c     0.888455    0.604797    0.889248    0.000000
    62  O1    c     0.624307    0.339547    0.893644    0.000000
    63  O3    c     0.142426    0.722689    0.126542    0.000000
    64  O1    c     0.360899    0.206498    0.128617    0.000000
    65  O1    c     0.665310    0.519884    0.109374    0.000000
    66  O1    c     0.850129    0.437166    0.108532    0.000000
    67  O1    c     0.345731    0.422090    0.910050    0.000000
    68  O2    c     0.145283    0.501365    0.933813    0.000000
    69  O1    c     0.738920    0.200216    0.056468    0.000000
    70  O1    c     0.773557    0.749958    0.041877    0.000000
    71  O3    c     0.227194    0.223674    0.995813    0.000000
    72  O3    c     0.255892    0.720915    0.964451    0.000000
    73  O1    s     0.086664    0.196844    0.375498    0.000000
    74  O1    s     0.418349    0.743070    0.366276    0.000000
    75  O1    s     0.876141    0.071508    0.651285    0.000000
    76  O1    s     0.627192    0.862737    0.646270    0.000000
    77  O1    s     0.923120    0.738565    0.654634    0.000000
    78  O1    s     0.578966    0.197556    0.659500    0.000000
    79  O1    s     0.125206    0.853653    0.376901    0.000000
    80  O1    s     0.378650    0.085305    0.373243    0.000000
    81  O1    s     0.984902    0.962427    0.477349    0.000000
    82  O1    s     0.523735    0.982374    0.461482    0.000000
    83  O3    s     0.019211    0.972789    0.213730    0.000000
    84  O1    s     0.480971    0.966113    0.205281    0.000000
    85  O3    s     0.025458    0.987759    0.736208    0.000000
    86  O1    s     0.475112    0.946390    0.704638    0.000000
    87  O1    s     0.588504    0.202809    0.123613    0.000000
    88  O3    s     0.922144    0.765697    0.121020    0.000000
    89  O1    s     0.363365    0.073802    0.883350    0.000000
    90  O2    s     0.118901    0.839715    0.900968    0.000000
    91  O1    s     0.408734    0.743173    0.888911    0.000000
    92  O2    s     0.093427    0.175609    0.906845    0.000000
    93  O1    s     0.624017    0.864463    0.120598    0.000000
    94  O3    s     0.890201    0.084215    0.125591    0.000000
    95  O1    s     0.512781    0.997977    0.952110    0.000000
    96  O2    s     0.989963    0.966015    0.970836    0.000000
    97  O1    s     0.160811    0.509585    0.333468    0.000000
    98  O1    s     0.340950    0.430190    0.332348    0.000000
    99  O1    s     0.843699    0.425527    0.679032    0.000000
   100  O1    s     0.658924    0.510148    0.681045    0.000000
   101  O1    s     0.232087    0.200232    0.286981    0.000000
   102  O1    s     0.268737    0.739934    0.288350    0.000000
   103  O1    s     0.732032    0.203881    0.728069    0.000000
   104  O1    s     0.772022    0.730922    0.730556    0.000000
   105  O3    s     0.115721    0.315221    0.128876    0.000000
   106  O1    s     0.374975    0.617290    0.125729    0.000000
   107  O1    s     0.855651    0.224140    0.888849    0.000000
   108  O1    s     0.648426    0.727651    0.885984    0.000000
   109  O1    s     0.883952    0.608636    0.889161    0.000000
   110  O1    s     0.628182    0.335777    0.893172    0.000000
   111  O3    s     0.147236    0.719547    0.124258    0.000000
   112  O1    s     0.355880    0.209290    0.128329    0.000000
   113  O1    s     0.665259    0.518469    0.100218    0.000000
   114  O1    s     0.849769    0.437771    0.099321    0.000000
   115  O1    s     0.344275    0.423069    0.919366    0.000000
   116  O2    s     0.147038    0.501044    0.943558    0.000000
   117  O1    s     0.739898    0.211087    0.055384    0.000000
   118  O1    s     0.772539    0.739350    0.042084    0.000000
   119  O3    s     0.226577    0.232476    0.993496    0.000000
   120  O3    s     0.254108    0.711348    0.966369    0.000000
--------------------------------------------------------------------------------

  Final Cartesian lattice vectors (Angstroms) :

       17.505354    0.270218   -0.160171
        0.119108    7.812325   -0.043331
       -0.098619   -0.060473   10.403541


  Final cell parameters and derivatives :

--------------------------------------------------------------------------------
       a           17.508172 Angstrom     dE/de1(xx)     0.002896 eV/strain
       b            7.813353 Angstrom     dE/de2(yy)     0.003065 eV/strain
       c           10.404184 Angstrom     dE/de3(zz)     0.002423 eV/strain
       alpha       90.659002 Degrees      dE/de4(yz)    -0.000122 eV/strain
       beta        91.072338 Degrees      dE/de5(xz)     0.000174 eV/strain
       gamma       88.239352 Degrees      dE/de6(xy)     0.000129 eV/strain
--------------------------------------------------------------------------------

  Primitive cell volume =          1422.260555 Angs**3

  Density of cell =      2.723389 g/cm**3

  Non-primitive cell volume =          1422.260555 Angs**3


  Final internal derivatives :

--------------------------------------------------------------------------------
   No.  Atomic          a             b             c           Radius
        Label          (eV)          (eV)          (eV)        (eV/Angs)
--------------------------------------------------------------------------------
      1 Ge    c       0.000000      0.000000      0.000000      0.000000
      2 Ge    c       0.000692     -0.000248      0.000165      0.000000
      3 Ge    c      -0.000620     -0.000525      0.000187      0.000000
      4 Ge    c       0.000149      0.000141      0.000311      0.000000
      5 Ge    c       0.003206      0.000335      0.000047      0.000000
      6 Ge    c      -0.001067      0.000237     -0.001858      0.000000
      7 Ge    c      -0.001073     -0.000579     -0.000598      0.000000
      8 Ge    c       0.001848      0.000791      0.000278      0.000000
      9 Ge    c       0.000296     -0.000242     -0.000378      0.000000
     10 Ge    c      -0.000029      0.000078     -0.000400      0.000000
     11 Ge    c       0.000128      0.000191      0.000042      0.000000
     12 Ge    c       0.000982     -0.000029     -0.000511      0.000000
     13 Ge    c      -0.000298      0.000115     -0.000060      0.000000
     14 Ge    c      -0.000064     -0.000179      0.000198      0.000000
     15 Ge    c      -0.000868     -0.000552      0.000654      0.000000
     16 Ge    c       0.000337      0.000138     -0.000005      0.000000
     17 Ge    c      -0.000043     -0.000033      0.000361      0.000000
     18 Ge    c      -0.001855     -0.000334      0.000304      0.000000
     19 Ge    c      -0.000312      0.000722      0.000498      0.000000
     20 Ge    c       0.000029      0.000036      0.000199      0.000000
     21 Si    c      -0.000564     -0.000319      0.000083      0.000000
     22 Si    c       0.000195      0.000234      0.000033      0.000000
     23 Si    c      -0.000354      0.000079     -0.000042      0.000000
     24 Si    c      -0.001025     -0.000192      0.000113      0.000000
     25 O1    c       0.001511      0.001996      0.000662      0.000000
     26 O1    c      -0.001059     -0.000721      0.000093      0.000000
     27 O1    c      -0.001181      0.000402      0.000780      0.000000
     28 O1    c       0.000391      0.000171      0.000477      0.000000
     29 O1    c       0.001480      0.001039      0.000176      0.000000
     30 O1    c      -0.001870     -0.000648     -0.000154      0.000000
     31 O1    c       0.002276     -0.001217      0.000229      0.000000
     32 O1    c      -0.000593      0.000635      0.000020      0.000000
     33 O1    c      -0.002229     -0.000161      0.001225      0.000000
     34 O1    c       0.000621     -0.000114     -0.000133      0.000000
     35 O3    c      -0.000167      0.000071     -0.001489      0.000000
     36 O1    c      -0.003934     -0.000331      0.000772      0.000000
     37 O3    c      -0.000409      0.000034     -0.000568      0.000000
     38 O1    c      -0.000480     -0.000309      0.000093      0.000000
     39 O1    c       0.000399     -0.000137     -0.000869      0.000000
     40 O3    c       0.000697      0.000501     -0.000097      0.000000
     41 O1    c      -0.002100      0.001016     -0.000266      0.000000
     42 O2    c       0.000607     -0.000353      0.000175      0.000000
     43 O1    c      -0.000425     -0.001760     -0.001357      0.000000
     44 O2    c      -0.000258     -0.000070     -0.000050      0.000000
     45 O1    c      -0.000680      0.000213     -0.001154      0.000000
     46 O3    c       0.000233     -0.000188     -0.000153      0.000000
     47 O1    c       0.008851      0.000640      0.002748      0.000000
     48 O2    c      -0.000108      0.000088      0.000080      0.000000
     49 O1    c       0.000016      0.001369      0.000765      0.000000
     50 O1    c      -0.000400     -0.002410      0.001207      0.000000
     51 O1    c      -0.000101      0.000111     -0.000011      0.000000
     52 O1    c       0.000113      0.000030     -0.000139      0.000000
     53 O1    c       0.002528     -0.001052     -0.000065      0.000000
     54 O1    c      -0.003487      0.001433     -0.000325      0.000000
     55 O1    c      -0.000460     -0.000021      0.000099      0.000000
     56 O1    c       0.000625     -0.000107      0.000003      0.000000
     57 O3    c      -0.000179     -0.000038      0.000462      0.000000
     58 O1    c       0.002390      0.000271      0.000731      0.000000
     59 O1    c       0.000264      0.000051     -0.000150      0.000000
     60 O1    c      -0.000295      0.000151      0.000222      0.000000
     61 O1    c      -0.000353     -0.000145     -0.000080      0.000000
     62 O1    c      -0.001227      0.000000      0.001202      0.000000
     63 O3    c      -0.000193      0.000064     -0.000392      0.000000
     64 O1    c       0.000813     -0.000263     -0.000364      0.000000
     65 O1    c       0.000231     -0.000280      0.000473      0.000000
     66 O1    c      -0.000166     -0.000389     -0.000044      0.000000
     67 O1    c       0.000461     -0.000240     -0.001034      0.000000
     68 O2    c      -0.000016      0.000514     -0.000144      0.000000
     69 O1    c       0.000115     -0.000139     -0.000066      0.000000
     70 O1    c      -0.000306      0.000063     -0.000004      0.000000
     71 O3    c       0.001499     -0.000555      0.000034      0.000000
     72 O3    c      -0.001679      0.000326      0.000228      0.000000
     73 O1    s      -0.001373     -0.000498      0.000122      0.000000
     74 O1    s       0.001214      0.000598     -0.000035      0.000000
     75 O1    s       0.000816     -0.000300     -0.000333      0.000000
     76 O1    s       0.000122     -0.000076     -0.000157      0.000000
     77 O1    s      -0.001073     -0.000538     -0.000005      0.000000
     78 O1    s       0.000705      0.000423     -0.000052      0.000000
     79 O1    s      -0.000010      0.000166      0.000177      0.000000
     80 O1    s      -0.000389     -0.000335      0.000228      0.000000
     81 O1    s      -0.000083     -0.000137     -0.000369      0.000000
     82 O1    s       0.000296      0.000260     -0.000083      0.000000
     83 O3    s      -0.001091      0.000095      0.000033      0.000000
     84 O1    s       0.002322     -0.000172     -0.000479      0.000000
     85 O3    s      -0.000152      0.000080      0.000097      0.000000
     86 O1    s       0.000824      0.000139     -0.001128      0.000000
     87 O1    s      -0.000265      0.000193      0.000519      0.000000
     88 O3    s      -0.000076     -0.000197     -0.000036      0.000000
     89 O1    s      -0.000474      0.000204     -0.000432      0.000000
     90 O2    s       0.000091      0.000063     -0.000010      0.000000
     91 O1    s      -0.000330      0.000132     -0.000268      0.000000
     92 O2    s      -0.000370     -0.000012     -0.000223      0.000000
     93 O1    s       0.001050     -0.000224      0.000997      0.000000
     94 O3    s      -0.000124      0.000035      0.000293      0.000000
     95 O1    s      -0.002103      0.000072     -0.001474      0.000000
     96 O2    s      -0.000573     -0.000237      0.000094      0.000000
     97 O1    s       0.000657     -0.000530     -0.000204      0.000000
     98 O1    s      -0.000531      0.000766     -0.000074      0.000000
     99 O1    s       0.000058     -0.000076     -0.000046      0.000000
    100 O1    s       0.000115      0.000139     -0.000072      0.000000
    101 O1    s      -0.000621      0.000686      0.000021      0.000000
    102 O1    s       0.001090     -0.000692      0.000800      0.000000
    103 O1    s       0.000904     -0.000041     -0.000235      0.000000
    104 O1    s      -0.000165      0.000019     -0.000021      0.000000
    105 O3    s      -0.000694      0.000140      0.000023      0.000000
    106 O1    s       0.001125     -0.000137     -0.000174      0.000000
    107 O1    s      -0.000076     -0.000108     -0.000004      0.000000
    108 O1    s       0.000065     -0.000241     -0.000005      0.000000
    109 O1    s       0.000006      0.000228     -0.000011      0.000000
    110 O1    s       0.000267      0.000044     -0.000290      0.000000
    111 O3    s      -0.000195     -0.000151      0.000217      0.000000
    112 O1    s      -0.000524      0.000421      0.000510      0.000000
    113 O1    s      -0.000433      0.000222     -0.000379      0.000000
    114 O1    s       0.000301      0.000188      0.000153      0.000000
    115 O1    s      -0.000295     -0.000262     -0.000066      0.000000
    116 O2    s      -0.000217      0.000181     -0.000183      0.000000
    117 O1    s      -0.000105      0.000020      0.000184      0.000000
    118 O1    s       0.000030     -0.000007      0.000022      0.000000
    119 O3    s      -0.000099     -0.000010     -0.000140      0.000000
    120 O3    s      -0.000636      0.000121     -0.000584      0.000000
--------------------------------------------------------------------------------
  Maximum abs         0.008851      0.002410      0.002748      0.000000
--------------------------------------------------------------------------------


  Born effective charge tensors : 

-------------------------------------------------------------------------------
  Atom             x           y             z
-------------------------------------------------------------------------------
    1 Ge    x       3.9733      0.2479     -0.0503
            y      -0.0926      3.9439     -0.0254
            z      -0.9137     -0.1867      4.3799
-------------------------------------------------------------------------------
    2 Ge    x       4.1253      0.2649     -0.0271
            y      -0.0956      3.9209     -0.0074
            z       0.8153      0.1505      4.2586
-------------------------------------------------------------------------------
    3 Ge    x       4.0474      0.2670     -0.3642
            y      -0.1718      3.9015     -0.0971
            z      -0.1818     -0.0583      4.6151
-------------------------------------------------------------------------------
    4 Ge    x       4.1935      0.2665      0.4558
            y      -0.1661      3.9019      0.1074
            z       0.1772      0.0203      4.4721
-------------------------------------------------------------------------------
    5 Ge    x       4.4346      0.2167      0.0507
            y      -0.0799      3.9107     -0.0081
            z      -0.6155     -0.1736      3.6737
-------------------------------------------------------------------------------
    6 Ge    x       4.3750      0.2920     -0.4441
            y      -0.1239      3.9271     -0.0470
            z      -0.3807      0.0111      3.9629
-------------------------------------------------------------------------------
    7 Ge    x       3.7966      0.0807     -0.2897
            y       0.4527      4.2210     -0.1256
            z      -0.0686     -0.1891      3.5534
-------------------------------------------------------------------------------
    8 Ge    x       3.9068      0.0826      0.2609
            y       0.4592      4.2016      0.0909
            z       0.1315      0.1603      3.5767
-------------------------------------------------------------------------------
    9 Ge    x       4.0337     -0.2429     -0.1888
            y      -0.2324      4.2045      0.0489
            z       0.0449      0.1998      3.5797
-------------------------------------------------------------------------------
   10 Ge    x       4.0429     -0.2442      0.2687
            y      -0.2258      4.1996     -0.0722
            z       0.0130     -0.2089      3.5805
-------------------------------------------------------------------------------
   11 Ge    x       3.9714      0.0630     -0.1594
            y       0.4865      4.1847     -0.0650
            z      -0.0529     -0.1985      3.5738
-------------------------------------------------------------------------------
   12 Ge    x       4.0039      0.0619      0.1784
            y       0.4645      4.1793      0.0672
            z       0.1275      0.2148      3.5829
-------------------------------------------------------------------------------
   13 Ge    x       3.9351     -0.2200     -0.3041
            y      -0.2343      4.1674      0.1474
            z      -0.0130      0.1900      3.5753
-------------------------------------------------------------------------------
   14 Ge    x       4.0170     -0.2393      0.3284
            y      -0.2675      4.1443     -0.1080
            z       0.0414     -0.1663      3.5665
-------------------------------------------------------------------------------
   15 Ge    x       4.1327      0.0789     -0.2504
            y       0.4348      4.1960     -0.0919
            z      -0.0977     -0.1926      3.4146
-------------------------------------------------------------------------------
   16 Ge    x       3.9840      0.0512      0.2282
            y       0.4120      4.2371      0.0458
            z       0.0108      0.1513      3.3380
-------------------------------------------------------------------------------
   17 Ge    x       3.9110     -0.3369     -0.4101
            y      -0.2332      4.1925      0.0539
            z      -0.0622      0.1456      3.5106
-------------------------------------------------------------------------------
   18 Ge    x       4.0797      0.1352     -0.2785
            y       0.4491      4.1497     -0.1056
            z      -0.1661     -0.1808      3.4895
-------------------------------------------------------------------------------
   19 Ge    x       4.1743     -0.2770     -0.3340
            y      -0.2942      4.1459      0.0119
            z      -0.0479      0.1130      3.4425
-------------------------------------------------------------------------------
   20 Ge    x       4.1249     -0.2375      0.2552
            y      -0.2627      4.1608     -0.0057
            z      -0.0187     -0.0919      3.3701
-------------------------------------------------------------------------------
   21 Si    x       3.8972      0.1674      0.0112
            y      -0.1197      3.6874      0.0146
            z       0.6574      0.1018      3.1353
-------------------------------------------------------------------------------
   22 Si    x       3.3582      0.1068      0.4411
            y      -0.0905      3.3564      0.0544
            z       0.3848     -0.0015      3.5058
-------------------------------------------------------------------------------
   23 Si    x       3.6048     -0.1896      0.0839
            y      -0.1893      3.6077     -0.0799
            z      -0.1287     -0.1298      3.0255
-------------------------------------------------------------------------------
   24 Si    x       3.5011      0.0141      0.1602
            y       0.2493      3.6608      0.1240
            z      -0.0737      0.1967      2.9610
-------------------------------------------------------------------------------
   25 O1    x      -1.8903     -0.8480      0.3939
            y      -0.8045     -2.5029      0.3671
            z       0.4610      0.3878     -1.6995
-------------------------------------------------------------------------------
   26 O1    x      -1.9806     -0.8582     -0.3756
            y      -0.8124     -2.5054     -0.3086
            z      -0.4540     -0.3420     -1.5857
-------------------------------------------------------------------------------
   27 O1    x      -2.2447      0.8992      0.4606
            y       0.9561     -2.2911     -0.4626
            z       0.4215     -0.4912     -1.6332
-------------------------------------------------------------------------------
   28 O1    x      -2.2396      0.9017     -0.5326
            y       0.9340     -2.2901      0.5011
            z      -0.4980      0.5483     -1.6588
-------------------------------------------------------------------------------
   29 O1    x      -1.9554     -0.8401      0.4659
            y      -0.7951     -2.5417      0.4753
            z       0.4273      0.4663     -1.6258
-------------------------------------------------------------------------------
   30 O1    x      -2.0025     -0.8334     -0.5137
            y      -0.7691     -2.5204     -0.5328
            z      -0.4654     -0.5297     -1.6213
-------------------------------------------------------------------------------
   31 O1    x      -2.1408      0.8753      0.3380
            y       0.9322     -2.2535     -0.4166
            z       0.4012     -0.3989     -1.7184
-------------------------------------------------------------------------------
   32 O1    x      -2.1955      0.8780     -0.3331
            y       0.9258     -2.2335      0.3636
            z      -0.4063      0.3734     -1.6440
-------------------------------------------------------------------------------
   33 O1    x      -1.9672     -0.2547      0.9703
            y      -0.1065     -1.2798      0.1990
            z       1.2335      0.3585     -3.3487
-------------------------------------------------------------------------------
   34 O1    x      -2.0289     -0.2452     -0.9397
            y      -0.0886     -1.2781     -0.1469
            z      -1.0951     -0.2725     -3.1469
-------------------------------------------------------------------------------
   35 O3    x      -1.9736     -0.1926     -0.8510
            y      -0.0794     -1.2718     -0.1621
            z      -0.8079     -0.2032     -2.4992
-------------------------------------------------------------------------------
   36 O1    x      -2.1391     -0.2455      0.8714
            y      -0.1119     -1.3542      0.2119
            z       0.8126      0.2717     -2.6265
-------------------------------------------------------------------------------
   37 O3    x      -1.8734     -0.1846     -0.8566
            y      -0.0837     -1.2443     -0.1274
            z      -0.8735     -0.1704     -2.8088
-------------------------------------------------------------------------------
   38 O1    x      -2.1704     -0.2682      0.8264
            y      -0.1507     -1.3154      0.1659
            z       0.8473      0.1907     -2.7015
-------------------------------------------------------------------------------
   39 O1    x      -2.1546     -0.8964      0.3323
            y      -0.8601     -2.4844      0.2209
            z       0.3982      0.2783     -1.4298
-------------------------------------------------------------------------------
   40 O3    x      -1.8882     -0.8590     -0.2310
            y      -0.7983     -2.4919     -0.1992
            z      -0.2903     -0.2366     -1.2971
-------------------------------------------------------------------------------
   41 O1    x      -2.1986      0.8493      0.5464
            y       0.8762     -2.3154     -0.5706
            z       0.4475     -0.5341     -1.6011
-------------------------------------------------------------------------------
   42 O2    x      -1.6675      0.6883     -0.3202
            y       0.6776     -2.0135      0.3530
            z      -0.2815      0.3725     -1.2561
-------------------------------------------------------------------------------
   43 O1    x      -2.0682     -0.8694      0.5663
            y      -0.8047     -2.5657      0.5713
            z       0.5103      0.5439     -1.5607
-------------------------------------------------------------------------------
   44 O2    x      -1.5379     -0.6626     -0.3449
            y      -0.5726     -2.1562     -0.3876
            z      -0.2779     -0.3919     -1.2471
-------------------------------------------------------------------------------
   45 O1    x      -2.3128      0.9282      0.3024
            y       0.9709     -2.2844     -0.3089
            z       0.3697     -0.3395     -1.4663
-------------------------------------------------------------------------------
   46 O3    x      -2.1758      0.9046     -0.1872
            y       0.9310     -2.1819      0.2232
            z      -0.2584      0.2415     -1.3368
-------------------------------------------------------------------------------
   47 O1    x      -2.2046     -0.2478     -0.7488
            y      -0.1432     -1.3718     -0.1843
            z      -0.5349     -0.1670     -2.2984
-------------------------------------------------------------------------------
   48 O2    x      -1.7579     -0.1323      0.5061
            y      -0.0517     -1.1932      0.0964
            z       0.3162      0.0919     -1.7340
-------------------------------------------------------------------------------
   49 O1    x      -1.3161     -0.1975      0.0624
            y      -0.3229     -3.1942      0.0071
            z       0.0081      0.0109     -1.4101
-------------------------------------------------------------------------------
   50 O1    x      -1.3550     -0.2004     -0.0789
            y      -0.3059     -3.1630      0.0231
            z      -0.0350      0.0258     -1.3728
-------------------------------------------------------------------------------
   51 O1    x      -1.3673     -0.2168      0.0553
            y      -0.3459     -3.1239     -0.0035
            z       0.0184      0.0032     -1.4129
-------------------------------------------------------------------------------
   52 O1    x      -1.3820     -0.2182     -0.0688
            y      -0.3336     -3.1272      0.0486
            z      -0.0321      0.0375     -1.4028
-------------------------------------------------------------------------------
   53 O1    x      -2.9697      0.2737      0.0162
            y       0.1895     -1.5992      0.0235
            z      -0.0037      0.0527     -1.2233
-------------------------------------------------------------------------------
   54 O1    x      -2.9758      0.2673     -0.0048
            y       0.1748     -1.6068     -0.0255
            z      -0.0587     -0.0507     -1.2209
-------------------------------------------------------------------------------
   55 O1    x      -3.0585      0.2877      0.0159
            y       0.2078     -1.5962     -0.0245
            z      -0.0134     -0.0642     -1.2148
-------------------------------------------------------------------------------
   56 O1    x      -3.0653      0.2978      0.0050
            y       0.2097     -1.5854      0.0139
            z      -0.0022      0.0542     -1.2167
-------------------------------------------------------------------------------
   57 O3    x      -1.3697     -0.0462      0.0783
            y      -0.1093     -1.3733      0.0047
            z       0.0380     -0.0055     -2.5129
-------------------------------------------------------------------------------
   58 O1    x      -1.4761     -0.0225     -0.0525
            y      -0.0879     -1.4242     -0.0073
            z      -0.0348     -0.0016     -2.7492
-------------------------------------------------------------------------------
   59 O1    x      -1.4737      0.1015     -0.1139
            y       0.1061     -1.4308      0.0143
            z      -0.0955     -0.0114     -2.7330
-------------------------------------------------------------------------------
   60 O1    x      -1.5218      0.1061      0.0193
            y       0.1111     -1.4245     -0.0317
            z       0.0401     -0.0123     -2.7011
-------------------------------------------------------------------------------
   61 O1    x      -1.4519     -0.0131     -0.0764
            y      -0.0873     -1.4447     -0.0448
            z      -0.0415     -0.0385     -2.7056
-------------------------------------------------------------------------------
   62 O1    x      -1.4498     -0.0120      0.0050
            y      -0.0805     -1.4421     -0.0143
            z      -0.0120     -0.0098     -2.7585
-------------------------------------------------------------------------------
   63 O3    x      -1.3360      0.1126     -0.0084
            y       0.1175     -1.3874     -0.0981
            z      -0.0167     -0.0795     -2.5880
-------------------------------------------------------------------------------
   64 O1    x      -1.5664      0.1303     -0.0696
            y       0.1395     -1.4168      0.0471
            z       0.0013      0.0372     -2.6621
-------------------------------------------------------------------------------
   65 O1    x      -1.4075     -0.1845      0.0908
            y      -0.2654     -3.1230      0.0444
            z       0.0346      0.0090     -1.3612
-------------------------------------------------------------------------------
   66 O1    x      -1.4001     -0.1857     -0.0894
            y      -0.2819     -3.2045      0.0437
            z      -0.0268      0.0416     -1.3452
-------------------------------------------------------------------------------
   67 O1    x      -1.4193     -0.1580      0.1491
            y      -0.2453     -3.1245      0.0282
            z       0.0850      0.0145     -1.3439
-------------------------------------------------------------------------------
   68 O2    x      -1.1893     -0.1224     -0.0707
            y      -0.2050     -2.5837      0.0506
            z      -0.0187      0.0371     -1.0844
-------------------------------------------------------------------------------
   69 O1    x      -3.1509      0.3007      0.0345
            y       0.2158     -1.5954      0.0194
            z       0.0565      0.0505     -1.1826
-------------------------------------------------------------------------------
   70 O1    x      -3.1489      0.2821      0.0001
            y       0.1517     -1.5735     -0.0032
            z      -0.0217     -0.0359     -1.1745
-------------------------------------------------------------------------------
   71 O3    x      -2.9518      0.3478      0.0515
            y       0.2555     -1.4784     -0.0172
            z       0.0262     -0.0391     -1.1103
-------------------------------------------------------------------------------
   72 O3    x      -3.0530      0.1737      0.0824
            y       0.0922     -1.4393      0.0328
            z       0.1190      0.0493     -1.1113
-------------------------------------------------------------------------------




  Elastic Constant Matrix: (Units=GPa)

-------------------------------------------------------------------------------
  Indices      1         2         3         4         5         6    
-------------------------------------------------------------------------------
       1     26.5592   12.8730    9.0633   -1.3977   -0.2939    6.9059
       2     12.8730   35.0812    6.6080   -0.3987    0.0050    7.4051
       3      9.0633    6.6080   16.4335   -0.6564   -0.4839    1.7479
       4     -1.3977   -0.3987   -0.6564    7.1535    2.1269   -1.1260
       5     -0.2939    0.0050   -0.4839    2.1269   13.8799   -1.2266
       6      6.9059    7.4051    1.7479   -1.1260   -1.2266   18.9951
-------------------------------------------------------------------------------


  Elastic Compliance Matrix: (Units=1/GPa)

-------------------------------------------------------------------------------
  Indices      1         2         3         4         5         6    
-------------------------------------------------------------------------------
       1    0.055850 -0.013239 -0.023923  0.006509 -0.001764 -0.012670
       2   -0.013239  0.036466 -0.006524 -0.002282 -0.000966 -0.009000
       3   -0.023923 -0.006524  0.076338  0.002005  0.002246  0.004480
       4    0.006509 -0.002282  0.002005  0.148577 -0.022053  0.005722
       5   -0.001764 -0.000966  0.002246 -0.022053  0.075856  0.004403
       6   -0.012670 -0.009000  0.004480  0.005722  0.004403  0.060971
-------------------------------------------------------------------------------

  Mechanical properties :

-------------------------------------------------------------------------------
  Convention :                    Reuss         Voigt         Hill
-------------------------------------------------------------------------------
  Bulk  Modulus (GPa)     =      12.30280      15.01806      13.66043
  Shear Modulus (GPa)     =       8.79468      11.30768      10.05118
-------------------------------------------------------------------------------
  Velocity S-wave (km/s)  =       1.79703       2.03766       1.92112
  Velocity P-wave (km/s)  =       2.97039       3.32424       3.15228
-------------------------------------------------------------------------------
  Compressibility (1/GPa) =    0.08128232
-------------------------------------------------------------------------------
  Stress axis :                     x             y             z
-------------------------------------------------------------------------------
  Youngs Moduli (GPa)     =      17.90514      27.42261      13.09958
-------------------------------------------------------------------------------
  Poissons Ratio (x)      =                     0.36305       0.31338
  Poissons Ratio (y)      =       0.23705                     0.08546
  Poissons Ratio (z)      =       0.42834       0.17890
-------------------------------------------------------------------------------


  Piezoelectric Strain Matrix: (Units=C/m**2)

-------------------------------------------------------------------------------
  Indices      1         2         3         4         5         6    
-------------------------------------------------------------------------------
       x     0.25045   0.38180   0.08498  -0.12190   0.57062   0.35502
       y     0.27380  -0.36530  -0.07614   1.39456   0.31713  -0.06464
       z     0.44126  -0.53103  -1.09625   0.22759   0.07406   0.07329
-------------------------------------------------------------------------------


  Piezoelectric Stress Matrix: (Units=10**-11 C/N)

-------------------------------------------------------------------------------
  Indices      1         2         3         4         5         6    
-------------------------------------------------------------------------------
       x     0.06015   0.65841   0.06329  -2.77343   4.69167   1.72319
       y     3.12859  -1.93566  -0.67603  20.22990  -0.72831   0.49125
       z     5.83224  -1.93052  -8.98266   3.44867  -0.18059   0.03740
-------------------------------------------------------------------------------


  Static dielectric constant tensor : 

-------------------------------------------------------------------------------
              x         y         z
-------------------------------------------------------------------------------
       x     5.24011  -0.02400  -0.10834
       y    -0.02400   6.63439  -0.03713
       z    -0.10834  -0.03713   4.14659
--------------------------------------------------------------------------------

  High frequency dielectric constant tensor : 

-------------------------------------------------------------------------------
              x         y         z
-------------------------------------------------------------------------------
       x     1.54730   0.00250   0.00153
       y     0.00250   1.55370  -0.00057
       z     0.00153  -0.00057   1.50502
-------------------------------------------------------------------------------

  Static refractive indices : 

-------------------------------------------------------------------------------
    1 =    2.03355      2 =    2.29138      3 =    2.57591
-------------------------------------------------------------------------------

  High frequency refractive indices : 

-------------------------------------------------------------------------------
    1 =    1.22677      2 =    1.24359      3 =    1.24682
-------------------------------------------------------------------------------


  Time to end of optimisation =       7.2726 seconds


  Peak dynamic memory used =       5.01 MB 


  Timing analysis for GULP :

--------------------------------------------------------------------------------
  Task / Subroutine                                          Time (Seconds)
--------------------------------------------------------------------------------
  Calculation of reciprocal space energy and derivatives          0.4992
  Calculation of real space energy and derivatives                5.3350
  Calculation of three-body energy and derivatives                0.1021
  Calculation and manipulation of Hessian matrix                  1.5311
  Calculation of matrix inversion                                 0.0259
  Global summation overhead                                       0.0001
--------------------------------------------------------------------------------
  Total CPU time                                                  7.2726
--------------------------------------------------------------------------------


  Dump file written as c00575.vasp.grs
  CIF file written as c00575.vasp.cif


  Job Finished at 13:38.10 31st October    2025                               

