********************************************************************************
*                       GENERAL UTILITY LATTICE PROGRAM                        *
*                                 Julian Gale                                  *
*                       Curtin Institute for Computation                       *
*                    School of Molecular and Life Sciences                     *
*                    Curtin University, Western Australia                      *
********************************************************************************
* Version = 6.1.2 * Last modified =   3rd November 2022                        *
********************************************************************************
*  optimise     - perform optimisation run                                     *
*  conp         - constant pressure calculation                                *
*  property     - calculate properties for final geometry                      *
********************************************************************************

  Job Started  at 13:30.33 31st October    2025                               

  Number of CPUs =     1


  Total number of configurations input =      1

********************************************************************************
*  Input for Configuration =   1 : c00531.vasp                                 *
********************************************************************************

  Formula = Ge20Si4O48                                                  

  Number of irreducible atoms/shells =     120


  Total number atoms/shells =     120

  Dimensionality = 3               :  Bulk   



  Cartesian lattice vectors (Angstroms) :

       17.182800    0.000000    0.000000
        0.000000    7.513760    0.000000
        0.000000    0.000000   10.447700

  Cell parameters (Angstroms/Degrees):

  a =      17.1828    alpha =  90.0000
  b =       7.5138    beta  =  90.0000
  c =      10.4477    gamma =  90.0000

  Initial cell volume =        1348.875752 Angs**3

  Temperature of configuration =   0.00     K 

  Pressure of configuration =         0.000 GPa 

  Fractional coordinates of asymmetric unit :

--------------------------------------------------------------------------------
   No.  Atomic       x           y          z         Charge      Occupancy
        Label      (Frac)      (Frac)     (Frac)        (e)         (Frac)  
--------------------------------------------------------------------------------
      1 Ge    c    0.052090    0.000000    0.372270     4.00000    1.000000    
      2 Ge    c    0.447910 *  0.000000 *  0.372270 *   4.00000    1.000000    
      3 Ge    c    0.947910 *  0.000000 *  0.627730 *   4.00000    1.000000    
      4 Ge    c    0.552090 *  0.000000 *  0.627730 *   4.00000    1.000000    
      5 Ge    c    0.556730 *  0.000000 *  0.122130 *   4.00000    1.000000    
      6 Ge    c    0.943270 *  0.000000 *  0.122130 *   4.00000    1.000000    
      7 Ge    c    0.443270 *  0.000000 *  0.877870 *   4.00000    1.000000    
      8 Ge    c    0.339810 *  0.706090 *  0.273440 *   4.00000    1.000000    
      9 Ge    c    0.839810 *  0.293910 *  0.726560 *   4.00000    1.000000    
     10 Ge    c    0.660190 *  0.706090 *  0.726560 *   4.00000    1.000000    
     11 Ge    c    0.839810 *  0.706090 *  0.726560 *   4.00000    1.000000    
     12 Ge    c    0.339810 *  0.293910 *  0.273440 *   4.00000    1.000000    
     13 Ge    c    0.660660 *  0.294090 *  0.017440 *   4.00000    1.000000    
     14 Ge    c    0.839340 *  0.705910 *  0.017440 *   4.00000    1.000000    
     15 Ge    c    0.339340 *  0.294090 *  0.982560 *   4.00000    1.000000    
     16 Ge    c    0.160660 *  0.705910 *  0.982560 *   4.00000    1.000000    
     17 Ge    c    0.339340 *  0.705910 *  0.982560 *   4.00000    1.000000    
     18 Ge    c    0.160660 *  0.294090 *  0.982560 *   4.00000    1.000000    
     19 Ge    c    0.660660 *  0.705910 *  0.017440 *   4.00000    1.000000    
     20 Ge    c    0.839340 *  0.294090 *  0.017440 *   4.00000    1.000000    
     21 Si    c    0.056730 *  0.000000 *  0.877870 *   4.00000    1.000000    
     22 Si    c    0.160190 *  0.293910 *  0.273440 *   4.00000    1.000000    
     23 Si    c    0.660190 *  0.293910 *  0.726560 *   4.00000    1.000000    
     24 Si    c    0.160190 *  0.706090 *  0.273440 *   4.00000    1.000000    
     25 O3    c    0.106570 *  0.174340 *  0.366200 *   1.33043    1.000000    
     26 O1    c    0.393430 *  0.825660 *  0.366200 *   1.73396    1.000000    
     27 O1    c    0.893430 *  0.174340 *  0.633800 *   1.73396    1.000000    
     28 O1    c    0.606570 *  0.825660 *  0.633800 *   1.73396    1.000000    
     29 O1    c    0.893430 *  0.825660 *  0.633800 *   1.73396    1.000000    
     30 O3    c    0.606570 *  0.174340 *  0.633800 *   1.33043    1.000000    
     31 O3    c    0.106570 *  0.825660 *  0.366200 *   1.33043    1.000000    
     32 O1    c    0.393430 *  0.174340 *  0.366200 *   1.73396    1.000000    
     33 O1    c    0.000000 *  0.000000 *  0.500000 *   1.73396    1.000000    
     34 O1    c    0.500000 *  0.000000 *  0.500000 *   1.73396    1.000000    
     35 O1    c    0.994520 *  0.000000 *  0.250840 *   1.73396    1.000000    
     36 O1    c    0.505480 *  0.000000 *  0.250840 *   1.73396    1.000000    
     37 O3    c    0.005480 *  0.000000 *  0.749160 *   1.33043    1.000000    
     38 O1    c    0.494520 *  0.000000 *  0.749160 *   1.73396    1.000000    
     39 O1    c    0.610230 *  0.175520 *  0.115390 *   1.73396    1.000000    
     40 O1    c    0.889770 *  0.824480 *  0.115390 *   1.73396    1.000000    
     41 O1    c    0.389770 *  0.175520 *  0.884610 *   1.73396    1.000000    
     42 O3    c    0.110230 *  0.824480 *  0.884610 *   1.33043    1.000000    
     43 O1    c    0.389770 *  0.824480 *  0.884610 *   1.73396    1.000000    
     44 O3    c    0.110230 *  0.175520 *  0.884610 *   1.33043    1.000000    
     45 O1    c    0.610230 *  0.824480 *  0.115390 *   1.73396    1.000000    
     46 O1    c    0.889770 *  0.175520 *  0.115390 *   1.73396    1.000000    
     47 O1    c    0.500000 *  0.000000 *  0.000000 *   1.73396    1.000000    
     48 O3    c    0.000000 *  0.000000 *  0.000000 *   1.33043    1.000000    
     49 O2    c    0.151750 *  0.500000 *  0.313330 *   0.87073    1.000000    
     50 O1    c    0.348250 *  0.500000 *  0.313330 *   1.73396    1.000000    
     51 O1    c    0.848250 *  0.500000 *  0.686670 *   1.73396    1.000000    
     52 O3    c    0.651750 *  0.500000 *  0.686670 *   1.33043    1.000000    
     53 O3    c    0.250000 *  0.234950 *  0.285720 *   1.33043    1.000000    
     54 O3    c    0.250000 *  0.765050 *  0.285720 *   1.33043    1.000000    
     55 O3    c    0.750000 *  0.234950 *  0.714280 *   1.33043    1.000000    
     56 O1    c    0.750000 *  0.765050 *  0.714280 *   1.73396    1.000000    
     57 O3    c    0.131410 *  0.268650 *  0.127790 *   1.33043    1.000000    
     58 O1    c    0.368590 *  0.731350 *  0.127790 *   1.73396    1.000000    
     59 O1    c    0.868590 *  0.268650 *  0.872210 *   1.73396    1.000000    
     60 O1    c    0.631410 *  0.731350 *  0.872210 *   1.73396    1.000000    
     61 O1    c    0.868590 *  0.731350 *  0.872210 *   1.73396    1.000000    
     62 O3    c    0.631410 *  0.268650 *  0.872210 *   1.33043    1.000000    
     63 O3    c    0.131410 *  0.731350 *  0.127790 *   1.33043    1.000000    
     64 O1    c    0.368590 *  0.268650 *  0.127790 *   1.73396    1.000000    
     65 O1    c    0.653920 *  0.500000 *  0.058200 *   1.73396    1.000000    
     66 O1    c    0.846080 *  0.500000 *  0.058200 *   1.73396    1.000000    
     67 O1    c    0.346080 *  0.500000 *  0.941800 *   1.73396    1.000000    
     68 O1    c    0.153920 *  0.500000 *  0.941800 *   1.73396    1.000000    
     69 O1    c    0.750000 *  0.231060 *  0.027050 *   1.73396    1.000000    
     70 O1    c    0.750000 *  0.768940 *  0.027050 *   1.73396    1.000000    
     71 O1    c    0.250000 *  0.231060 *  0.972950 *   1.73396    1.000000    
     72 O1    c    0.250000 *  0.768940 *  0.972950 *   1.73396    1.000000    
     73 O3    s    0.106570 *  0.174340 *  0.366200 *  -3.33043    1.000000    
     74 O1    s    0.393430 *  0.825660 *  0.366200 *  -3.73396    1.000000    
     75 O1    s    0.893430 *  0.174340 *  0.633800 *  -3.73396    1.000000    
     76 O1    s    0.606570 *  0.825660 *  0.633800 *  -3.73396    1.000000    
     77 O1    s    0.893430 *  0.825660 *  0.633800 *  -3.73396    1.000000    
     78 O3    s    0.606570 *  0.174340 *  0.633800 *  -3.33043    1.000000    
     79 O3    s    0.106570 *  0.825660 *  0.366200 *  -3.33043    1.000000    
     80 O1    s    0.393430 *  0.174340 *  0.366200 *  -3.73396    1.000000    
     81 O1    s    0.000000 *  0.000000 *  0.500000 *  -3.73396    1.000000    
     82 O1    s    0.500000 *  0.000000 *  0.500000 *  -3.73396    1.000000    
     83 O1    s    0.994520 *  0.000000 *  0.250840 *  -3.73396    1.000000    
     84 O1    s    0.505480 *  0.000000 *  0.250840 *  -3.73396    1.000000    
     85 O3    s    0.005480 *  0.000000 *  0.749160 *  -3.33043    1.000000    
     86 O1    s    0.494520 *  0.000000 *  0.749160 *  -3.73396    1.000000    
     87 O1    s    0.610230 *  0.175520 *  0.115390 *  -3.73396    1.000000    
     88 O1    s    0.889770 *  0.824480 *  0.115390 *  -3.73396    1.000000    
     89 O1    s    0.389770 *  0.175520 *  0.884610 *  -3.73396    1.000000    
     90 O3    s    0.110230 *  0.824480 *  0.884610 *  -3.33043    1.000000    
     91 O1    s    0.389770 *  0.824480 *  0.884610 *  -3.73396    1.000000    
     92 O3    s    0.110230 *  0.175520 *  0.884610 *  -3.33043    1.000000    
     93 O1    s    0.610230 *  0.824480 *  0.115390 *  -3.73396    1.000000    
     94 O1    s    0.889770 *  0.175520 *  0.115390 *  -3.73396    1.000000    
     95 O1    s    0.500000 *  0.000000 *  0.000000 *  -3.73396    1.000000    
     96 O3    s    0.000000 *  0.000000 *  0.000000 *  -3.33043    1.000000    
     97 O2    s    0.151750 *  0.500000 *  0.313330 *  -2.87073    1.000000    
     98 O1    s    0.348250 *  0.500000 *  0.313330 *  -3.73396    1.000000    
     99 O1    s    0.848250 *  0.500000 *  0.686670 *  -3.73396    1.000000    
    100 O3    s    0.651750 *  0.500000 *  0.686670 *  -3.33043    1.000000    
    101 O3    s    0.250000 *  0.234950 *  0.285720 *  -3.33043    1.000000    
    102 O3    s    0.250000 *  0.765050 *  0.285720 *  -3.33043    1.000000    
    103 O3    s    0.750000 *  0.234950 *  0.714280 *  -3.33043    1.000000    
    104 O1    s    0.750000 *  0.765050 *  0.714280 *  -3.73396    1.000000    
    105 O3    s    0.131410 *  0.268650 *  0.127790 *  -3.33043    1.000000    
    106 O1    s    0.368590 *  0.731350 *  0.127790 *  -3.73396    1.000000    
    107 O1    s    0.868590 *  0.268650 *  0.872210 *  -3.73396    1.000000    
    108 O1    s    0.631410 *  0.731350 *  0.872210 *  -3.73396    1.000000    
    109 O1    s    0.868590 *  0.731350 *  0.872210 *  -3.73396    1.000000    
    110 O3    s    0.631410 *  0.268650 *  0.872210 *  -3.33043    1.000000    
    111 O3    s    0.131410 *  0.731350 *  0.127790 *  -3.33043    1.000000    
    112 O1    s    0.368590 *  0.268650 *  0.127790 *  -3.73396    1.000000    
    113 O1    s    0.653920 *  0.500000 *  0.058200 *  -3.73396    1.000000    
    114 O1    s    0.846080 *  0.500000 *  0.058200 *  -3.73396    1.000000    
    115 O1    s    0.346080 *  0.500000 *  0.941800 *  -3.73396    1.000000    
    116 O1    s    0.153920 *  0.500000 *  0.941800 *  -3.73396    1.000000    
    117 O1    s    0.750000 *  0.231060 *  0.027050 *  -3.73396    1.000000    
    118 O1    s    0.750000 *  0.768940 *  0.027050 *  -3.73396    1.000000    
    119 O1    s    0.250000 *  0.231060 *  0.972950 *  -3.73396    1.000000    
    120 O1    s    0.250000 *  0.768940 *  0.972950 *  -3.73396    1.000000    
--------------------------------------------------------------------------------



********************************************************************************
*  General input information                                                   *
********************************************************************************

  Species output for all configurations : 

--------------------------------------------------------------------------------
  Species    Type    Atomic    Atomic    Charge       Radii (Angs)     Library
                     Number     Mass       (e)     Cova   Ionic  VDW   Symbol
--------------------------------------------------------------------------------
    Ge       Core       32      72.61   4.000000   1.170  0.000  1.750 Ge       
    Si       Core       14      28.09   4.000000   1.200  0.000  2.100 Si       
    O1       Core        8      16.00   1.733957   0.730  0.000  1.360 O1       
    O2       Core        8      16.00   0.870733   0.730  0.000  1.360 O2       
    O3       Core        8      16.00   1.330431   0.730  0.000  1.360 O3       
    O1       Shell       8       0.00  -3.733957   0.730  0.000  0.000 O1       
    O2       Shell       8       0.00  -2.870733   0.730  0.000  0.000 O2       
    O3       Shell       8       0.00  -3.330431   0.730  0.000  0.000 O3       
--------------------------------------------------------------------------------


  Lattice summation method               =    Ewald          (3-D)
                                         =    Parry          (2-D)
                                         =    Saunders et al (1-D)
  Accuracy factor for lattice sums       =   12.000


  Analytic derivatives to be used

  Time limit = Infinity

  Maximum range for interatomic potentials =    100000.000000 Angstroms

  General interatomic potentials :

--------------------------------------------------------------------------------
Atom  Types   Potential      Parameter       Value         Units   Cutoffs(Ang)
  1     2                                                            Min /  Max 
--------------------------------------------------------------------------------
Si   c O1   s Buckingham    Buckingham A     1315.2478    eV        0.000 16.000
                            Buckingham rho  0.31775900    Ang       
                            Buckingham C     10.141118    eV*Ang^6  
--------------------------------------------------------------------------------
Si   c O2   s Buckingham    Buckingham A     1315.2478    eV        0.000 16.000
                            Buckingham rho  0.31775900    Ang       
                            Buckingham C     10.141118    eV*Ang^6  
--------------------------------------------------------------------------------
Si   c O3   s Buckingham    Buckingham A     1315.2478    eV        0.000 16.000
                            Buckingham rho  0.31775900    Ang       
                            Buckingham C     10.141118    eV*Ang^6  
--------------------------------------------------------------------------------
Ge   c O1   s Buckingham    Buckingham A     1497.3996    eV        0.000 16.000
                            Buckingham rho  0.32564600    Ang       
                            Buckingham C     16.808599    eV*Ang^6  
--------------------------------------------------------------------------------
Ge   c O2   s Buckingham    Buckingham A     1497.3996    eV        0.000 16.000
                            Buckingham rho  0.32564600    Ang       
                            Buckingham C     16.808599    eV*Ang^6  
--------------------------------------------------------------------------------
Ge   c O3   s Buckingham    Buckingham A     1497.3996    eV        0.000 16.000
                            Buckingham rho  0.32564600    Ang       
                            Buckingham C     16.808599    eV*Ang^6  
--------------------------------------------------------------------------------
O1   s O1   s Buckingham    Buckingham A     22764.000    eV        0.000 16.000
                            Buckingham rho  0.14900000    Ang       
                            Buckingham C     10.937044    eV*Ang^6  
--------------------------------------------------------------------------------
O1   s O2   s Buckingham    Buckingham A     22764.000    eV        0.000 16.000
                            Buckingham rho  0.14900000    Ang       
                            Buckingham C     10.937044    eV*Ang^6  
--------------------------------------------------------------------------------
O1   s O3   s Buckingham    Buckingham A     22764.000    eV        0.000 16.000
                            Buckingham rho  0.14900000    Ang       
                            Buckingham C     10.937044    eV*Ang^6  
--------------------------------------------------------------------------------
O2   s O2   s Buckingham    Buckingham A     22764.000    eV        0.000 16.000
                            Buckingham rho  0.14900000    Ang       
                            Buckingham C     10.937044    eV*Ang^6  
--------------------------------------------------------------------------------
O2   s O3   s Buckingham    Buckingham A     22764.000    eV        0.000 16.000
                            Buckingham rho  0.14900000    Ang       
                            Buckingham C     10.937044    eV*Ang^6  
--------------------------------------------------------------------------------
O3   s O3   s Buckingham    Buckingham A     22764.000    eV        0.000 16.000
                            Buckingham rho  0.14900000    Ang       
                            Buckingham C     10.937044    eV*Ang^6  
--------------------------------------------------------------------------------
O1   c O1   s Spring (c-s)  Spring k 2       180.31577    eV*Ang^-2 0.000  0.800
                            Spring k 4       0.0000000    eV*Ang^-4 
--------------------------------------------------------------------------------
O2   c O2   s Spring (c-s)  Spring k 2       75.969800    eV*Ang^-2 0.000  0.800
                            Spring k 4       0.0000000    eV*Ang^-4 
--------------------------------------------------------------------------------
O3   c O3   s Spring (c-s)  Spring k 2       128.14270    eV*Ang^-2 0.000  0.800
                            Spring k 4       0.0000000    eV*Ang^-4 
--------------------------------------------------------------------------------

  General Three-body potentials :

--------------------------------------------------------------------------------
  Atoms       Potential      Parameter       Value         Units   Cutoffs(Ang)
  1 / 2 / 3                                                          Min /  Max 
--------------------------------------------------------------------------------
Si    core    Harmonic      Three-body cnst  1.2614000    eV*rad^-2 0.000  1.900
O1    shel                  Three-body angl  109.47000    degrees   0.000  1.900
O1    shel                  Three-body k4    0.0000000    eV*rad^-4 0.000  3.500
                            Three-body k3    0.0000000    eV*rad^-3 
--------------------------------------------------------------------------------
Si    core    Harmonic      Three-body cnst  1.2614000    eV*rad^-2 0.000  1.900
O1    shel                  Three-body angl  109.47000    degrees   0.000  1.900
õ(1   shel                  Three-body k4    0.0000000    eV*rad^-4 0.000  3.500
                            Three-body k3    0.0000000    eV*rad^-3 
--------------------------------------------------------------------------------
Si    core    Harmonic      Three-body cnst  1.2614000    eV*rad^-2 0.000  1.900
õ(1   shel                  Three-body angl  109.47000    degrees   0.000  1.900
õ(1   shel                  Three-body k4    0.0000000    eV*rad^-4 0.000  3.500
                            Three-body k3    0.0000000    eV*rad^-3 
--------------------------------------------------------------------------------
Si    core    Harmonic      Three-body cnst  1.2614000    eV*rad^-2 0.000  1.900
O1    shel                  Three-body angl  109.47000    degrees   0.000  1.900
O2    shel                  Three-body k4    0.0000000    eV*rad^-4 0.000  3.500
                            Three-body k3    0.0000000    eV*rad^-3 
--------------------------------------------------------------------------------
Si    core    Harmonic      Three-body cnst  1.2614000    eV*rad^-2 0.000  1.900
O1    shel                  Three-body angl  109.47000    degrees   0.000  1.900
õ(2   shel                  Three-body k4    0.0000000    eV*rad^-4 0.000  3.500
                            Three-body k3    0.0000000    eV*rad^-3 
--------------------------------------------------------------------------------
Si    core    Harmonic      Three-body cnst  1.2614000    eV*rad^-2 0.000  1.900
O2    shel                  Three-body angl  109.47000    degrees   0.000  1.900
õ(1   shel                  Three-body k4    0.0000000    eV*rad^-4 0.000  3.500
                            Three-body k3    0.0000000    eV*rad^-3 
--------------------------------------------------------------------------------
Si    core    Harmonic      Three-body cnst  1.2614000    eV*rad^-2 0.000  1.900
õ(1   shel                  Three-body angl  109.47000    degrees   0.000  1.900
õ(2   shel                  Three-body k4    0.0000000    eV*rad^-4 0.000  3.500
                            Three-body k3    0.0000000    eV*rad^-3 
--------------------------------------------------------------------------------
Si    core    Harmonic      Three-body cnst  1.2614000    eV*rad^-2 0.000  1.900
O2    shel                  Three-body angl  109.47000    degrees   0.000  1.900
O2    shel                  Three-body k4    0.0000000    eV*rad^-4 0.000  3.500
                            Three-body k3    0.0000000    eV*rad^-3 
--------------------------------------------------------------------------------
Si    core    Harmonic      Three-body cnst  1.2614000    eV*rad^-2 0.000  1.900
O2    shel                  Three-body angl  109.47000    degrees   0.000  1.900
õ(2   shel                  Three-body k4    0.0000000    eV*rad^-4 0.000  3.500
                            Three-body k3    0.0000000    eV*rad^-3 
--------------------------------------------------------------------------------
Si    core    Harmonic      Three-body cnst  1.2614000    eV*rad^-2 0.000  1.900
õ(2   shel                  Three-body angl  109.47000    degrees   0.000  1.900
õ(2   shel                  Three-body k4    0.0000000    eV*rad^-4 0.000  3.500
                            Three-body k3    0.0000000    eV*rad^-3 
--------------------------------------------------------------------------------

********************************************************************************
*  Output for configuration   1 : c00531.vasp                                  *
********************************************************************************


  Components of energy : 

--------------------------------------------------------------------------------
  Interatomic potentials     =         896.62096954 eV    
  Three-body potentials      =           0.00000000 eV    
  Monopole - monopole (real) =       -2676.00317478 eV    
  Monopole - monopole (recip)=       -1115.35404472 eV    
  Monopole - monopole (total)=       -3791.35721950 eV    
--------------------------------------------------------------------------------
  Total lattice energy       =       -2894.73624997 eV    
--------------------------------------------------------------------------------
  Total lattice energy       =         -279297.7980 kJ/(mole unit cells)
--------------------------------------------------------------------------------


  Number of variables =      363

  Maximum number of calculations  =          1000
  Maximum Hessian update interval =            10
  Maximum step size               =   0.100000000
  Maximum parameter tolerance     =   0.000010000
  Maximum function  tolerance     =   0.000010000
  Maximum gradient  tolerance     =   0.001000000
  Maximum gradient  component     =   0.010000000

  Symmetry not applied to optimisation

  Cell parameters to be optimised using strains

  Newton-Raphson optimiser to be used

  BFGS hessian update to be used

  Lower half triangular hessian to be used

  Minimiser to switch to RFO
  When gradient norm is less than     0.050000

  Dumpfile to be written after every cycle

  Start of bulk optimisation :

  Cycle:      0 Energy:     -2894.736250  Gnorm:      5.837189  CPU:    0.095
  ** Hessian calculated **
  Cycle:      1 Energy:     -2908.287237  Gnorm:      5.029733  CPU:    0.254
  ** Hessian calculated **
  Cycle:      2 Energy:     -2939.911547  Gnorm:      1.209019  CPU:    0.440
  ** Hessian calculated **
  Cycle:      3 Energy:     -2943.485176  Gnorm:      0.834400  CPU:    0.644
  ** Hessian calculated **
  Cycle:      4 Energy:     -2944.923255  Gnorm:      0.397140  CPU:    0.816
  Cycle:      5 Energy:     -2945.264022  Gnorm:      0.236502  CPU:    0.902
  Cycle:      6 Energy:     -2945.496633  Gnorm:      0.195662  CPU:    1.005
  Cycle:      7 Energy:     -2945.765825  Gnorm:      0.158382  CPU:    1.107
  Cycle:      8 Energy:     -2945.956927  Gnorm:      0.140840  CPU:    1.194
  Cycle:      9 Energy:     -2946.068190  Gnorm:      0.103172  CPU:    1.278
  Cycle:     10 Energy:     -2946.121886  Gnorm:      0.085799  CPU:    1.365
  Cycle:     11 Energy:     -2946.163546  Gnorm:      0.076083  CPU:    1.467
  Cycle:     12 Energy:     -2946.198756  Gnorm:      0.075619  CPU:    1.569
  Cycle:     13 Energy:     -2946.237107  Gnorm:      0.081846  CPU:    1.672
  ** Hessian calculated **
  Cycle:     14 Energy:     -2946.249556  Gnorm:      0.081045  CPU:    1.856
  Cycle:     15 Energy:     -2946.270853  Gnorm:      0.079623  CPU:    1.975
  Cycle:     16 Energy:     -2946.304184  Gnorm:      0.077249  CPU:    2.094
  Cycle:     17 Energy:     -2946.344366  Gnorm:      0.074085  CPU:    2.197
  Cycle:     18 Energy:     -2946.400613  Gnorm:      0.069179  CPU:    2.314
  Cycle:     19 Energy:     -2946.417186  Gnorm:      0.069233  CPU:    2.400
  ** Hessian calculated **
  Cycle:     20 Energy:     -2946.427760  Gnorm:      0.058228  CPU:    2.586
  Cycle:     21 Energy:     -2946.442613  Gnorm:      0.052495  CPU:    2.690
  Cycle:     22 Energy:     -2946.463497  Gnorm:      0.051759  CPU:    2.792
  Cycle:     23 Energy:     -2946.486732  Gnorm:      0.054353  CPU:    2.894
  Cycle:     24 Energy:     -2946.502298  Gnorm:      0.049002  CPU:    2.981
  ** Hessian has required structure
  Cycle:     25 Energy:     -2946.507065  Gnorm:      0.078264  CPU:    3.102
  ** Hessian has required structure
  Cycle:     26 Energy:     -2946.526813  Gnorm:      0.107131  CPU:    3.240
  ** Hessian has required structure
  Cycle:     27 Energy:     -2946.542088  Gnorm:      0.113683  CPU:    3.363
  ** Hessian has required structure
  Cycle:     28 Energy:     -2946.545898  Gnorm:      0.116938  CPU:    3.485
  ** Hessian has required structure
  Cycle:     29 Energy:     -2946.553863  Gnorm:      0.141286  CPU:    3.622
  ** Hessian has wrong structure
  ** Imaginary eigenvectors =   8
  Cycle:     30 Energy:     -2946.591605  Gnorm:      0.141818  CPU:    4.022
  ** Hessian has wrong structure
  ** Imaginary eigenvectors =   7
  ** Hessian has wrong structure
  ** Imaginary eigenvectors =   6
  Cycle:     31 Energy:     -2946.665692  Gnorm:      0.146466  CPU:    4.486
  ** Hessian has wrong structure
  ** Imaginary eigenvectors =   5
  ** Hessian has wrong structure
  ** Imaginary eigenvectors =   4
  Cycle:     32 Energy:     -2946.817312  Gnorm:      0.161513  CPU:    4.858
  ** Hessian has wrong structure
  ** Imaginary eigenvectors =   3
  ** Hessian has wrong structure
  ** Imaginary eigenvectors =   1
  Cycle:     33 Energy:     -2946.888330  Gnorm:      0.177442  CPU:    5.200
  ** Hessian has required structure
  Cycle:     34 Energy:     -2947.235480  Gnorm:      0.169826  CPU:    5.352
  ** Hessian has required structure
  Cycle:     35 Energy:     -2947.549745  Gnorm:      0.113486  CPU:    5.472
  ** Hessian has required structure
  Cycle:     36 Energy:     -2947.641162  Gnorm:      0.089692  CPU:    5.609
  ** Hessian has required structure
  Cycle:     37 Energy:     -2947.722719  Gnorm:      0.065558  CPU:    5.729
  ** Hessian has required structure
  Cycle:     38 Energy:     -2947.796758  Gnorm:      0.085060  CPU:    5.867
  ** Hessian has required structure
  Cycle:     39 Energy:     -2947.841078  Gnorm:      0.097106  CPU:    5.988
  ** Hessian has required structure
  Cycle:     40 Energy:     -2947.874874  Gnorm:      0.068620  CPU:    6.124
  ** Hessian has required structure
  Cycle:     41 Energy:     -2947.897204  Gnorm:      0.049332  CPU:    6.260
  ** Hessian has required structure
  Cycle:     42 Energy:     -2947.909762  Gnorm:      0.050232  CPU:    6.381
  ** Hessian has required structure
  Cycle:     43 Energy:     -2947.928359  Gnorm:      0.026092  CPU:    6.608
  ** Hessian has required structure
  Cycle:     44 Energy:     -2947.934055  Gnorm:      0.014039  CPU:    6.761
  ** Hessian has required structure
  Cycle:     45 Energy:     -2947.935985  Gnorm:      0.007311  CPU:    6.913
  ** Hessian has required structure
  Cycle:     46 Energy:     -2947.936579  Gnorm:      0.003787  CPU:    7.065
  ** Hessian has required structure
  Cycle:     47 Energy:     -2947.936759  Gnorm:      0.001916  CPU:    7.215
  ** Hessian has required structure
  Cycle:     48 Energy:     -2947.936813  Gnorm:      0.000970  CPU:    7.368
  ** Hessian has required structure
  Cycle:     49 Energy:     -2947.936829  Gnorm:      0.000482  CPU:    7.521
  ** Hessian has required structure
  Cycle:     50 Energy:     -2947.936831  Gnorm:      0.000338  CPU:    7.641
  ** Hessian has required structure
  Cycle:     51 Energy:     -2947.936833  Gnorm:      0.000236  CPU:    7.761
  ** Hessian has required structure
  Cycle:     52 Energy:     -2947.936833  Gnorm:      0.000234  CPU:    7.899
  ** Hessian has required structure
  Cycle:     53 Energy:     -2947.936833  Gnorm:      0.000232  CPU:    8.114
  ** Hessian has required structure
  Cycle:     54 Energy:     -2947.936833  Gnorm:      0.000231  CPU:    8.234
  ** Hessian has required structure
  Cycle:     55 Energy:     -2947.936834  Gnorm:      0.000230  CPU:    8.355
  ** Hessian has required structure
  Cycle:     56 Energy:     -2947.936834  Gnorm:      0.000229  CPU:    8.517
  ** Hessian has required structure
  Cycle:     57 Energy:     -2947.936834  Gnorm:      0.000227  CPU:    8.640
  ** Hessian has required structure
  Cycle:     58 Energy:     -2947.936834  Gnorm:      0.000226  CPU:    8.767
  ** Hessian has required structure
  Cycle:     59 Energy:     -2947.936834  Gnorm:      0.000225  CPU:    8.885
  ** Hessian has required structure
  Cycle:     60 Energy:     -2947.936834  Gnorm:      0.000225  CPU:    9.009
  ** Hessian has required structure
  Cycle:     61 Energy:     -2947.936834  Gnorm:      0.000224  CPU:    9.133
  ** Hessian has required structure
  Cycle:     62 Energy:     -2947.936834  Gnorm:      0.000223  CPU:    9.258
  ** Hessian has required structure
  Cycle:     63 Energy:     -2947.936834  Gnorm:      0.000222  CPU:    9.478
  ** Hessian has required structure
  Cycle:     64 Energy:     -2947.936834  Gnorm:      0.000221  CPU:    9.604
  ** Hessian has required structure
  Cycle:     65 Energy:     -2947.936834  Gnorm:      0.000221  CPU:    9.730
  ** Hessian has required structure
  Cycle:     66 Energy:     -2947.936834  Gnorm:      0.000221  CPU:    9.857
  ** Hessian has required structure
  Cycle:     67 Energy:     -2947.936834  Gnorm:      0.000220  CPU:    9.984
  ** Hessian has required structure
  Cycle:     68 Energy:     -2947.936834  Gnorm:      0.000220  CPU:   10.109
  ** Hessian has required structure
  Cycle:     69 Energy:     -2947.936834  Gnorm:      0.000220  CPU:   10.233
  ** Hessian has required structure
  Cycle:     70 Energy:     -2947.936834  Gnorm:      0.000220  CPU:   10.359
  ** Hessian has required structure
  Cycle:     71 Energy:     -2947.936834  Gnorm:      0.000220  CPU:   10.485
  ** Hessian has required structure
  Cycle:     72 Energy:     -2947.936834  Gnorm:      0.000219  CPU:   10.610
  ** Hessian has required structure
  Cycle:     73 Energy:     -2947.936833  Gnorm:      0.000222  CPU:   10.923
  ** Hessian calculated **
  Cycle:     74 Energy:     -2947.936834  Gnorm:      0.000140  CPU:   11.078
  ** Hessian has required structure
  Cycle:     75 Energy:     -2947.936834  Gnorm:      0.000214  CPU:   11.203
  ** Hessian has required structure
  Cycle:     76 Energy:     -2947.936834  Gnorm:      0.000243  CPU:   11.327
  ** Hessian has required structure
  Cycle:     77 Energy:     -2947.936834  Gnorm:      0.000241  CPU:   11.448
  ** Hessian has required structure
  Cycle:     78 Energy:     -2947.936834  Gnorm:      0.000217  CPU:   11.572
  ** Hessian has required structure
  Cycle:     79 Energy:     -2947.936834  Gnorm:      0.000224  CPU:   11.694
  ** Hessian has required structure
  Cycle:     80 Energy:     -2947.936834  Gnorm:      0.000218  CPU:   11.815
  ** Hessian has required structure
  Cycle:     81 Energy:     -2947.936834  Gnorm:      0.000202  CPU:   11.939
  ** Hessian has required structure
  Cycle:     82 Energy:     -2947.936834  Gnorm:      0.000169  CPU:   12.061
  ** Hessian has required structure
  Cycle:     83 Energy:     -2947.936834  Gnorm:      0.000157  CPU:   12.225
  ** Hessian has required structure
  Cycle:     84 Energy:     -2947.936834  Gnorm:      0.000155  CPU:   12.456
  ** Hessian has required structure
  Cycle:     85 Energy:     -2947.936834  Gnorm:      0.000155  CPU:   12.576
  ** Hessian has required structure
  Cycle:     86 Energy:     -2947.936834  Gnorm:      0.000154  CPU:   12.698
  ** Hessian has required structure
  Cycle:     87 Energy:     -2947.936834  Gnorm:      0.000153  CPU:   12.822
  ** Hessian has required structure
  Cycle:     88 Energy:     -2947.936834  Gnorm:      0.000153  CPU:   12.944
  ** Hessian has required structure
  Cycle:     89 Energy:     -2947.936834  Gnorm:      0.000151  CPU:   13.065
  ** Hessian has required structure
  Cycle:     90 Energy:     -2947.936834  Gnorm:      0.000150  CPU:   13.188
  ** Hessian has required structure
  Cycle:     91 Energy:     -2947.936834  Gnorm:      0.000150  CPU:   13.310
  ** Hessian has required structure
  Cycle:     92 Energy:     -2947.936834  Gnorm:      0.000150  CPU:   13.431
  ** Hessian has required structure
  Cycle:     93 Energy:     -2947.936834  Gnorm:      0.000150  CPU:   13.551
  ** Hessian has required structure
  Cycle:     94 Energy:     -2947.936834  Gnorm:      0.000149  CPU:   13.840
  ** Hessian calculated **


  **** Optimisation achieved ****


  Final energy =   -2947.93683391 eV      
  Final Gnorm  =       0.00005002

  Components of energy : 

--------------------------------------------------------------------------------
  Interatomic potentials     =         779.98555747 eV    
  Three-body potentials      =           0.00000000 eV    
  Monopole - monopole (real) =       -1558.34500321 eV    
  Monopole - monopole (recip)=       -2169.57738817 eV    
  Monopole - monopole (total)=       -3727.92239138 eV    
--------------------------------------------------------------------------------
  Total lattice energy       =       -2947.93683391 eV    
--------------------------------------------------------------------------------
  Total lattice energy       =         -284430.8411 kJ/(mole unit cells)
--------------------------------------------------------------------------------

  Final fractional coordinates of atoms :

--------------------------------------------------------------------------------
   No.  Atomic        x           y          z          Radius
        Label       (Frac)      (Frac)     (Frac)       (Angs) 
--------------------------------------------------------------------------------
     1  Ge    c     0.052090    0.000000    0.372270    0.000000
     2  Ge    c     0.438955    0.954099    0.331684    0.000000
     3  Ge    c     0.945205    0.943607    0.621092    0.000000
     4  Ge    c     0.549116    0.997866    0.577161    0.000000
     5  Ge    c     0.537640    0.015814    0.071591    0.000000
     6  Ge    c     0.937402    0.950070    0.130016    0.000000
     7  Ge    c     0.434131    0.951942    0.816597    0.000000
     8  Ge    c     0.341448    0.637781    0.261725    0.000000
     9  Ge    c     0.819598    0.226082    0.694773    0.000000
    10  Ge    c     0.666121    0.703125    0.686678    0.000000
    11  Ge    c     0.847837    0.627679    0.688646    0.000000
    12  Ge    c     0.317261    0.237529    0.253395    0.000000
    13  Ge    c     0.638683    0.325092    0.010480    0.000000
    14  Ge    c     0.843455    0.640348    0.006931    0.000000
    15  Ge    c     0.313655    0.238587    0.936497    0.000000
    16  Ge    c     0.157681    0.723208    0.950532    0.000000
    17  Ge    c     0.338534    0.646067    0.942193    0.000000
    18  Ge    c     0.133089    0.315283    0.945418    0.000000
    19  Ge    c     0.663805    0.729727    0.001975    0.000000
    20  Ge    c     0.816047    0.233649    0.013901    0.000000
    21  Si    c     0.037877    0.007768    0.879155    0.000000
    22  Si    c     0.139031    0.312610    0.252316    0.000000
    23  Si    c     0.642923    0.306822    0.697058    0.000000
    24  Si    c     0.163210    0.706140    0.259308    0.000000
    25  O3    c     0.084455    0.204129    0.343766    0.000000
    26  O1    c     0.404015    0.752884    0.353347    0.000000
    27  O1    c     0.867629    0.079153    0.600043    0.000000
    28  O1    c     0.618006    0.840828    0.585122    0.000000
    29  O1    c     0.913346    0.739478    0.600856    0.000000
    30  O3    c     0.580710    0.198478    0.620086    0.000000
    31  O3    c     0.120429    0.838866    0.355181    0.000000
    32  O1    c     0.362205    0.093219    0.351669    0.000000
    33  O1    c     0.023144    0.993427    0.533264    0.000000
    34  O1    c     0.518361    0.003285    0.416141    0.000000
    35  O1    c     0.970801    0.959838    0.287468    0.000000
    36  O1    c     0.462724    0.970839    0.167258    0.000000
    37  O3    c     0.968473    0.967184    0.786856    0.000000
    38  O1    c     0.466830    0.950758    0.658013    0.000000
    39  O1    c     0.569711    0.221374    0.093413    0.000000
    40  O1    c     0.908469    0.745605    0.099527    0.000000
    41  O1    c     0.359060    0.094382    0.835531    0.000000
    42  O3    c     0.106478    0.868371    0.859178    0.000000
    43  O1    c     0.404671    0.749381    0.852685    0.000000
    44  O3    c     0.068570    0.198297    0.856094    0.000000
    45  O1    c     0.612882    0.873569    0.094562    0.000000
    46  O1    c     0.862647    0.092531    0.113542    0.000000
    47  O1    c     0.510323    0.006238    0.909824    0.000000
    48  O3    c     0.012515    0.000326    0.030500    0.000000
    49  O2    c     0.151076    0.508093    0.304078    0.000000
    50  O1    c     0.337130    0.435370    0.319161    0.000000
    51  O1    c     0.838357    0.424146    0.630752    0.000000
    52  O3    c     0.654111    0.492307    0.633551    0.000000
    53  O3    c     0.220010    0.213420    0.248297    0.000000
    54  O3    c     0.252341    0.739896    0.261222    0.000000
    55  O3    c     0.722078    0.197998    0.693284    0.000000
    56  O1    c     0.761626    0.737898    0.684391    0.000000
    57  O3    c     0.104100    0.323952    0.108387    0.000000
    58  O1    c     0.369843    0.630205    0.100741    0.000000
    59  O1    c     0.848169    0.213346    0.855400    0.000000
    60  O1    c     0.632028    0.738953    0.842124    0.000000
    61  O1    c     0.876041    0.615898    0.849464    0.000000
    62  O3    c     0.616454    0.342608    0.844979    0.000000
    63  O3    c     0.130244    0.733232    0.114136    0.000000
    64  O1    c     0.348546    0.221602    0.093571    0.000000
    65  O1    c     0.649519    0.528372    0.066425    0.000000
    66  O1    c     0.828199    0.441361    0.068400    0.000000
    67  O1    c     0.325888    0.443929    0.881357    0.000000
    68  O1    c     0.139721    0.519692    0.891062    0.000000
    69  O1    c     0.720293    0.200469    0.019444    0.000000
    70  O1    c     0.759746    0.760738    0.003272    0.000000
    71  O1    c     0.218019    0.204605    0.937577    0.000000
    72  O1    c     0.252667    0.758262    0.939027    0.000000
    73  O3    s     0.087278    0.198738    0.337036    0.000000
    74  O1    s     0.401941    0.759167    0.344943    0.000000
    75  O1    s     0.869579    0.080641    0.608910    0.000000
    76  O1    s     0.616352    0.842464    0.592305    0.000000
    77  O1    s     0.910944    0.746528    0.608727    0.000000
    78  O3    s     0.584287    0.193029    0.624187    0.000000
    79  O3    s     0.119259    0.838423    0.346840    0.000000
    80  O1    s     0.364284    0.094381    0.342546    0.000000
    81  O1    s     0.019057    0.989945    0.528367    0.000000
    82  O1    s     0.514283    0.999039    0.420896    0.000000
    83  O1    s     0.974475    0.962156    0.282160    0.000000
    84  O1    s     0.467089    0.973266    0.171039    0.000000
    85  O3    s     0.973894    0.969591    0.784240    0.000000
    86  O1    s     0.470468    0.954331    0.663671    0.000000
    87  O1    s     0.572646    0.214587    0.085608    0.000000
    88  O1    s     0.905643    0.752985    0.094700    0.000000
    89  O1    s     0.361183    0.094908    0.842009    0.000000
    90  O3    s     0.104320    0.869360    0.868491    0.000000
    91  O1    s     0.401704    0.756417    0.856985    0.000000
    92  O3    s     0.070719    0.189815    0.865106    0.000000
    93  O1    s     0.611405    0.872639    0.085678    0.000000
    94  O1    s     0.864723    0.092678    0.106985    0.000000
    95  O1    s     0.506536    0.002794    0.914439    0.000000
    96  O3    s     0.008955    0.997009    0.024218    0.000000
    97  O2    s     0.151049    0.507904    0.294656    0.000000
    98  O1    s     0.336009    0.436983    0.309759    0.000000
    99  O1    s     0.837727    0.425540    0.639916    0.000000
   100  O3    s     0.653943    0.490467    0.643510    0.000000
   101  O3    s     0.219944    0.224800    0.249071    0.000000
   102  O3    s     0.250342    0.728892    0.261047    0.000000
   103  O3    s     0.722201    0.210129    0.693746    0.000000
   104  O1    s     0.760621    0.727378    0.684882    0.000000
   105  O3    s     0.109732    0.322184    0.110162    0.000000
   106  O1    s     0.365389    0.631951    0.100870    0.000000
   107  O1    s     0.843675    0.215784    0.855298    0.000000
   108  O1    s     0.636812    0.735680    0.841994    0.000000
   109  O1    s     0.871511    0.618597    0.849382    0.000000
   110  O3    s     0.620732    0.337826    0.843117    0.000000
   111  O3    s     0.135444    0.729948    0.115513    0.000000
   112  O1    s     0.343781    0.223967    0.093733    0.000000
   113  O1    s     0.649684    0.526610    0.057452    0.000000
   114  O1    s     0.828482    0.441552    0.059782    0.000000
   115  O1    s     0.325950    0.444232    0.890012    0.000000
   116  O1    s     0.140484    0.518291    0.899558    0.000000
   117  O1    s     0.721446    0.212016    0.018340    0.000000
   118  O1    s     0.758541    0.749916    0.003428    0.000000
   119  O1    s     0.218829    0.215572    0.938114    0.000000
   120  O1    s     0.251548    0.747576    0.940141    0.000000
--------------------------------------------------------------------------------

  Final Cartesian lattice vectors (Angstroms) :

       17.614773    0.212271    0.010849
        0.092271    7.806103   -0.037174
        0.009167   -0.050436   10.212748


  Final cell parameters and derivatives :

--------------------------------------------------------------------------------
       a           17.616056 Angstrom     dE/de1(xx)     0.002415 eV/strain
       b            7.806737 Angstrom     dE/de2(yy)     0.002759 eV/strain
       c           10.212877 Angstrom     dE/de3(zz)     0.001732 eV/strain
       alpha       90.555159 Degrees      dE/de4(yz)     0.000115 eV/strain
       beta        89.916700 Degrees      dE/de5(xz)    -0.000150 eV/strain
       gamma       88.632533 Degrees      dE/de6(xy)    -0.000699 eV/strain
--------------------------------------------------------------------------------

  Primitive cell volume =          1404.046842 Angs**3

  Density of cell =      2.758718 g/cm**3

  Non-primitive cell volume =          1404.046842 Angs**3


  Final internal derivatives :

--------------------------------------------------------------------------------
   No.  Atomic          a             b             c           Radius
        Label          (eV)          (eV)          (eV)        (eV/Angs)
--------------------------------------------------------------------------------
      1 Ge    c       0.000000      0.000000      0.000000      0.000000
      2 Ge    c      -0.001513     -0.000085     -0.001110      0.000000
      3 Ge    c       0.003116     -0.000653      0.001457      0.000000
      4 Ge    c       0.000001     -0.000832     -0.000055      0.000000
      5 Ge    c      -0.000629      0.000322     -0.000535      0.000000
      6 Ge    c       0.002032      0.000212     -0.000239      0.000000
      7 Ge    c      -0.000592      0.000022      0.000378      0.000000
      8 Ge    c       0.000351      0.000268     -0.000458      0.000000
      9 Ge    c      -0.003360      0.000116      0.000020      0.000000
     10 Ge    c      -0.000344     -0.000317      0.000145      0.000000
     11 Ge    c       0.000237      0.000088     -0.000489      0.000000
     12 Ge    c       0.000403      0.000231     -0.000197      0.000000
     13 Ge    c      -0.000500     -0.000369     -0.000898      0.000000
     14 Ge    c      -0.000699     -0.000172      0.000428      0.000000
     15 Ge    c       0.000162      0.000253      0.000509      0.000000
     16 Ge    c       0.001414     -0.000750      0.000822      0.000000
     17 Ge    c      -0.000493     -0.000671      0.000368      0.000000
     18 Ge    c       0.000910      0.000117      0.000650      0.000000
     19 Ge    c       0.000219     -0.000141     -0.000559      0.000000
     20 Ge    c      -0.001253      0.000294     -0.000394      0.000000
     21 Si    c      -0.002590      0.000014      0.000334      0.000000
     22 Si    c      -0.000705     -0.000045      0.000105      0.000000
     23 Si    c       0.001189     -0.000142      0.000257      0.000000
     24 Si    c      -0.000492     -0.000055      0.000087      0.000000
     25 O3    c      -0.000309     -0.000412      0.000176      0.000000
     26 O1    c       0.001530      0.000529      0.000096      0.000000
     27 O1    c       0.000068      0.000740     -0.000051      0.000000
     28 O1    c      -0.001272     -0.000206     -0.000499      0.000000
     29 O1    c      -0.002382     -0.000787     -0.000168      0.000000
     30 O3    c       0.000429      0.000741     -0.000660      0.000000
     31 O3    c      -0.000371     -0.000571     -0.000272      0.000000
     32 O1    c       0.000175      0.000665      0.000175      0.000000
     33 O1    c       0.001002     -0.000277     -0.000314      0.000000
     34 O1    c       0.004819      0.000460      0.001421      0.000000
     35 O1    c      -0.001499      0.000220      0.000403      0.000000
     36 O1    c      -0.002390      0.000010      0.002555      0.000000
     37 O3    c      -0.002157      0.000522     -0.001930      0.000000
     38 O1    c      -0.003199      0.000427     -0.000007      0.000000
     39 O1    c      -0.001005     -0.000457      0.001306      0.000000
     40 O1    c      -0.001579     -0.000760      0.001206      0.000000
     41 O1    c      -0.000546      0.001117      0.000614      0.000000
     42 O3    c       0.000314     -0.000600     -0.000772      0.000000
     43 O1    c       0.001316      0.000445     -0.000474      0.000000
     44 O3    c       0.000337     -0.000189     -0.000327      0.000000
     45 O1    c       0.000639     -0.001326      0.000736      0.000000
     46 O1    c       0.000794      0.000758      0.000226      0.000000
     47 O1    c       0.001742      0.000313      0.001010      0.000000
     48 O3    c       0.000987     -0.000272     -0.001053      0.000000
     49 O2    c       0.000069     -0.000038      0.000024      0.000000
     50 O1    c      -0.000326      0.000433      0.000725      0.000000
     51 O1    c       0.000520     -0.000483     -0.000284      0.000000
     52 O3    c      -0.000190      0.000568     -0.000027      0.000000
     53 O3    c       0.000009      0.000077      0.000220      0.000000
     54 O3    c       0.000557     -0.000190      0.000159      0.000000
     55 O3    c      -0.000743      0.000259      0.000814      0.000000
     56 O1    c      -0.000107      0.000699      0.000031      0.000000
     57 O3    c      -0.000215     -0.000133     -0.000131      0.000000
     58 O1    c       0.000524      0.000249      0.000666      0.000000
     59 O1    c       0.000912      0.000255      0.000346      0.000000
     60 O1    c      -0.001038     -0.000479      0.000478      0.000000
     61 O1    c       0.001496      0.002027     -0.001586      0.000000
     62 O3    c      -0.000316     -0.000032      0.001165      0.000000
     63 O3    c      -0.000417      0.000095      0.000159      0.000000
     64 O1    c       0.000025      0.000618     -0.000854      0.000000
     65 O1    c      -0.000482     -0.000010      0.001465      0.000000
     66 O1    c       0.000439     -0.002070      0.000317      0.000000
     67 O1    c       0.000174      0.000409     -0.000558      0.000000
     68 O1    c      -0.000357      0.000660     -0.000331      0.000000
     69 O1    c      -0.001115     -0.000684     -0.000712      0.000000
     70 O1    c       0.003074      0.000110     -0.000556      0.000000
     71 O1    c      -0.002214      0.000046     -0.000465      0.000000
     72 O1    c       0.000385      0.000101     -0.000596      0.000000
     73 O3    s       0.000638      0.000120     -0.000000      0.000000
     74 O1    s      -0.000887     -0.000162      0.000521      0.000000
     75 O1    s       0.000971     -0.000853     -0.000308      0.000000
     76 O1    s      -0.001840      0.000635     -0.000114      0.000000
     77 O1    s       0.002390      0.000483     -0.000884      0.000000
     78 O3    s      -0.000647     -0.001373     -0.001034      0.000000
     79 O3    s       0.000518      0.000184     -0.000016      0.000000
     80 O1    s      -0.000273     -0.000359     -0.000263      0.000000
     81 O1    s       0.000361     -0.000237      0.000827      0.000000
     82 O1    s      -0.003111     -0.001283     -0.001447      0.000000
     83 O1    s       0.000438      0.000406     -0.001057      0.000000
     84 O1    s       0.001867      0.000794     -0.002571      0.000000
     85 O3    s       0.001364      0.000167      0.001514      0.000000
     86 O1    s       0.002747      0.000489     -0.001295      0.000000
     87 O1    s      -0.000275      0.000352      0.000109      0.000000
     88 O1    s       0.000745      0.000635      0.000493      0.000000
     89 O1    s      -0.000648     -0.000371      0.000158      0.000000
     90 O3    s       0.000939     -0.000488     -0.000177      0.000000
     91 O1    s      -0.001465     -0.000281      0.000629      0.000000
     92 O3    s      -0.000175      0.000539     -0.000047      0.000000
     93 O1    s      -0.001835      0.001513      0.000666      0.000000
     94 O1    s       0.000889     -0.000469      0.000003      0.000000
     95 O1    s      -0.001781     -0.001198     -0.001155      0.000000
     96 O3    s      -0.001804     -0.000632      0.001069      0.000000
     97 O2    s      -0.000331      0.000160     -0.000417      0.000000
     98 O1    s       0.001044     -0.000378     -0.001135      0.000000
     99 O1    s       0.001520      0.000110     -0.000503      0.000000
    100 O3    s       0.000315      0.000178      0.000273      0.000000
    101 O3    s       0.000277     -0.000284      0.000007      0.000000
    102 O3    s       0.000761      0.000323     -0.000019      0.000000
    103 O3    s      -0.000575      0.000538     -0.000026      0.000000
    104 O1    s       0.002230      0.000023     -0.001085      0.000000
    105 O3    s       0.000089      0.000474     -0.000419      0.000000
    106 O1    s      -0.000100     -0.000055     -0.000489      0.000000
    107 O1    s       0.001361     -0.000242     -0.000041      0.000000
    108 O1    s      -0.000800     -0.000142     -0.000354      0.000000
    109 O1    s      -0.000390      0.001870      0.001106      0.000000
    110 O3    s      -0.001396     -0.001348     -0.000652      0.000000
    111 O3    s      -0.000611     -0.000134     -0.000679      0.000000
    112 O1    s       0.001188     -0.000421      0.000491      0.000000
    113 O1    s       0.000627     -0.000156     -0.000636      0.000000
    114 O1    s       0.000772      0.000345     -0.000212      0.000000
    115 O1    s      -0.000110     -0.000445      0.000812      0.000000
    116 O1    s      -0.000077     -0.000329      0.000924      0.000000
    117 O1    s      -0.001116      0.000026      0.000892      0.000000
    118 O1    s       0.000028      0.000011      0.001068      0.000000
    119 O1    s       0.000126      0.000042      0.000348      0.000000
    120 O1    s      -0.000200     -0.000445      0.000303      0.000000
--------------------------------------------------------------------------------
  Maximum abs         0.004819      0.002070      0.002571      0.000000
--------------------------------------------------------------------------------


  Born effective charge tensors : 

-------------------------------------------------------------------------------
  Atom             x           y             z
-------------------------------------------------------------------------------
    1 Ge    x       4.0408      0.2194     -0.4174
            y      -0.0999      3.9401     -0.0890
            z      -0.2493     -0.0160      4.4671
-------------------------------------------------------------------------------
    2 Ge    x       4.2629      0.2947     -0.0580
            y      -0.0889      3.8975     -0.0417
            z       0.8422      0.1555      4.1773
-------------------------------------------------------------------------------
    3 Ge    x       4.1978      0.2898      0.0734
            y      -0.1016      3.9052      0.0134
            z      -0.8655     -0.1918      4.1762
-------------------------------------------------------------------------------
    4 Ge    x       4.2160      0.1666      0.4638
            y      -0.1676      3.9084      0.1267
            z       0.2487     -0.0478      4.3760
-------------------------------------------------------------------------------
    5 Ge    x       4.3313      0.2267      0.0079
            y      -0.1138      3.9195     -0.0241
            z      -0.6663     -0.1872      3.7125
-------------------------------------------------------------------------------
    6 Ge    x       4.2104      0.1747      0.4410
            y      -0.1583      3.9445      0.0832
            z       0.3694      0.0216      3.9116
-------------------------------------------------------------------------------
    7 Ge    x       4.3390      0.2137     -0.4137
            y      -0.1205      3.9251     -0.0939
            z      -0.3531     -0.0022      3.9635
-------------------------------------------------------------------------------
    8 Ge    x       3.9187      0.1597      0.2419
            y       0.4949      4.1647      0.0814
            z       0.1101      0.1508      3.5672
-------------------------------------------------------------------------------
    9 Ge    x       3.9629     -0.3040     -0.2837
            y      -0.3128      4.1374      0.0291
            z      -0.0308      0.1077      3.5810
-------------------------------------------------------------------------------
   10 Ge    x       3.9980     -0.2405      0.2687
            y      -0.3011      4.1627     -0.1294
            z       0.0066     -0.2106      3.5673
-------------------------------------------------------------------------------
   11 Ge    x       3.9747      0.1263     -0.1873
            y       0.4785      4.2218     -0.0946
            z      -0.0660     -0.1720      3.5631
-------------------------------------------------------------------------------
   12 Ge    x       3.9030     -0.3045      0.3176
            y      -0.3001      4.1477     -0.0547
            z       0.0549     -0.1325      3.5719
-------------------------------------------------------------------------------
   13 Ge    x       4.0064      0.0633     -0.3236
            y       0.4328      4.2009     -0.0688
            z      -0.1549     -0.1858      3.3934
-------------------------------------------------------------------------------
   14 Ge    x       4.0311      0.0684      0.3125
            y       0.4511      4.1792      0.0976
            z       0.1351      0.1853      3.5049
-------------------------------------------------------------------------------
   15 Ge    x       4.0515     -0.2277     -0.3695
            y      -0.2398      4.1827      0.1104
            z      -0.0667      0.1736      3.5477
-------------------------------------------------------------------------------
   16 Ge    x       3.9905     -0.1882      0.3194
            y      -0.1865      4.1625     -0.0780
            z       0.0153     -0.1278      3.3683
-------------------------------------------------------------------------------
   17 Ge    x       4.0574      0.0688     -0.3179
            y       0.4367      4.1632     -0.1044
            z      -0.1634     -0.1776      3.5415
-------------------------------------------------------------------------------
   18 Ge    x       3.8525      0.0359      0.2901
            y       0.3842      4.2606      0.0790
            z       0.0411      0.1364      3.3306
-------------------------------------------------------------------------------
   19 Ge    x       4.0986     -0.2633     -0.3243
            y      -0.2801      4.1738      0.0695
            z      -0.0322      0.1570      3.4664
-------------------------------------------------------------------------------
   20 Ge    x       4.0805     -0.2375      0.3306
            y      -0.2764      4.1822     -0.1128
            z       0.0569     -0.1718      3.5315
-------------------------------------------------------------------------------
   21 Si    x       3.8860      0.1872     -0.0001
            y      -0.1117      3.6972     -0.0168
            z       0.6889      0.1486      3.4466
-------------------------------------------------------------------------------
   22 Si    x       3.5683      0.0523     -0.1947
            y       0.4055      3.6921     -0.2607
            z      -0.0292     -0.3287      3.2853
-------------------------------------------------------------------------------
   23 Si    x       3.6957      0.0634      0.1829
            y       0.4389      3.9225      0.0927
            z       0.0913      0.2534      3.3190
-------------------------------------------------------------------------------
   24 Si    x       3.6284     -0.2527     -0.2071
            y      -0.3060      3.6997      0.2105
            z       0.0430      0.2525      3.2900
-------------------------------------------------------------------------------
   25 O3    x      -1.7933     -0.8268      0.5454
            y      -0.7686     -2.4248      0.5929
            z       0.4834      0.6035     -1.6350
-------------------------------------------------------------------------------
   26 O1    x      -1.9986     -0.8854     -0.3545
            y      -0.8579     -2.5351     -0.2965
            z      -0.4401     -0.3307     -1.5876
-------------------------------------------------------------------------------
   27 O1    x      -2.2762      0.9060      0.2833
            y       0.9782     -2.2560     -0.3520
            z       0.3639     -0.3449     -1.6134
-------------------------------------------------------------------------------
   28 O1    x      -2.1203      0.9094     -0.4987
            y       0.9626     -2.4023      0.4930
            z      -0.4656      0.5312     -1.6778
-------------------------------------------------------------------------------
   29 O1    x      -1.9738     -0.8833      0.3239
            y      -0.8388     -2.5499      0.2754
            z       0.4232      0.3106     -1.5916
-------------------------------------------------------------------------------
   30 O3    x      -1.9519     -0.8675     -0.5523
            y      -0.8050     -2.3222     -0.5561
            z      -0.4929     -0.5596     -1.5708
-------------------------------------------------------------------------------
   31 O3    x      -1.8879      0.8400      0.4986
            y       0.8723     -2.3096     -0.5545
            z       0.4698     -0.5930     -1.6362
-------------------------------------------------------------------------------
   32 O1    x      -2.2106      0.8770     -0.3233
            y       0.9577     -2.2818      0.3944
            z      -0.3872      0.3797     -1.6127
-------------------------------------------------------------------------------
   33 O1    x      -2.0963     -0.2574      0.9433
            y      -0.1100     -1.2969      0.1400
            z       1.2372      0.2840     -3.1533
-------------------------------------------------------------------------------
   34 O1    x      -2.1712     -0.2362     -0.9394
            y      -0.1020     -1.2844     -0.1001
            z      -1.1847     -0.1820     -3.0222
-------------------------------------------------------------------------------
   35 O1    x      -2.1979     -0.2161     -0.8267
            y      -0.1001     -1.3062     -0.1204
            z      -0.8383     -0.1538     -2.7023
-------------------------------------------------------------------------------
   36 O1    x      -2.1395     -0.2394      0.8353
            y      -0.1025     -1.3485      0.1811
            z       0.7903      0.2366     -2.6247
-------------------------------------------------------------------------------
   37 O3    x      -2.0327     -0.2391     -0.8305
            y      -0.1058     -1.2796     -0.1762
            z      -0.8060     -0.2388     -2.4513
-------------------------------------------------------------------------------
   38 O1    x      -2.2106     -0.2352      0.7980
            y      -0.1332     -1.3068      0.1190
            z       0.8219      0.1396     -2.6771
-------------------------------------------------------------------------------
   39 O1    x      -2.1127     -0.8715      0.3689
            y      -0.8137     -2.4731      0.2465
            z       0.4225      0.2991     -1.4632
-------------------------------------------------------------------------------
   40 O1    x      -2.0386     -0.8484     -0.5617
            y      -0.7838     -2.5087     -0.5491
            z      -0.4766     -0.4996     -1.5621
-------------------------------------------------------------------------------
   41 O1    x      -2.2355      0.8999      0.5558
            y       0.9114     -2.2738     -0.5226
            z       0.4783     -0.5153     -1.6235
-------------------------------------------------------------------------------
   42 O3    x      -2.1164      0.8746     -0.2609
            y       0.9118     -2.1847      0.2799
            z      -0.3167      0.2775     -1.3912
-------------------------------------------------------------------------------
   43 O1    x      -2.0565     -0.8437      0.5889
            y      -0.7853     -2.4903      0.5837
            z       0.5176      0.5441     -1.5983
-------------------------------------------------------------------------------
   44 O3    x      -1.8375     -0.8064     -0.2711
            y      -0.7579     -2.4693     -0.2026
            z      -0.3204     -0.2342     -1.3668
-------------------------------------------------------------------------------
   45 O1    x      -2.2766      0.9068      0.3131
            y       0.9610     -2.2800     -0.3318
            z       0.3710     -0.3410     -1.4955
-------------------------------------------------------------------------------
   46 O1    x      -2.2668      0.9118     -0.5410
            y       0.9275     -2.2662      0.5124
            z      -0.4615      0.4994     -1.6043
-------------------------------------------------------------------------------
   47 O1    x      -2.1643     -0.2361     -0.7194
            y      -0.1372     -1.3644     -0.1712
            z      -0.4934     -0.1488     -2.3087
-------------------------------------------------------------------------------
   48 O3    x      -1.9107     -0.1797      0.6383
            y      -0.0936     -1.3008      0.1523
            z       0.4284      0.1331     -2.2424
-------------------------------------------------------------------------------
   49 O2    x      -1.1718     -0.1213      0.0488
            y      -0.1996     -2.4847     -0.0213
            z       0.0078     -0.0216     -1.1609
-------------------------------------------------------------------------------
   50 O1    x      -1.3721     -0.1563     -0.1134
            y      -0.2634     -3.1301     -0.0237
            z      -0.0690     -0.0020     -1.3727
-------------------------------------------------------------------------------
   51 O1    x      -1.3773     -0.2169      0.0918
            y      -0.3213     -3.1300      0.0318
            z       0.0512      0.0127     -1.3855
-------------------------------------------------------------------------------
   52 O3    x      -1.2792     -0.1729     -0.0392
            y      -0.2608     -2.9981      0.1676
            z       0.0058      0.1757     -1.3223
-------------------------------------------------------------------------------
   53 O3    x      -2.8215      0.3481      0.0012
            y       0.2828     -1.5332      0.0061
            z       0.0058      0.0387     -1.1360
-------------------------------------------------------------------------------
   54 O3    x      -2.9307      0.1269     -0.0109
            y       0.0340     -1.4606     -0.0085
            z      -0.0421     -0.0406     -1.1380
-------------------------------------------------------------------------------
   55 O3    x      -2.8453      0.3549      0.0072
            y       0.2843     -1.5291     -0.0163
            z      -0.0208     -0.0480     -1.1502
-------------------------------------------------------------------------------
   56 O1    x      -3.0758      0.2382     -0.0203
            y       0.1387     -1.5938      0.0187
            z       0.0093      0.0523     -1.2141
-------------------------------------------------------------------------------
   57 O3    x      -1.3618     -0.0355     -0.2244
            y      -0.1137     -1.3687     -0.0365
            z      -0.1771      0.0048     -2.5567
-------------------------------------------------------------------------------
   58 O1    x      -1.4840     -0.0245      0.0599
            y      -0.0917     -1.4216      0.0399
            z       0.0074      0.0273     -2.7516
-------------------------------------------------------------------------------
   59 O1    x      -1.5149      0.1141     -0.0306
            y       0.1276     -1.4152     -0.0060
            z      -0.0117     -0.0114     -2.7255
-------------------------------------------------------------------------------
   60 O1    x      -1.4913      0.1226      0.0421
            y       0.1363     -1.4602     -0.1014
            z       0.0405     -0.1005     -2.6879
-------------------------------------------------------------------------------
   61 O1    x      -1.4651     -0.0240     -0.0112
            y      -0.0893     -1.4338     -0.0329
            z       0.0016     -0.0338     -2.7295
-------------------------------------------------------------------------------
   62 O3    x      -1.3499     -0.0021      0.1389
            y      -0.0748     -1.3743     -0.0827
            z       0.1224     -0.0915     -2.6081
-------------------------------------------------------------------------------
   63 O3    x      -1.3689      0.1198     -0.1827
            y       0.1338     -1.3902      0.1418
            z      -0.1515      0.1112     -2.5714
-------------------------------------------------------------------------------
   64 O1    x      -1.5371      0.1135      0.0347
            y       0.1312     -1.4166     -0.0083
            z       0.0028      0.0080     -2.7003
-------------------------------------------------------------------------------
   65 O1    x      -1.3835     -0.1848      0.0930
            y      -0.2809     -3.1525      0.0179
            z       0.0321     -0.0215     -1.3714
-------------------------------------------------------------------------------
   66 O1    x      -1.4054     -0.2265     -0.0682
            y      -0.3030     -3.1698      0.0581
            z      -0.0228      0.0381     -1.3420
-------------------------------------------------------------------------------
   67 O1    x      -1.3848     -0.1940      0.0858
            y      -0.2787     -3.1807     -0.0346
            z       0.0357     -0.0203     -1.3499
-------------------------------------------------------------------------------
   68 O1    x      -1.3534     -0.1682     -0.1146
            y      -0.2885     -3.2668      0.0005
            z      -0.0448      0.0083     -1.3602
-------------------------------------------------------------------------------
   69 O1    x      -3.0385      0.3097     -0.0305
            y       0.2052     -1.6112      0.0356
            z      -0.0388      0.0758     -1.2088
-------------------------------------------------------------------------------
   70 O1    x      -3.0544      0.3005     -0.0400
            y       0.1985     -1.6123     -0.0053
            z      -0.0642     -0.0328     -1.1900
-------------------------------------------------------------------------------
   71 O1    x      -3.0770      0.2635      0.0547
            y       0.1514     -1.5629     -0.0381
            z       0.0626     -0.0658     -1.2053
-------------------------------------------------------------------------------
   72 O1    x      -3.0821      0.2691      0.0625
            y       0.1974     -1.5792      0.0353
            z       0.1078      0.0499     -1.2094
-------------------------------------------------------------------------------




  Elastic Constant Matrix: (Units=GPa)

-------------------------------------------------------------------------------
  Indices      1         2         3         4         5         6    
-------------------------------------------------------------------------------
       1     29.1646   11.6448    8.6846   -0.1477    0.0936    7.7227
       2     11.6448   32.5957    6.6622   -0.3915   -0.2964    7.4918
       3      8.6846    6.6622   13.8510   -0.3135   -0.0168    1.8870
       4     -0.1477   -0.3915   -0.3135    8.4508    1.7715   -0.3348
       5      0.0936   -0.2964   -0.0168    1.7715   16.7162   -0.7299
       6      7.7227    7.4918    1.8870   -0.3348   -0.7299   19.7336
-------------------------------------------------------------------------------


  Elastic Compliance Matrix: (Units=1/GPa)

-------------------------------------------------------------------------------
  Indices      1         2         3         4         5         6    
-------------------------------------------------------------------------------
       1    0.048789 -0.009447 -0.024263 -0.000809 -0.000957 -0.013236
       2   -0.009447  0.038644 -0.011301  0.000770  0.000214 -0.009872
       3   -0.024263 -0.011301  0.092224  0.002680 -0.000037  0.005011
       4   -0.000809  0.000770  0.002680  0.121182 -0.012762  0.001351
       5   -0.000957  0.000214 -0.000037 -0.012762  0.061286  0.002347
       6   -0.013236 -0.009872  0.005011  0.001351  0.002347  0.059233
-------------------------------------------------------------------------------

  Mechanical properties :

-------------------------------------------------------------------------------
  Convention :                    Reuss         Voigt         Hill
-------------------------------------------------------------------------------
  Bulk  Modulus (GPa)     =      11.15650      14.39936      12.77793
  Shear Modulus (GPa)     =       9.23773      12.22144      10.72958
-------------------------------------------------------------------------------
  Velocity S-wave (km/s)  =       1.82991       2.10478       1.97214
  Velocity P-wave (km/s)  =       2.91699       3.33563       3.13331
-------------------------------------------------------------------------------
  Compressibility (1/GPa) =    0.08963383
-------------------------------------------------------------------------------
  Stress axis :                     x             y             z
-------------------------------------------------------------------------------
  Youngs Moduli (GPa)     =      20.49650      25.87727      10.84319
-------------------------------------------------------------------------------
  Poissons Ratio (x)      =                     0.24446       0.26309
  Poissons Ratio (y)      =       0.19363                     0.12254
  Poissons Ratio (z)      =       0.49731       0.29245
-------------------------------------------------------------------------------


  Piezoelectric Strain Matrix: (Units=C/m**2)

-------------------------------------------------------------------------------
  Indices      1         2         3         4         5         6    
-------------------------------------------------------------------------------
       x    -0.46155  -0.30282  -0.38069  -0.01859  -0.15955   0.32537
       y     0.82125   0.65861   0.46770   0.14396   0.37493  -0.18251
       z    -0.07683   0.01478   0.00448   0.27353   0.21836   0.14772
-------------------------------------------------------------------------------


  Piezoelectric Stress Matrix: (Units=10**-11 C/N)

-------------------------------------------------------------------------------
  Indices      1         2         3         4         5         6    
-------------------------------------------------------------------------------
       x    -1.45597  -0.63004  -1.89012  -0.06568  -0.83860   2.60641
       y     2.44387   1.44003   1.52209   1.35105   2.00497  -2.47644
       z    -0.63823   0.00456   0.35751   3.06450   1.03150   1.05259
-------------------------------------------------------------------------------


  Static dielectric constant tensor : 

-------------------------------------------------------------------------------
              x         y         z
-------------------------------------------------------------------------------
       x     5.33715  -0.01750  -0.00991
       y    -0.01750   6.25280  -0.05129
       z    -0.00991  -0.05129   4.25933
--------------------------------------------------------------------------------

  High frequency dielectric constant tensor : 

-------------------------------------------------------------------------------
              x         y         z
-------------------------------------------------------------------------------
       x     1.55252   0.00293   0.00099
       y     0.00293   1.55865  -0.00031
       z     0.00099  -0.00031   1.51169
-------------------------------------------------------------------------------

  Static refractive indices : 

-------------------------------------------------------------------------------
    1 =    2.06347      2 =    2.31018      3 =    2.50089
-------------------------------------------------------------------------------

  High frequency refractive indices : 

-------------------------------------------------------------------------------
    1 =    1.22950      2 =    1.24554      3 =    1.24893
-------------------------------------------------------------------------------


  Time to end of optimisation =      14.1583 seconds


  Peak dynamic memory used =       5.01 MB 


  Timing analysis for GULP :

--------------------------------------------------------------------------------
  Task / Subroutine                                          Time (Seconds)
--------------------------------------------------------------------------------
  Calculation of reciprocal space energy and derivatives          0.8666
  Calculation of real space energy and derivatives                9.2892
  Calculation of three-body energy and derivatives                0.1323
  Calculation and manipulation of Hessian matrix                  4.1915
  Calculation of matrix inversion                                 0.0540
  Global summation overhead                                       0.0002
--------------------------------------------------------------------------------
  Total CPU time                                                 14.1584
--------------------------------------------------------------------------------


  Dump file written as c00531.vasp.grs
  CIF file written as c00531.vasp.cif


  Job Finished at 13:30.47 31st October    2025                               

