********************************************************************************
*                       GENERAL UTILITY LATTICE PROGRAM                        *
*                                 Julian Gale                                  *
*                       Curtin Institute for Computation                       *
*                    School of Molecular and Life Sciences                     *
*                    Curtin University, Western Australia                      *
********************************************************************************
* Version = 6.1.2 * Last modified =   3rd November 2022                        *
********************************************************************************
*  optimise     - perform optimisation run                                     *
*  conp         - constant pressure calculation                                *
*  property     - calculate properties for final geometry                      *
********************************************************************************

  Job Started  at 13:41.20 31st October    2025                               

  Number of CPUs =     1


  Total number of configurations input =      1

********************************************************************************
*  Input for Configuration =   1 : c00595.vasp                                 *
********************************************************************************

  Formula = Ge20Si4O48                                                  

  Number of irreducible atoms/shells =     120


  Total number atoms/shells =     120

  Dimensionality = 3               :  Bulk   



  Cartesian lattice vectors (Angstroms) :

       17.182800    0.000000    0.000000
        0.000000    7.513760    0.000000
        0.000000    0.000000   10.447700

  Cell parameters (Angstroms/Degrees):

  a =      17.1828    alpha =  90.0000
  b =       7.5138    beta  =  90.0000
  c =      10.4477    gamma =  90.0000

  Initial cell volume =        1348.875752 Angs**3

  Temperature of configuration =   0.00     K 

  Pressure of configuration =         0.000 GPa 

  Fractional coordinates of asymmetric unit :

--------------------------------------------------------------------------------
   No.  Atomic       x           y          z         Charge      Occupancy
        Label      (Frac)      (Frac)     (Frac)        (e)         (Frac)  
--------------------------------------------------------------------------------
      1 Ge    c    0.052090    0.000000    0.372270     4.00000    1.000000    
      2 Ge    c    0.447910 *  0.000000 *  0.372270 *   4.00000    1.000000    
      3 Ge    c    0.947910 *  0.000000 *  0.627730 *   4.00000    1.000000    
      4 Ge    c    0.552090 *  0.000000 *  0.627730 *   4.00000    1.000000    
      5 Ge    c    0.556730 *  0.000000 *  0.122130 *   4.00000    1.000000    
      6 Ge    c    0.443270 *  0.000000 *  0.877870 *   4.00000    1.000000    
      7 Ge    c    0.160190 *  0.293910 *  0.273440 *   4.00000    1.000000    
      8 Ge    c    0.339810 *  0.706090 *  0.273440 *   4.00000    1.000000    
      9 Ge    c    0.839810 *  0.293910 *  0.726560 *   4.00000    1.000000    
     10 Ge    c    0.660190 *  0.706090 *  0.726560 *   4.00000    1.000000    
     11 Ge    c    0.839810 *  0.706090 *  0.726560 *   4.00000    1.000000    
     12 Ge    c    0.660190 *  0.293910 *  0.726560 *   4.00000    1.000000    
     13 Ge    c    0.660660 *  0.294090 *  0.017440 *   4.00000    1.000000    
     14 Ge    c    0.839340 *  0.705910 *  0.017440 *   4.00000    1.000000    
     15 Ge    c    0.339340 *  0.294090 *  0.982560 *   4.00000    1.000000    
     16 Ge    c    0.160660 *  0.705910 *  0.982560 *   4.00000    1.000000    
     17 Ge    c    0.339340 *  0.705910 *  0.982560 *   4.00000    1.000000    
     18 Ge    c    0.160660 *  0.294090 *  0.982560 *   4.00000    1.000000    
     19 Ge    c    0.660660 *  0.705910 *  0.017440 *   4.00000    1.000000    
     20 Ge    c    0.839340 *  0.294090 *  0.017440 *   4.00000    1.000000    
     21 Si    c    0.943270 *  0.000000 *  0.122130 *   4.00000    1.000000    
     22 Si    c    0.056730 *  0.000000 *  0.877870 *   4.00000    1.000000    
     23 Si    c    0.160190 *  0.706090 *  0.273440 *   4.00000    1.000000    
     24 Si    c    0.339810 *  0.293910 *  0.273440 *   4.00000    1.000000    
     25 O1    c    0.106570 *  0.174340 *  0.366200 *   1.73396    1.000000    
     26 O1    c    0.393430 *  0.825660 *  0.366200 *   1.73396    1.000000    
     27 O1    c    0.893430 *  0.174340 *  0.633800 *   1.73396    1.000000    
     28 O1    c    0.606570 *  0.825660 *  0.633800 *   1.73396    1.000000    
     29 O1    c    0.893430 *  0.825660 *  0.633800 *   1.73396    1.000000    
     30 O1    c    0.606570 *  0.174340 *  0.633800 *   1.73396    1.000000    
     31 O3    c    0.106570 *  0.825660 *  0.366200 *   1.33043    1.000000    
     32 O3    c    0.393430 *  0.174340 *  0.366200 *   1.33043    1.000000    
     33 O1    c    0.000000 *  0.000000 *  0.500000 *   1.73396    1.000000    
     34 O1    c    0.500000 *  0.000000 *  0.500000 *   1.73396    1.000000    
     35 O3    c    0.994520 *  0.000000 *  0.250840 *   1.33043    1.000000    
     36 O1    c    0.505480 *  0.000000 *  0.250840 *   1.73396    1.000000    
     37 O3    c    0.005480 *  0.000000 *  0.749160 *   1.33043    1.000000    
     38 O1    c    0.494520 *  0.000000 *  0.749160 *   1.73396    1.000000    
     39 O1    c    0.610230 *  0.175520 *  0.115390 *   1.73396    1.000000    
     40 O3    c    0.889770 *  0.824480 *  0.115390 *   1.33043    1.000000    
     41 O1    c    0.389770 *  0.175520 *  0.884610 *   1.73396    1.000000    
     42 O3    c    0.110230 *  0.824480 *  0.884610 *   1.33043    1.000000    
     43 O1    c    0.389770 *  0.824480 *  0.884610 *   1.73396    1.000000    
     44 O3    c    0.110230 *  0.175520 *  0.884610 *   1.33043    1.000000    
     45 O1    c    0.610230 *  0.824480 *  0.115390 *   1.73396    1.000000    
     46 O3    c    0.889770 *  0.175520 *  0.115390 *   1.33043    1.000000    
     47 O1    c    0.500000 *  0.000000 *  0.000000 *   1.73396    1.000000    
     48 O2    c    0.000000 *  0.000000 *  0.000000 *   0.87073    1.000000    
     49 O3    c    0.151750 *  0.500000 *  0.313330 *   1.33043    1.000000    
     50 O3    c    0.348250 *  0.500000 *  0.313330 *   1.33043    1.000000    
     51 O1    c    0.848250 *  0.500000 *  0.686670 *   1.73396    1.000000    
     52 O1    c    0.651750 *  0.500000 *  0.686670 *   1.73396    1.000000    
     53 O3    c    0.250000 *  0.234950 *  0.285720 *   1.33043    1.000000    
     54 O3    c    0.250000 *  0.765050 *  0.285720 *   1.33043    1.000000    
     55 O1    c    0.750000 *  0.234950 *  0.714280 *   1.73396    1.000000    
     56 O1    c    0.750000 *  0.765050 *  0.714280 *   1.73396    1.000000    
     57 O1    c    0.131410 *  0.268650 *  0.127790 *   1.73396    1.000000    
     58 O1    c    0.368590 *  0.731350 *  0.127790 *   1.73396    1.000000    
     59 O1    c    0.868590 *  0.268650 *  0.872210 *   1.73396    1.000000    
     60 O1    c    0.631410 *  0.731350 *  0.872210 *   1.73396    1.000000    
     61 O1    c    0.868590 *  0.731350 *  0.872210 *   1.73396    1.000000    
     62 O1    c    0.631410 *  0.268650 *  0.872210 *   1.73396    1.000000    
     63 O3    c    0.131410 *  0.731350 *  0.127790 *   1.33043    1.000000    
     64 O3    c    0.368590 *  0.268650 *  0.127790 *   1.33043    1.000000    
     65 O1    c    0.653920 *  0.500000 *  0.058200 *   1.73396    1.000000    
     66 O1    c    0.846080 *  0.500000 *  0.058200 *   1.73396    1.000000    
     67 O1    c    0.346080 *  0.500000 *  0.941800 *   1.73396    1.000000    
     68 O1    c    0.153920 *  0.500000 *  0.941800 *   1.73396    1.000000    
     69 O1    c    0.750000 *  0.231060 *  0.027050 *   1.73396    1.000000    
     70 O1    c    0.750000 *  0.768940 *  0.027050 *   1.73396    1.000000    
     71 O1    c    0.250000 *  0.231060 *  0.972950 *   1.73396    1.000000    
     72 O1    c    0.250000 *  0.768940 *  0.972950 *   1.73396    1.000000    
     73 O1    s    0.106570 *  0.174340 *  0.366200 *  -3.73396    1.000000    
     74 O1    s    0.393430 *  0.825660 *  0.366200 *  -3.73396    1.000000    
     75 O1    s    0.893430 *  0.174340 *  0.633800 *  -3.73396    1.000000    
     76 O1    s    0.606570 *  0.825660 *  0.633800 *  -3.73396    1.000000    
     77 O1    s    0.893430 *  0.825660 *  0.633800 *  -3.73396    1.000000    
     78 O1    s    0.606570 *  0.174340 *  0.633800 *  -3.73396    1.000000    
     79 O3    s    0.106570 *  0.825660 *  0.366200 *  -3.33043    1.000000    
     80 O3    s    0.393430 *  0.174340 *  0.366200 *  -3.33043    1.000000    
     81 O1    s    0.000000 *  0.000000 *  0.500000 *  -3.73396    1.000000    
     82 O1    s    0.500000 *  0.000000 *  0.500000 *  -3.73396    1.000000    
     83 O3    s    0.994520 *  0.000000 *  0.250840 *  -3.33043    1.000000    
     84 O1    s    0.505480 *  0.000000 *  0.250840 *  -3.73396    1.000000    
     85 O3    s    0.005480 *  0.000000 *  0.749160 *  -3.33043    1.000000    
     86 O1    s    0.494520 *  0.000000 *  0.749160 *  -3.73396    1.000000    
     87 O1    s    0.610230 *  0.175520 *  0.115390 *  -3.73396    1.000000    
     88 O3    s    0.889770 *  0.824480 *  0.115390 *  -3.33043    1.000000    
     89 O1    s    0.389770 *  0.175520 *  0.884610 *  -3.73396    1.000000    
     90 O3    s    0.110230 *  0.824480 *  0.884610 *  -3.33043    1.000000    
     91 O1    s    0.389770 *  0.824480 *  0.884610 *  -3.73396    1.000000    
     92 O3    s    0.110230 *  0.175520 *  0.884610 *  -3.33043    1.000000    
     93 O1    s    0.610230 *  0.824480 *  0.115390 *  -3.73396    1.000000    
     94 O3    s    0.889770 *  0.175520 *  0.115390 *  -3.33043    1.000000    
     95 O1    s    0.500000 *  0.000000 *  0.000000 *  -3.73396    1.000000    
     96 O2    s    0.000000 *  0.000000 *  0.000000 *  -2.87073    1.000000    
     97 O3    s    0.151750 *  0.500000 *  0.313330 *  -3.33043    1.000000    
     98 O3    s    0.348250 *  0.500000 *  0.313330 *  -3.33043    1.000000    
     99 O1    s    0.848250 *  0.500000 *  0.686670 *  -3.73396    1.000000    
    100 O1    s    0.651750 *  0.500000 *  0.686670 *  -3.73396    1.000000    
    101 O3    s    0.250000 *  0.234950 *  0.285720 *  -3.33043    1.000000    
    102 O3    s    0.250000 *  0.765050 *  0.285720 *  -3.33043    1.000000    
    103 O1    s    0.750000 *  0.234950 *  0.714280 *  -3.73396    1.000000    
    104 O1    s    0.750000 *  0.765050 *  0.714280 *  -3.73396    1.000000    
    105 O1    s    0.131410 *  0.268650 *  0.127790 *  -3.73396    1.000000    
    106 O1    s    0.368590 *  0.731350 *  0.127790 *  -3.73396    1.000000    
    107 O1    s    0.868590 *  0.268650 *  0.872210 *  -3.73396    1.000000    
    108 O1    s    0.631410 *  0.731350 *  0.872210 *  -3.73396    1.000000    
    109 O1    s    0.868590 *  0.731350 *  0.872210 *  -3.73396    1.000000    
    110 O1    s    0.631410 *  0.268650 *  0.872210 *  -3.73396    1.000000    
    111 O3    s    0.131410 *  0.731350 *  0.127790 *  -3.33043    1.000000    
    112 O3    s    0.368590 *  0.268650 *  0.127790 *  -3.33043    1.000000    
    113 O1    s    0.653920 *  0.500000 *  0.058200 *  -3.73396    1.000000    
    114 O1    s    0.846080 *  0.500000 *  0.058200 *  -3.73396    1.000000    
    115 O1    s    0.346080 *  0.500000 *  0.941800 *  -3.73396    1.000000    
    116 O1    s    0.153920 *  0.500000 *  0.941800 *  -3.73396    1.000000    
    117 O1    s    0.750000 *  0.231060 *  0.027050 *  -3.73396    1.000000    
    118 O1    s    0.750000 *  0.768940 *  0.027050 *  -3.73396    1.000000    
    119 O1    s    0.250000 *  0.231060 *  0.972950 *  -3.73396    1.000000    
    120 O1    s    0.250000 *  0.768940 *  0.972950 *  -3.73396    1.000000    
--------------------------------------------------------------------------------



********************************************************************************
*  General input information                                                   *
********************************************************************************

  Species output for all configurations : 

--------------------------------------------------------------------------------
  Species    Type    Atomic    Atomic    Charge       Radii (Angs)     Library
                     Number     Mass       (e)     Cova   Ionic  VDW   Symbol
--------------------------------------------------------------------------------
    Ge       Core       32      72.61   4.000000   1.170  0.000  1.750 Ge       
    Si       Core       14      28.09   4.000000   1.200  0.000  2.100 Si       
    O1       Core        8      16.00   1.733957   0.730  0.000  1.360 O1       
    O2       Core        8      16.00   0.870733   0.730  0.000  1.360 O2       
    O3       Core        8      16.00   1.330431   0.730  0.000  1.360 O3       
    O1       Shell       8       0.00  -3.733957   0.730  0.000  0.000 O1       
    O2       Shell       8       0.00  -2.870733   0.730  0.000  0.000 O2       
    O3       Shell       8       0.00  -3.330431   0.730  0.000  0.000 O3       
--------------------------------------------------------------------------------


  Lattice summation method               =    Ewald          (3-D)
                                         =    Parry          (2-D)
                                         =    Saunders et al (1-D)
  Accuracy factor for lattice sums       =   12.000


  Analytic derivatives to be used

  Time limit = Infinity

  Maximum range for interatomic potentials =    100000.000000 Angstroms

  General interatomic potentials :

--------------------------------------------------------------------------------
Atom  Types   Potential      Parameter       Value         Units   Cutoffs(Ang)
  1     2                                                            Min /  Max 
--------------------------------------------------------------------------------
Si   c O1   s Buckingham    Buckingham A     1315.2478    eV        0.000 16.000
                            Buckingham rho  0.31775900    Ang       
                            Buckingham C     10.141118    eV*Ang^6  
--------------------------------------------------------------------------------
Si   c O2   s Buckingham    Buckingham A     1315.2478    eV        0.000 16.000
                            Buckingham rho  0.31775900    Ang       
                            Buckingham C     10.141118    eV*Ang^6  
--------------------------------------------------------------------------------
Si   c O3   s Buckingham    Buckingham A     1315.2478    eV        0.000 16.000
                            Buckingham rho  0.31775900    Ang       
                            Buckingham C     10.141118    eV*Ang^6  
--------------------------------------------------------------------------------
Ge   c O1   s Buckingham    Buckingham A     1497.3996    eV        0.000 16.000
                            Buckingham rho  0.32564600    Ang       
                            Buckingham C     16.808599    eV*Ang^6  
--------------------------------------------------------------------------------
Ge   c O2   s Buckingham    Buckingham A     1497.3996    eV        0.000 16.000
                            Buckingham rho  0.32564600    Ang       
                            Buckingham C     16.808599    eV*Ang^6  
--------------------------------------------------------------------------------
Ge   c O3   s Buckingham    Buckingham A     1497.3996    eV        0.000 16.000
                            Buckingham rho  0.32564600    Ang       
                            Buckingham C     16.808599    eV*Ang^6  
--------------------------------------------------------------------------------
O1   s O1   s Buckingham    Buckingham A     22764.000    eV        0.000 16.000
                            Buckingham rho  0.14900000    Ang       
                            Buckingham C     10.937044    eV*Ang^6  
--------------------------------------------------------------------------------
O1   s O2   s Buckingham    Buckingham A     22764.000    eV        0.000 16.000
                            Buckingham rho  0.14900000    Ang       
                            Buckingham C     10.937044    eV*Ang^6  
--------------------------------------------------------------------------------
O1   s O3   s Buckingham    Buckingham A     22764.000    eV        0.000 16.000
                            Buckingham rho  0.14900000    Ang       
                            Buckingham C     10.937044    eV*Ang^6  
--------------------------------------------------------------------------------
O2   s O2   s Buckingham    Buckingham A     22764.000    eV        0.000 16.000
                            Buckingham rho  0.14900000    Ang       
                            Buckingham C     10.937044    eV*Ang^6  
--------------------------------------------------------------------------------
O2   s O3   s Buckingham    Buckingham A     22764.000    eV        0.000 16.000
                            Buckingham rho  0.14900000    Ang       
                            Buckingham C     10.937044    eV*Ang^6  
--------------------------------------------------------------------------------
O3   s O3   s Buckingham    Buckingham A     22764.000    eV        0.000 16.000
                            Buckingham rho  0.14900000    Ang       
                            Buckingham C     10.937044    eV*Ang^6  
--------------------------------------------------------------------------------
O1   c O1   s Spring (c-s)  Spring k 2       180.31577    eV*Ang^-2 0.000  0.800
                            Spring k 4       0.0000000    eV*Ang^-4 
--------------------------------------------------------------------------------
O2   c O2   s Spring (c-s)  Spring k 2       75.969800    eV*Ang^-2 0.000  0.800
                            Spring k 4       0.0000000    eV*Ang^-4 
--------------------------------------------------------------------------------
O3   c O3   s Spring (c-s)  Spring k 2       128.14270    eV*Ang^-2 0.000  0.800
                            Spring k 4       0.0000000    eV*Ang^-4 
--------------------------------------------------------------------------------

  General Three-body potentials :

--------------------------------------------------------------------------------
  Atoms       Potential      Parameter       Value         Units   Cutoffs(Ang)
  1 / 2 / 3                                                          Min /  Max 
--------------------------------------------------------------------------------
Si    core    Harmonic      Three-body cnst  1.2614000    eV*rad^-2 0.000  1.900
O1    shel                  Three-body angl  109.47000    degrees   0.000  1.900
O1    shel                  Three-body k4    0.0000000    eV*rad^-4 0.000  3.500
                            Three-body k3    0.0000000    eV*rad^-3 
--------------------------------------------------------------------------------
Si    core    Harmonic      Three-body cnst  1.2614000    eV*rad^-2 0.000  1.900
O1    shel                  Three-body angl  109.47000    degrees   0.000  1.900
õ(1   shel                  Three-body k4    0.0000000    eV*rad^-4 0.000  3.500
                            Three-body k3    0.0000000    eV*rad^-3 
--------------------------------------------------------------------------------
Si    core    Harmonic      Three-body cnst  1.2614000    eV*rad^-2 0.000  1.900
õ(1   shel                  Three-body angl  109.47000    degrees   0.000  1.900
õ(1   shel                  Three-body k4    0.0000000    eV*rad^-4 0.000  3.500
                            Three-body k3    0.0000000    eV*rad^-3 
--------------------------------------------------------------------------------
Si    core    Harmonic      Three-body cnst  1.2614000    eV*rad^-2 0.000  1.900
O1    shel                  Three-body angl  109.47000    degrees   0.000  1.900
O2    shel                  Three-body k4    0.0000000    eV*rad^-4 0.000  3.500
                            Three-body k3    0.0000000    eV*rad^-3 
--------------------------------------------------------------------------------
Si    core    Harmonic      Three-body cnst  1.2614000    eV*rad^-2 0.000  1.900
O1    shel                  Three-body angl  109.47000    degrees   0.000  1.900
õ(2   shel                  Three-body k4    0.0000000    eV*rad^-4 0.000  3.500
                            Three-body k3    0.0000000    eV*rad^-3 
--------------------------------------------------------------------------------
Si    core    Harmonic      Three-body cnst  1.2614000    eV*rad^-2 0.000  1.900
O2    shel                  Three-body angl  109.47000    degrees   0.000  1.900
õ(1   shel                  Three-body k4    0.0000000    eV*rad^-4 0.000  3.500
                            Three-body k3    0.0000000    eV*rad^-3 
--------------------------------------------------------------------------------
Si    core    Harmonic      Three-body cnst  1.2614000    eV*rad^-2 0.000  1.900
õ(1   shel                  Three-body angl  109.47000    degrees   0.000  1.900
õ(2   shel                  Three-body k4    0.0000000    eV*rad^-4 0.000  3.500
                            Three-body k3    0.0000000    eV*rad^-3 
--------------------------------------------------------------------------------
Si    core    Harmonic      Three-body cnst  1.2614000    eV*rad^-2 0.000  1.900
O2    shel                  Three-body angl  109.47000    degrees   0.000  1.900
O2    shel                  Three-body k4    0.0000000    eV*rad^-4 0.000  3.500
                            Three-body k3    0.0000000    eV*rad^-3 
--------------------------------------------------------------------------------
Si    core    Harmonic      Three-body cnst  1.2614000    eV*rad^-2 0.000  1.900
O2    shel                  Three-body angl  109.47000    degrees   0.000  1.900
õ(2   shel                  Three-body k4    0.0000000    eV*rad^-4 0.000  3.500
                            Three-body k3    0.0000000    eV*rad^-3 
--------------------------------------------------------------------------------
Si    core    Harmonic      Three-body cnst  1.2614000    eV*rad^-2 0.000  1.900
õ(2   shel                  Three-body angl  109.47000    degrees   0.000  1.900
õ(2   shel                  Three-body k4    0.0000000    eV*rad^-4 0.000  3.500
                            Three-body k3    0.0000000    eV*rad^-3 
--------------------------------------------------------------------------------

********************************************************************************
*  Output for configuration   1 : c00595.vasp                                  *
********************************************************************************


  Components of energy : 

--------------------------------------------------------------------------------
  Interatomic potentials     =         896.56312510 eV    
  Three-body potentials      =           0.00000000 eV    
  Monopole - monopole (real) =       -2676.00317478 eV    
  Monopole - monopole (recip)=       -1115.35404472 eV    
  Monopole - monopole (total)=       -3791.35721950 eV    
--------------------------------------------------------------------------------
  Total lattice energy       =       -2894.79409440 eV    
--------------------------------------------------------------------------------
  Total lattice energy       =         -279303.3791 kJ/(mole unit cells)
--------------------------------------------------------------------------------


  Number of variables =      363

  Maximum number of calculations  =          1000
  Maximum Hessian update interval =            10
  Maximum step size               =   0.100000000
  Maximum parameter tolerance     =   0.000010000
  Maximum function  tolerance     =   0.000010000
  Maximum gradient  tolerance     =   0.001000000
  Maximum gradient  component     =   0.010000000

  Symmetry not applied to optimisation

  Cell parameters to be optimised using strains

  Newton-Raphson optimiser to be used

  BFGS hessian update to be used

  Lower half triangular hessian to be used

  Minimiser to switch to RFO
  When gradient norm is less than     0.050000

  Dumpfile to be written after every cycle

  Start of bulk optimisation :

  Cycle:      0 Energy:     -2894.794094  Gnorm:      5.880960  CPU:    0.095
  ** Hessian calculated **
  Cycle:      1 Energy:     -2938.343662  Gnorm:      1.407017  CPU:    0.218
  ** Hessian calculated **
  Cycle:      2 Energy:     -2943.270881  Gnorm:      0.810558  CPU:    0.402
  Cycle:      3 Energy:     -2944.218243  Gnorm:      0.389335  CPU:    0.487
  Cycle:      4 Energy:     -2944.737697  Gnorm:      0.317101  CPU:    0.588
  Cycle:      5 Energy:     -2945.368996  Gnorm:      0.271390  CPU:    0.689
  Cycle:      6 Energy:     -2946.045334  Gnorm:      0.226940  CPU:    0.790
  Cycle:      7 Energy:     -2946.394070  Gnorm:      0.169741  CPU:    0.875
  Cycle:      8 Energy:     -2946.520467  Gnorm:      0.113885  CPU:    0.962
  Cycle:      9 Energy:     -2946.575585  Gnorm:      0.088991  CPU:    1.063
  Cycle:     10 Energy:     -2946.617275  Gnorm:      0.082880  CPU:    1.163
  Cycle:     11 Energy:     -2946.665097  Gnorm:      0.089133  CPU:    1.263
  ** Hessian calculated **
  Cycle:     12 Energy:     -2946.679652  Gnorm:      0.078021  CPU:    1.448
  Cycle:     13 Energy:     -2946.704709  Gnorm:      0.074736  CPU:    1.564
  Cycle:     14 Energy:     -2946.734822  Gnorm:      0.071700  CPU:    1.665
  Cycle:     15 Energy:     -2946.770808  Gnorm:      0.063780  CPU:    1.765
  Cycle:     16 Energy:     -2946.809432  Gnorm:      0.060218  CPU:    1.865
  Cycle:     17 Energy:     -2946.833108  Gnorm:      0.057656  CPU:    1.949
  Cycle:     18 Energy:     -2946.850867  Gnorm:      0.057538  CPU:    2.050
  Cycle:     19 Energy:     -2946.867025  Gnorm:      0.058802  CPU:    2.150
  Cycle:     20 Energy:     -2946.888268  Gnorm:      0.059187  CPU:    2.251
  Cycle:     21 Energy:     -2946.915086  Gnorm:      0.057587  CPU:    2.351
  ** Hessian calculated **
  Cycle:     22 Energy:     -2946.937145  Gnorm:      0.055952  CPU:    2.534
  Cycle:     23 Energy:     -2946.974097  Gnorm:      0.052899  CPU:    2.650
  Cycle:     24 Energy:     -2947.021247  Gnorm:      0.048128  CPU:    2.750
  ** Hessian has wrong structure
  ** Imaginary eigenvectors =   5
  Cycle:     25 Energy:     -2947.055622  Gnorm:      0.080973  CPU:    2.995
  ** Hessian has wrong structure
  ** Imaginary eigenvectors =   4
  Cycle:     26 Energy:     -2947.142598  Gnorm:      0.097170  CPU:    3.396
  ** Hessian has wrong structure
  ** Imaginary eigenvectors =   3
  ** Hessian has wrong structure
  ** Imaginary eigenvectors =   2
  Cycle:     27 Energy:     -2947.164477  Gnorm:      0.099718  CPU:    3.940
  ** Hessian has wrong structure
  ** Imaginary eigenvectors =   1
  ** Hessian has required structure
  Cycle:     28 Energy:     -2947.429847  Gnorm:      0.095801  CPU:    4.419
  ** Hessian has required structure
  Cycle:     29 Energy:     -2947.678880  Gnorm:      0.071101  CPU:    4.570
  ** Hessian has required structure
  Cycle:     30 Energy:     -2947.737626  Gnorm:      0.100269  CPU:    4.691
  ** Hessian has required structure
  Cycle:     31 Energy:     -2947.814261  Gnorm:      0.060279  CPU:    4.810
  ** Hessian has required structure
  Cycle:     32 Energy:     -2947.848137  Gnorm:      0.063995  CPU:    4.963
  ** Hessian has required structure
  Cycle:     33 Energy:     -2947.879446  Gnorm:      0.069434  CPU:    5.100
  ** Hessian has required structure
  Cycle:     34 Energy:     -2947.908896  Gnorm:      0.059779  CPU:    5.221
  ** Hessian has required structure
  Cycle:     35 Energy:     -2947.934199  Gnorm:      0.047265  CPU:    5.356
  ** Hessian has required structure
  Cycle:     36 Energy:     -2947.951549  Gnorm:      0.036129  CPU:    5.492
  ** Hessian has required structure
  Cycle:     37 Energy:     -2947.961527  Gnorm:      0.023854  CPU:    5.627
  ** Hessian has required structure
  Cycle:     38 Energy:     -2947.972184  Gnorm:      0.012911  CPU:    5.854
  ** Hessian has required structure
  Cycle:     39 Energy:     -2947.974908  Gnorm:      0.007085  CPU:    6.006
  ** Hessian has required structure
  Cycle:     40 Energy:     -2947.975742  Gnorm:      0.003401  CPU:    6.157
  ** Hessian has required structure
  Cycle:     41 Energy:     -2947.976009  Gnorm:      0.001802  CPU:    6.308
  ** Hessian has required structure
  Cycle:     42 Energy:     -2947.976095  Gnorm:      0.000834  CPU:    6.460
  ** Hessian has required structure
  Cycle:     43 Energy:     -2947.976127  Gnorm:      0.000463  CPU:    6.611
  ** Hessian has required structure
  Cycle:     44 Energy:     -2947.976139  Gnorm:      0.000215  CPU:    6.761
  ** Hessian has required structure
  Cycle:     45 Energy:     -2947.976143  Gnorm:      0.000154  CPU:    6.897
  ** Hessian has required structure
  Cycle:     46 Energy:     -2947.976144  Gnorm:      0.000105  CPU:    7.017
  ** Hessian has required structure
  Cycle:     47 Energy:     -2947.976145  Gnorm:      0.000080  CPU:    7.138
  ** Hessian has required structure


  **** Optimisation achieved ****


  Final energy =   -2947.97614550 eV      
  Final Gnorm  =       0.00005623

  Components of energy : 

--------------------------------------------------------------------------------
  Interatomic potentials     =         779.45893448 eV    
  Three-body potentials      =           0.00000000 eV    
  Monopole - monopole (real) =       -1559.38484245 eV    
  Monopole - monopole (recip)=       -2168.05023752 eV    
  Monopole - monopole (total)=       -3727.43507997 eV    
--------------------------------------------------------------------------------
  Total lattice energy       =       -2947.97614550 eV    
--------------------------------------------------------------------------------
  Total lattice energy       =         -284434.6341 kJ/(mole unit cells)
--------------------------------------------------------------------------------

  Final fractional coordinates of atoms :

--------------------------------------------------------------------------------
   No.  Atomic        x           y          z          Radius
        Label       (Frac)      (Frac)     (Frac)       (Angs) 
--------------------------------------------------------------------------------
     1  Ge    c     0.052090    0.000000    0.372270    0.000000
     2  Ge    c     0.439568    0.058602    0.327897    0.000000
     3  Ge    c     0.944547    0.049317    0.622224    0.000000
     4  Ge    c     0.545493    0.003047    0.583128    0.000000
     5  Ge    c     0.544347    0.991810    0.079154    0.000000
     6  Ge    c     0.437193    0.047075    0.827532    0.000000
     7  Ge    c     0.166390    0.296956    0.268403    0.000000
     8  Ge    c     0.320036    0.764873    0.256844    0.000000
     9  Ge    c     0.849926    0.367008    0.697893    0.000000
    10  Ge    c     0.640002    0.689224    0.702373    0.000000
    11  Ge    c     0.820347    0.769996    0.699547    0.000000
    12  Ge    c     0.669001    0.286289    0.698657    0.000000
    13  Ge    c     0.669675    0.279587    0.014406    0.000000
    14  Ge    c     0.825438    0.766524    0.018474    0.000000
    15  Ge    c     0.339508    0.353863    0.951159    0.000000
    16  Ge    c     0.136657    0.679111    0.946839    0.000000
    17  Ge    c     0.316249    0.760976    0.939755    0.000000
    18  Ge    c     0.158642    0.274206    0.952997    0.000000
    19  Ge    c     0.645500    0.681539    0.022527    0.000000
    20  Ge    c     0.850877    0.360513    0.014035    0.000000
    21  Si    c     0.941536    0.052679    0.130567    0.000000
    22  Si    c     0.037935    0.987775    0.884215    0.000000
    23  Si    c     0.143218    0.688714    0.258928    0.000000
    24  Si    c     0.343433    0.371126    0.262961    0.000000
    25  O1    c     0.123160    0.152172    0.368761    0.000000
    26  O1    c     0.368121    0.908420    0.353850    0.000000
    27  O1    c     0.913351    0.254652    0.606701    0.000000
    28  O1    c     0.570708    0.797055    0.618979    0.000000
    29  O1    c     0.868255    0.910870    0.601716    0.000000
    30  O1    c     0.622652    0.137027    0.603379    0.000000
    31  O3    c     0.082514    0.797747    0.335570    0.000000
    32  O3    c     0.404097    0.262956    0.345179    0.000000
    33  O1    c     0.019821    0.999397    0.529704    0.000000
    34  O1    c     0.517741    0.020793    0.421036    0.000000
    35  O3    c     0.973598    0.049901    0.277599    0.000000
    36  O1    c     0.466702    0.037239    0.167352    0.000000
    37  O3    c     0.970119    0.025224    0.786875    0.000000
    38  O1    c     0.466582    0.059289    0.668489    0.000000
    39  O1    c     0.618141    0.137136    0.104538    0.000000
    40  O3    c     0.871781    0.918640    0.114686    0.000000
    41  O1    c     0.408530    0.247690    0.872971    0.000000
    42  O3    c     0.067636    0.795339    0.867408    0.000000
    43  O1    c     0.362927    0.902164    0.840774    0.000000
    44  O3    c     0.107501    0.122425    0.864301    0.000000
    45  O1    c     0.580226    0.792058    0.109074    0.000000
    46  O3    c     0.916144    0.245143    0.103124    0.000000
    47  O1    c     0.515441    0.989776    0.916916    0.000000
    48  O2    c     0.009604    0.001419    0.034238    0.000000
    49  O3    c     0.152508    0.503659    0.324936    0.000000
    50  O3    c     0.336697    0.561088    0.318655    0.000000
    51  O1    c     0.835300    0.566987    0.638451    0.000000
    52  O1    c     0.652664    0.488740    0.638717    0.000000
    53  O3    c     0.263284    0.267083    0.266310    0.000000
    54  O3    c     0.222926    0.794932    0.259344    0.000000
    55  O1    c     0.764867    0.252828    0.700795    0.000000
    56  O1    c     0.724566    0.805083    0.696808    0.000000
    57  O1    c     0.131674    0.262763    0.113426    0.000000
    58  O1    c     0.349155    0.787240    0.098294    0.000000
    59  O1    c     0.882012    0.383738    0.857331    0.000000
    60  O1    c     0.615445    0.660703    0.862090    0.000000
    61  O1    c     0.853127    0.780178    0.859169    0.000000
    62  O1    c     0.635915    0.268786    0.855592    0.000000
    63  O3    c     0.116495    0.652174    0.110893    0.000000
    64  O3    c     0.367519    0.386754    0.112393    0.000000
    65  O1    c     0.658004    0.480388    0.081392    0.000000
    66  O1    c     0.841444    0.562447    0.076680    0.000000
    67  O1    c     0.328765    0.554240    0.886952    0.000000
    68  O1    c     0.142022    0.475119    0.888366    0.000000
    69  O1    c     0.765711    0.247760    0.013667    0.000000
    70  O1    c     0.729628    0.798987    0.024132    0.000000
    71  O1    c     0.254554    0.240543    0.943298    0.000000
    72  O1    c     0.220211    0.793531    0.934615    0.000000
    73  O1    s     0.121056    0.151754    0.361123    0.000000
    74  O1    s     0.369574    0.908140    0.344424    0.000000
    75  O1    s     0.911075    0.247549    0.614435    0.000000
    76  O1    s     0.574040    0.804320    0.622570    0.000000
    77  O1    s     0.870287    0.910422    0.610711    0.000000
    78  O1    s     0.620264    0.138266    0.609283    0.000000
    79  O3    s     0.086127    0.803320    0.330891    0.000000
    80  O3    s     0.401014    0.257674    0.336032    0.000000
    81  O1    s     0.016186    0.003452    0.525256    0.000000
    82  O1    s     0.513511    0.022477    0.425316    0.000000
    83  O3    s     0.976687    0.046186    0.270694    0.000000
    84  O1    s     0.470871    0.035206    0.171933    0.000000
    85  O3    s     0.975366    0.023110    0.784881    0.000000
    86  O1    s     0.470203    0.054243    0.673894    0.000000
    87  O1    s     0.616741    0.137580    0.095681    0.000000
    88  O3    s     0.874896    0.919528    0.108489    0.000000
    89  O1    s     0.405154    0.241279    0.875847    0.000000
    90  O3    s     0.070316    0.804064    0.875197    0.000000
    91  O1    s     0.364878    0.902070    0.847506    0.000000
    92  O3    s     0.105071    0.121982    0.873282    0.000000
    93  O1    s     0.582488    0.798220    0.100507    0.000000
    94  O3    s     0.913378    0.235634    0.098643    0.000000
    95  O1    s     0.511666    0.994212    0.921689    0.000000
    96  O2    s     0.005586    0.005229    0.029129    0.000000
    97  O3    s     0.152675    0.505557    0.314344    0.000000
    98  O3    s     0.336102    0.557748    0.308484    0.000000
    99  O1    s     0.835372    0.565841    0.647441    0.000000
   100  O1    s     0.652902    0.488979    0.647752    0.000000
   101  O3    s     0.263134    0.279089    0.266134    0.000000
   102  O3    s     0.223059    0.782776    0.259097    0.000000
   103  O1    s     0.763837    0.263501    0.700447    0.000000
   104  O1    s     0.725620    0.794178    0.697424    0.000000
   105  O1    s     0.136329    0.266196    0.113338    0.000000
   106  O1    s     0.344626    0.783703    0.098512    0.000000
   107  O1    s     0.877314    0.380764    0.857458    0.000000
   108  O1    s     0.619516    0.664375    0.861729    0.000000
   109  O1    s     0.848631    0.778401    0.859592    0.000000
   110  O1    s     0.640752    0.270810    0.855686    0.000000
   111  O3    s     0.120683    0.657775    0.112499    0.000000
   112  O3    s     0.363035    0.382726    0.114164    0.000000
   113  O1    s     0.657872    0.481667    0.072043    0.000000
   114  O1    s     0.841011    0.561987    0.067860    0.000000
   115  O1    s     0.328661    0.554212    0.895668    0.000000
   116  O1    s     0.142783    0.476442    0.897400    0.000000
   117  O1    s     0.764744    0.258368    0.013741    0.000000
   118  O1    s     0.730701    0.788108    0.023562    0.000000
   119  O1    s     0.253701    0.251265    0.944583    0.000000
   120  O1    s     0.221079    0.782434    0.935954    0.000000
--------------------------------------------------------------------------------

  Final Cartesian lattice vectors (Angstroms) :

       17.605026   -0.191820   -0.136613
       -0.085105    7.811824   -0.002843
       -0.085661   -0.002710   10.232580


  Final cell parameters and derivatives :

--------------------------------------------------------------------------------
       a           17.606601 Angstrom     dE/de1(xx)     0.001758 eV/strain
       b            7.812288 Angstrom     dE/de2(yy)     0.000570 eV/strain
       c           10.232938 Angstrom     dE/de3(zz)     0.002653 eV/strain
       alpha       90.030792 Degrees      dE/de4(yz)     0.000378 eV/strain
       beta        90.924017 Degrees      dE/de5(xz)     0.000008 eV/strain
       gamma       91.248231 Degrees      dE/de6(xy)    -0.000386 eV/strain
--------------------------------------------------------------------------------

  Primitive cell volume =          1407.001087 Angs**3

  Density of cell =      2.752925 g/cm**3

  Non-primitive cell volume =          1407.001087 Angs**3


  Final internal derivatives :

--------------------------------------------------------------------------------
   No.  Atomic          a             b             c           Radius
        Label          (eV)          (eV)          (eV)        (eV/Angs)
--------------------------------------------------------------------------------
      1 Ge    c       0.000000      0.000000      0.000000      0.000000
      2 Ge    c      -0.000687      0.000299      0.000098      0.000000
      3 Ge    c       0.000090      0.000002     -0.000512      0.000000
      4 Ge    c      -0.000143     -0.000095      0.000062      0.000000
      5 Ge    c      -0.000354      0.000058      0.000031      0.000000
      6 Ge    c      -0.000045     -0.000014      0.000576      0.000000
      7 Ge    c      -0.000496      0.000167      0.000332      0.000000
      8 Ge    c      -0.000411     -0.000256      0.000113      0.000000
      9 Ge    c      -0.000250      0.000151     -0.000074      0.000000
     10 Ge    c      -0.000155     -0.000094      0.000207      0.000000
     11 Ge    c       0.000089     -0.000119     -0.000073      0.000000
     12 Ge    c       0.000051      0.000048      0.000104      0.000000
     13 Ge    c      -0.000014      0.000241     -0.000072      0.000000
     14 Ge    c      -0.000414     -0.000033     -0.000153      0.000000
     15 Ge    c       0.000642      0.000007      0.000241      0.000000
     16 Ge    c       0.003271     -0.001232     -0.002606      0.000000
     17 Ge    c       0.000892     -0.000332     -0.000373      0.000000
     18 Ge    c      -0.000173     -0.000433     -0.000031      0.000000
     19 Ge    c      -0.000131      0.000062      0.000025      0.000000
     20 Ge    c      -0.000122      0.000071     -0.000056      0.000000
     21 Si    c      -0.000486      0.000153      0.000092      0.000000
     22 Si    c      -0.000209      0.000567     -0.000203      0.000000
     23 Si    c       0.008438     -0.002878      0.002177      0.000000
     24 Si    c      -0.000043     -0.000095     -0.000059      0.000000
     25 O1    c      -0.000513     -0.000227     -0.000127      0.000000
     26 O1    c       0.000984      0.000634     -0.000205      0.000000
     27 O1    c       0.000731     -0.000208     -0.000315      0.000000
     28 O1    c       0.000042      0.000143      0.000047      0.000000
     29 O1    c       0.000010     -0.000018     -0.000074      0.000000
     30 O1    c       0.000185      0.000062      0.000059      0.000000
     31 O3    c      -0.007184      0.000999      0.004240      0.000000
     32 O3    c       0.000300     -0.000690     -0.000421      0.000000
     33 O1    c      -0.000481     -0.000186      0.000108      0.000000
     34 O1    c      -0.000808     -0.000080     -0.000327      0.000000
     35 O3    c      -0.001138      0.000323     -0.000066      0.000000
     36 O1    c       0.000285      0.000144     -0.000034      0.000000
     37 O3    c       0.000416     -0.000013      0.000560      0.000000
     38 O1    c       0.000940     -0.000126     -0.000323      0.000000
     39 O1    c      -0.000457     -0.000183      0.000214      0.000000
     40 O3    c      -0.000008      0.000150      0.000060      0.000000
     41 O1    c      -0.000168     -0.000824     -0.000322      0.000000
     42 O3    c      -0.002601      0.000524     -0.001434      0.000000
     43 O1    c       0.001744      0.000898     -0.000192      0.000000
     44 O3    c      -0.000337     -0.000077     -0.000049      0.000000
     45 O1    c       0.000645     -0.000174     -0.000284      0.000000
     46 O3    c      -0.000226      0.000574     -0.000030      0.000000
     47 O1    c      -0.002135      0.000206     -0.000740      0.000000
     48 O2    c       0.000130      0.000094     -0.000014      0.000000
     49 O3    c      -0.000985      0.001439     -0.000283      0.000000
     50 O3    c      -0.000347      0.000100     -0.000316      0.000000
     51 O1    c      -0.000097      0.000199     -0.000014      0.000000
     52 O1    c       0.000152      0.000060      0.000120      0.000000
     53 O3    c       0.001347      0.000306      0.000154      0.000000
     54 O3    c       0.002894      0.001316     -0.000564      0.000000
     55 O1    c      -0.000045     -0.000014      0.000026      0.000000
     56 O1    c      -0.000015     -0.000079      0.000002      0.000000
     57 O1    c      -0.000621     -0.000414      0.000001      0.000000
     58 O1    c       0.000893      0.000074      0.000587      0.000000
     59 O1    c       0.000219     -0.000074      0.000450      0.000000
     60 O1    c       0.000504      0.000049     -0.000431      0.000000
     61 O1    c       0.000083      0.000035     -0.000059      0.000000
     62 O1    c       0.000414      0.000025     -0.000208      0.000000
     63 O3    c      -0.009182     -0.001617     -0.003463      0.000000
     64 O3    c      -0.000877     -0.000005     -0.000156      0.000000
     65 O1    c       0.000111     -0.000226     -0.000215      0.000000
     66 O1    c      -0.000018     -0.000232      0.000015      0.000000
     67 O1    c      -0.000490      0.000375      0.000234      0.000000
     68 O1    c      -0.000751      0.001858     -0.000192      0.000000
     69 O1    c       0.000077      0.000028      0.000019      0.000000
     70 O1    c      -0.000248     -0.000042      0.000026      0.000000
     71 O1    c       0.000431      0.000099     -0.000161      0.000000
     72 O1    c      -0.001302      0.000728      0.000248      0.000000
     73 O1    s       0.000893      0.000089      0.000597      0.000000
     74 O1    s       0.000223     -0.000268      0.000107      0.000000
     75 O1    s      -0.000530      0.000144      0.000127      0.000000
     76 O1    s       0.000060      0.000010      0.000023      0.000000
     77 O1    s      -0.000273     -0.000012      0.000057      0.000000
     78 O1    s      -0.000384     -0.000098      0.000065      0.000000
     79 O3    s      -0.000216      0.000191      0.000397      0.000000
     80 O3    s      -0.000332      0.000315     -0.000025      0.000000
     81 O1    s       0.000784      0.000269      0.000281      0.000000
     82 O1    s      -0.000149      0.000112      0.000328      0.000000
     83 O3    s       0.000052     -0.000309     -0.000484      0.000000
     84 O1    s      -0.000216     -0.000256      0.000237      0.000000
     85 O3    s      -0.000006     -0.000046     -0.000281      0.000000
     86 O1    s      -0.000526      0.000061      0.000281      0.000000
     87 O1    s       0.000255      0.000033     -0.000207      0.000000
     88 O3    s       0.000136     -0.000256      0.000118      0.000000
     89 O1    s       0.000161      0.000185      0.000400      0.000000
     90 O3    s       0.000413     -0.000015     -0.000150      0.000000
     91 O1    s       0.000003     -0.000318      0.000074      0.000000
     92 O3    s       0.000608     -0.000087     -0.000197      0.000000
     93 O1    s      -0.000365      0.000138      0.000154      0.000000
     94 O3    s      -0.000052     -0.000187     -0.000022      0.000000
     95 O1    s       0.000453     -0.000010      0.000322      0.000000
     96 O2    s      -0.000016     -0.000517      0.000470      0.000000
     97 O3    s       0.002390     -0.002548      0.000967      0.000000
     98 O3    s       0.000639     -0.000356      0.000183      0.000000
     99 O1    s      -0.000046     -0.000038     -0.000005      0.000000
    100 O1    s      -0.000247     -0.000002     -0.000027      0.000000
    101 O3    s       0.000280      0.000017     -0.000559      0.000000
    102 O3    s       0.004576      0.000056      0.001358      0.000000
    103 O1    s      -0.000353     -0.000054     -0.000028      0.000000
    104 O1    s      -0.000268      0.000046      0.000041      0.000000
    105 O1    s       0.001085      0.000911     -0.000244      0.000000
    106 O1    s       0.000083      0.000025     -0.000398      0.000000
    107 O1    s       0.000016      0.000145     -0.000091      0.000000
    108 O1    s       0.000000     -0.000030      0.000160      0.000000
    109 O1    s      -0.000000     -0.000076      0.000054      0.000000
    110 O1    s      -0.000233     -0.000037      0.000023      0.000000
    111 O3    s      -0.003702      0.000649     -0.000675      0.000000
    112 O3    s      -0.000888     -0.000106      0.000169      0.000000
    113 O1    s      -0.000083      0.000182      0.000157      0.000000
    114 O1    s       0.000084      0.000123      0.000051      0.000000
    115 O1    s       0.000819     -0.000418     -0.000102      0.000000
    116 O1    s       0.001174     -0.001727      0.000054      0.000000
    117 O1    s      -0.000026     -0.000010     -0.000006      0.000000
    118 O1    s       0.000044     -0.000024     -0.000060      0.000000
    119 O1    s       0.000270      0.000035      0.000407      0.000000
    120 O1    s       0.002587     -0.000055     -0.000860      0.000000
--------------------------------------------------------------------------------
  Maximum abs         0.009182      0.002878      0.004240      0.000000
--------------------------------------------------------------------------------


  Born effective charge tensors : 

-------------------------------------------------------------------------------
  Atom             x           y             z
-------------------------------------------------------------------------------
    1 Ge    x       4.0166     -0.1483     -0.4228
            y       0.2017      3.9111      0.1392
            z      -0.2714     -0.0315      4.4990
-------------------------------------------------------------------------------
    2 Ge    x       4.1860     -0.2363     -0.0994
            y       0.1243      3.9004     -0.0256
            z       0.7903     -0.1679      4.1511
-------------------------------------------------------------------------------
    3 Ge    x       4.0990     -0.2785      0.0329
            y       0.1016      3.9072      0.0047
            z      -0.8714      0.1960      4.2658
-------------------------------------------------------------------------------
    4 Ge    x       4.2184     -0.2703      0.4722
            y       0.1741      3.8904     -0.1353
            z       0.2257     -0.0555      4.4797
-------------------------------------------------------------------------------
    5 Ge    x       4.4201     -0.2068      0.0647
            y       0.0684      3.9077      0.0063
            z      -0.6313      0.1719      3.6332
-------------------------------------------------------------------------------
    6 Ge    x       4.3214     -0.1855     -0.4132
            y       0.1495      3.9216      0.1195
            z      -0.3407     -0.0263      4.0057
-------------------------------------------------------------------------------
    7 Ge    x       3.8345      0.2991     -0.2332
            y       0.3510      4.1607     -0.1033
            z       0.0235     -0.2020      3.5487
-------------------------------------------------------------------------------
    8 Ge    x       3.8804      0.3105      0.2565
            y       0.3472      4.1294      0.0903
            z       0.0191      0.1784      3.5081
-------------------------------------------------------------------------------
    9 Ge    x       3.9274     -0.0951     -0.2014
            y      -0.4743      4.2197      0.0786
            z      -0.0463      0.1790      3.6028
-------------------------------------------------------------------------------
   10 Ge    x       3.9960     -0.0700      0.1965
            y      -0.4686      4.1851     -0.0859
            z       0.1124     -0.2264      3.6120
-------------------------------------------------------------------------------
   11 Ge    x       4.0587      0.2414     -0.2429
            y       0.2548      4.1510     -0.0541
            z       0.0107     -0.1461      3.6107
-------------------------------------------------------------------------------
   12 Ge    x       4.0279      0.2390      0.3007
            y       0.2284      4.1983      0.0647
            z       0.0179      0.1914      3.6115
-------------------------------------------------------------------------------
   13 Ge    x       4.1595      0.2683     -0.3361
            y       0.2905      4.1427     -0.0284
            z      -0.0392     -0.1215      3.4634
-------------------------------------------------------------------------------
   14 Ge    x       4.0683      0.2276      0.2741
            y       0.2251      4.1978      0.0352
            z      -0.0152      0.1213      3.4616
-------------------------------------------------------------------------------
   15 Ge    x       4.0590     -0.0789     -0.3159
            y      -0.4393      4.1764      0.0619
            z      -0.1895      0.2050      3.4403
-------------------------------------------------------------------------------
   16 Ge    x       3.9007     -0.0315      0.2522
            y      -0.4079      4.2577     -0.0619
            z       0.0749     -0.1724      3.3037
-------------------------------------------------------------------------------
   17 Ge    x       4.0604      0.2410     -0.3373
            y       0.2491      4.1960     -0.1221
            z      -0.0685     -0.1789      3.5454
-------------------------------------------------------------------------------
   18 Ge    x       4.0395      0.2479      0.2670
            y       0.2401      4.1817      0.0121
            z      -0.0076      0.0966      3.3960
-------------------------------------------------------------------------------
   19 Ge    x       4.0846     -0.0764     -0.2712
            y      -0.4250      4.2080      0.0823
            z      -0.0859      0.1801      3.4375
-------------------------------------------------------------------------------
   20 Ge    x       3.9533     -0.0160      0.2284
            y      -0.4135      4.2415     -0.0790
            z       0.0500     -0.1694      3.4304
-------------------------------------------------------------------------------
   21 Si    x       3.7005     -0.1203      0.4922
            y       0.2032      3.6859     -0.1126
            z       0.4282     -0.0265      3.5535
-------------------------------------------------------------------------------
   22 Si    x       3.8545     -0.1966      0.0675
            y       0.1269      3.6774     -0.0260
            z       0.7035     -0.1653      3.1817
-------------------------------------------------------------------------------
   23 Si    x       3.6415     -0.0751     -0.1762
            y      -0.4562      3.9166      0.0807
            z      -0.0899      0.2471      3.2979
-------------------------------------------------------------------------------
   24 Si    x       3.6489     -0.0951      0.1992
            y      -0.4327      3.9203     -0.0908
            z       0.0866     -0.1978      3.2640
-------------------------------------------------------------------------------
   25 O1    x      -2.1012     -0.9101      0.4461
            y      -0.9671     -2.4163      0.4819
            z       0.4084      0.5206     -1.6715
-------------------------------------------------------------------------------
   26 O1    x      -2.1479     -0.9094     -0.2868
            y      -0.9865     -2.3985     -0.3526
            z      -0.3735     -0.3677     -1.5880
-------------------------------------------------------------------------------
   27 O1    x      -1.9224      0.8615      0.3429
            y       0.8110     -2.5421     -0.3124
            z       0.4265     -0.3364     -1.6297
-------------------------------------------------------------------------------
   28 O1    x      -1.9936      0.8390     -0.5238
            y       0.7746     -2.5200      0.5431
            z      -0.4712      0.5333     -1.6474
-------------------------------------------------------------------------------
   29 O1    x      -2.2190     -0.8794      0.2921
            y      -0.9428     -2.2223      0.3608
            z       0.3719      0.3570     -1.6568
-------------------------------------------------------------------------------
   30 O1    x      -2.2409     -0.8994     -0.5363
            y      -0.9350     -2.2728     -0.4966
            z      -0.4953     -0.5355     -1.6736
-------------------------------------------------------------------------------
   31 O3    x      -1.8932      0.8617      0.5169
            y       0.8143     -2.3558     -0.5484
            z       0.4568     -0.5287     -1.5591
-------------------------------------------------------------------------------
   32 O3    x      -1.9257      0.8660     -0.3723
            y       0.8182     -2.3319      0.3318
            z      -0.4488      0.3867     -1.4835
-------------------------------------------------------------------------------
   33 O1    x      -2.0743      0.2438      0.9644
            y       0.1047     -1.2818     -0.1322
            z       1.2716     -0.2426     -3.2150
-------------------------------------------------------------------------------
   34 O1    x      -2.1218      0.2577     -0.9480
            y       0.0952     -1.2879      0.1535
            z      -1.1540      0.2792     -3.0859
-------------------------------------------------------------------------------
   35 O3    x      -1.9308      0.1988     -0.8079
            y       0.1045     -1.2379      0.1342
            z      -0.8084      0.1468     -2.6777
-------------------------------------------------------------------------------
   36 O1    x      -2.2170      0.2620      0.8668
            y       0.1377     -1.3563     -0.1952
            z       0.8225     -0.2428     -2.5362
-------------------------------------------------------------------------------
   37 O3    x      -1.9793      0.2294     -0.8419
            y       0.0949     -1.2681      0.1826
            z      -0.8204      0.2448     -2.5222
-------------------------------------------------------------------------------
   38 O1    x      -2.1309      0.2164      0.8008
            y       0.1075     -1.3044     -0.1016
            z       0.8266     -0.1106     -2.7469
-------------------------------------------------------------------------------
   39 O1    x      -2.2942     -0.9208      0.3093
            y      -0.9677     -2.2777      0.3162
            z       0.3715      0.3354     -1.4794
-------------------------------------------------------------------------------
   40 O3    x      -2.1626     -0.8944     -0.4413
            y      -0.8959     -2.1800     -0.4188
            z      -0.3612     -0.4113     -1.4256
-------------------------------------------------------------------------------
   41 O1    x      -2.0982      0.8695      0.5838
            y       0.8106     -2.4811     -0.5876
            z       0.5268     -0.5703     -1.5947
-------------------------------------------------------------------------------
   42 O3    x      -1.8859      0.8443     -0.2352
            y       0.7945     -2.4980      0.1834
            z      -0.3044      0.2257     -1.3151
-------------------------------------------------------------------------------
   43 O1    x      -2.2416     -0.9103      0.5383
            y      -0.9313     -2.2810      0.5028
            z       0.4789      0.5098     -1.6181
-------------------------------------------------------------------------------
   44 O3    x      -2.1553     -0.8911     -0.2011
            y      -0.9241     -2.1814     -0.2370
            z      -0.2748     -0.2506     -1.3519
-------------------------------------------------------------------------------
   45 O1    x      -2.1054      0.8838      0.3332
            y       0.8373     -2.4801     -0.2199
            z       0.3852     -0.2650     -1.4547
-------------------------------------------------------------------------------
   46 O3    x      -1.8320      0.8043     -0.4431
            y       0.7355     -2.5181      0.4976
            z      -0.3745      0.4554     -1.4066
-------------------------------------------------------------------------------
   47 O1    x      -2.1978      0.2342     -0.7093
            y       0.1454     -1.3605      0.1393
            z      -0.4936      0.1157     -2.2889
-------------------------------------------------------------------------------
   48 O2    x      -1.6862      0.1545      0.4686
            y       0.0683     -1.2107     -0.1240
            z       0.2927     -0.1103     -1.7973
-------------------------------------------------------------------------------
   49 O3    x      -1.2709      0.1891      0.0429
            y       0.2593     -2.9642      0.1601
            z       0.0021      0.1629     -1.3245
-------------------------------------------------------------------------------
   50 O3    x      -1.2804      0.1746     -0.0699
            y       0.2575     -2.9837     -0.0709
            z      -0.0291     -0.1082     -1.2843
-------------------------------------------------------------------------------
   51 O1    x      -1.3567      0.1976      0.0601
            y       0.3297     -3.1566      0.0021
            z       0.0192      0.0071     -1.3986
-------------------------------------------------------------------------------
   52 O1    x      -1.3736      0.2061     -0.0694
            y       0.3204     -3.1433     -0.0335
            z      -0.0267     -0.0322     -1.4069
-------------------------------------------------------------------------------
   53 O3    x      -2.8327     -0.3115      0.0419
            y      -0.2272     -1.5237      0.0155
            z       0.0129      0.0546     -1.1404
-------------------------------------------------------------------------------
   54 O3    x      -2.8149     -0.3210      0.0207
            y      -0.2290     -1.5305     -0.0038
            z       0.0295     -0.0463     -1.1354
-------------------------------------------------------------------------------
   55 O1    x      -3.0646     -0.2699      0.0068
            y      -0.1880     -1.5856     -0.0026
            z       0.0098     -0.0398     -1.2258
-------------------------------------------------------------------------------
   56 O1    x      -3.0574     -0.2731      0.0186
            y      -0.1908     -1.5897      0.0199
            z      -0.0152      0.0549     -1.2204
-------------------------------------------------------------------------------
   57 O1    x      -1.4840     -0.1429     -0.1443
            y      -0.1559     -1.4570     -0.1327
            z      -0.0920     -0.1019     -2.6859
-------------------------------------------------------------------------------
   58 O1    x      -1.4972     -0.1244      0.0281
            y      -0.1385     -1.4443      0.0293
            z       0.0121     -0.0000     -2.6991
-------------------------------------------------------------------------------
   59 O1    x      -1.4600      0.0166     -0.0619
            y       0.0877     -1.4428      0.0456
            z      -0.0294      0.0280     -2.7363
-------------------------------------------------------------------------------
   60 O1    x      -1.4544      0.0149      0.0069
            y       0.0822     -1.4451      0.0211
            z       0.0032      0.0267     -2.7592
-------------------------------------------------------------------------------
   61 O1    x      -1.4896     -0.1124     -0.0690
            y      -0.1205     -1.4261     -0.0092
            z      -0.0575      0.0049     -2.7506
-------------------------------------------------------------------------------
   62 O1    x      -1.5182     -0.1078      0.0222
            y      -0.1130     -1.4254      0.0373
            z       0.0358      0.0268     -2.7145
-------------------------------------------------------------------------------
   63 O3    x      -1.3284      0.0079     -0.1828
            y       0.0856     -1.3907     -0.0417
            z      -0.1354     -0.0609     -2.5762
-------------------------------------------------------------------------------
   64 O3    x      -1.3533      0.0211      0.1115
            y       0.0857     -1.3691     -0.0252
            z       0.0586     -0.0245     -2.5865
-------------------------------------------------------------------------------
   65 O1    x      -1.3966      0.1835      0.0873
            y       0.2679     -3.1311     -0.0278
            z       0.0278     -0.0014     -1.3600
-------------------------------------------------------------------------------
   66 O1    x      -1.3933      0.1879     -0.0873
            y       0.2892     -3.2567     -0.0383
            z      -0.0348     -0.0264     -1.3399
-------------------------------------------------------------------------------
   67 O1    x      -1.3765      0.1849      0.0801
            y       0.2636     -3.1794      0.0883
            z       0.0260      0.0829     -1.3790
-------------------------------------------------------------------------------
   68 O1    x      -1.3610      0.1459     -0.1118
            y       0.2551     -3.2400      0.0026
            z      -0.0473     -0.0351     -1.3708
-------------------------------------------------------------------------------
   69 O1    x      -3.1258     -0.2811      0.0037
            y      -0.1453     -1.5729      0.0145
            z      -0.0357      0.0397     -1.1860
-------------------------------------------------------------------------------
   70 O1    x      -3.1433     -0.3144      0.0245
            y      -0.2276     -1.6024     -0.0142
            z       0.0328     -0.0467     -1.1897
-------------------------------------------------------------------------------
   71 O1    x      -3.0902     -0.2932      0.0171
            y      -0.2189     -1.5913     -0.0366
            z       0.0358     -0.0648     -1.2030
-------------------------------------------------------------------------------
   72 O1    x      -3.0768     -0.2847      0.0533
            y      -0.1516     -1.5689      0.0484
            z       0.0521      0.0818     -1.2053
-------------------------------------------------------------------------------




  Elastic Constant Matrix: (Units=GPa)

-------------------------------------------------------------------------------
  Indices      1         2         3         4         5         6    
-------------------------------------------------------------------------------
       1     29.7325   12.8764    8.4644    0.2578   -0.9041   -7.4563
       2     12.8764   33.1411    5.7056   -0.4714    0.8466   -6.3124
       3      8.4644    5.7056   14.2564   -0.6712   -0.0206   -1.1899
       4      0.2578   -0.4714   -0.6712    7.9126   -1.3369   -0.1342
       5     -0.9041    0.8466   -0.0206   -1.3369   15.9347   -0.6885
       6     -7.4563   -6.3124   -1.1899   -0.1342   -0.6885   19.7723
-------------------------------------------------------------------------------


  Elastic Compliance Matrix: (Units=1/GPa)

-------------------------------------------------------------------------------
  Indices      1         2         3         4         5         6    
-------------------------------------------------------------------------------
       1    0.049207 -0.012762 -0.023165 -0.003476  0.003718  0.013194
       2   -0.012762  0.037681 -0.006859  0.001806 -0.002292  0.006737
       3   -0.023165 -0.006859  0.086522  0.007512 -0.000453 -0.005684
       4   -0.003476  0.001806  0.007512  0.129043  0.010585  0.000962
       5    0.003718 -0.002292 -0.000453  0.010585  0.064104  0.002947
       6    0.013194  0.006737 -0.005684  0.000962  0.002947  0.057469
-------------------------------------------------------------------------------

  Mechanical properties :

-------------------------------------------------------------------------------
  Convention :                    Reuss         Voigt         Hill
-------------------------------------------------------------------------------
  Bulk  Modulus (GPa)     =      11.38476      14.58030      12.98253
  Shear Modulus (GPa)     =       9.27857      12.06283      10.67070
-------------------------------------------------------------------------------
  Velocity S-wave (km/s)  =       1.83588       2.09328       1.96879
  Velocity P-wave (km/s)  =       2.93759       3.33747       3.14390
-------------------------------------------------------------------------------
  Compressibility (1/GPa) =    0.08783670
-------------------------------------------------------------------------------
  Stress axis :                     x             y             z
-------------------------------------------------------------------------------
  Youngs Moduli (GPa)     =      20.32242      26.53883      11.55781
-------------------------------------------------------------------------------
  Poissons Ratio (x)      =                     0.33868       0.26774
  Poissons Ratio (y)      =       0.25935                     0.07928
  Poissons Ratio (z)      =       0.47077       0.18204
-------------------------------------------------------------------------------


  Piezoelectric Strain Matrix: (Units=C/m**2)

-------------------------------------------------------------------------------
  Indices      1         2         3         4         5         6    
-------------------------------------------------------------------------------
       x    -0.26253  -0.39529  -0.40099   0.05615   0.11530   0.00672
       y    -0.38450  -0.94621  -0.80210  -0.34526   0.51764   0.16509
       z     0.06751   0.22633   0.22437  -0.08760   0.18433  -0.13388
-------------------------------------------------------------------------------


  Piezoelectric Stress Matrix: (Units=10**-11 C/N)

-------------------------------------------------------------------------------
  Indices      1         2         3         4         5         6    
-------------------------------------------------------------------------------
       x     0.17377  -0.89115  -2.55702   0.56597   0.81173  -0.30674
       y     1.70392  -2.59429  -5.77684  -4.53128   3.11173   0.37926
       z    -0.55402   0.46451   1.63153  -0.76218   1.01249  -0.60946
-------------------------------------------------------------------------------


  Static dielectric constant tensor : 

-------------------------------------------------------------------------------
              x         y         z
-------------------------------------------------------------------------------
       x     5.33248   0.07017  -0.06237
       y     0.07017   6.61585  -0.00865
       z    -0.06237  -0.00865   4.19086
--------------------------------------------------------------------------------

  High frequency dielectric constant tensor : 

-------------------------------------------------------------------------------
              x         y         z
-------------------------------------------------------------------------------
       x     1.55176  -0.00325   0.00158
       y    -0.00325   1.55746  -0.00034
       z     0.00158  -0.00034   1.51009
-------------------------------------------------------------------------------

  Static refractive indices : 

-------------------------------------------------------------------------------
    1 =    2.04633      2 =    2.30911      3 =    2.57288
-------------------------------------------------------------------------------

  High frequency refractive indices : 

-------------------------------------------------------------------------------
    1 =    1.22883      2 =    1.24512      3 =    1.24858
-------------------------------------------------------------------------------


  Time to end of optimisation =       7.4987 seconds


  Peak dynamic memory used =       5.01 MB 


  Timing analysis for GULP :

--------------------------------------------------------------------------------
  Task / Subroutine                                          Time (Seconds)
--------------------------------------------------------------------------------
  Calculation of reciprocal space energy and derivatives          0.5062
  Calculation of real space energy and derivatives                5.4802
  Calculation of three-body energy and derivatives                0.0793
  Calculation and manipulation of Hessian matrix                  1.8847
  Calculation of matrix inversion                                 0.0267
  Global summation overhead                                       0.0001
--------------------------------------------------------------------------------
  Total CPU time                                                  7.4987
--------------------------------------------------------------------------------


  Dump file written as c00595.vasp.grs
  CIF file written as c00595.vasp.cif


  Job Finished at 13:41.27 31st October    2025                               

