********************************************************************************
*                       GENERAL UTILITY LATTICE PROGRAM                        *
*                                 Julian Gale                                  *
*                       Curtin Institute for Computation                       *
*                    School of Molecular and Life Sciences                     *
*                    Curtin University, Western Australia                      *
********************************************************************************
* Version = 6.1.2 * Last modified =   3rd November 2022                        *
********************************************************************************
*  optimise     - perform optimisation run                                     *
*  conp         - constant pressure calculation                                *
*  property     - calculate properties for final geometry                      *
********************************************************************************

  Job Started  at 13:52.17 31st October    2025                               

  Number of CPUs =     1


  Total number of configurations input =      1

********************************************************************************
*  Input for Configuration =   1 : c00664.vasp                                 *
********************************************************************************

  Formula = Ge20Si4O48                                                  

  Number of irreducible atoms/shells =     120


  Total number atoms/shells =     120

  Dimensionality = 3               :  Bulk   



  Cartesian lattice vectors (Angstroms) :

       17.182800    0.000000    0.000000
        0.000000    7.513760    0.000000
        0.000000    0.000000   10.447700

  Cell parameters (Angstroms/Degrees):

  a =      17.1828    alpha =  90.0000
  b =       7.5138    beta  =  90.0000
  c =      10.4477    gamma =  90.0000

  Initial cell volume =        1348.875752 Angs**3

  Temperature of configuration =   0.00     K 

  Pressure of configuration =         0.000 GPa 

  Fractional coordinates of asymmetric unit :

--------------------------------------------------------------------------------
   No.  Atomic       x           y          z         Charge      Occupancy
        Label      (Frac)      (Frac)     (Frac)        (e)         (Frac)  
--------------------------------------------------------------------------------
      1 Ge    c    0.052090    0.000000    0.372270     4.00000    1.000000    
      2 Ge    c    0.447910 *  0.000000 *  0.372270 *   4.00000    1.000000    
      3 Ge    c    0.947910 *  0.000000 *  0.627730 *   4.00000    1.000000    
      4 Ge    c    0.556730 *  0.000000 *  0.122130 *   4.00000    1.000000    
      5 Ge    c    0.943270 *  0.000000 *  0.122130 *   4.00000    1.000000    
      6 Ge    c    0.443270 *  0.000000 *  0.877870 *   4.00000    1.000000    
      7 Ge    c    0.056730 *  0.000000 *  0.877870 *   4.00000    1.000000    
      8 Ge    c    0.160190 *  0.293910 *  0.273440 *   4.00000    1.000000    
      9 Ge    c    0.339810 *  0.706090 *  0.273440 *   4.00000    1.000000    
     10 Ge    c    0.839810 *  0.293910 *  0.726560 *   4.00000    1.000000    
     11 Ge    c    0.660190 *  0.706090 *  0.726560 *   4.00000    1.000000    
     12 Ge    c    0.839810 *  0.706090 *  0.726560 *   4.00000    1.000000    
     13 Ge    c    0.660190 *  0.293910 *  0.726560 *   4.00000    1.000000    
     14 Ge    c    0.160190 *  0.706090 *  0.273440 *   4.00000    1.000000    
     15 Ge    c    0.339810 *  0.293910 *  0.273440 *   4.00000    1.000000    
     16 Ge    c    0.660660 *  0.294090 *  0.017440 *   4.00000    1.000000    
     17 Ge    c    0.839340 *  0.705910 *  0.017440 *   4.00000    1.000000    
     18 Ge    c    0.160660 *  0.705910 *  0.982560 *   4.00000    1.000000    
     19 Ge    c    0.160660 *  0.294090 *  0.982560 *   4.00000    1.000000    
     20 Ge    c    0.839340 *  0.294090 *  0.017440 *   4.00000    1.000000    
     21 Si    c    0.552090 *  0.000000 *  0.627730 *   4.00000    1.000000    
     22 Si    c    0.339340 *  0.294090 *  0.982560 *   4.00000    1.000000    
     23 Si    c    0.339340 *  0.705910 *  0.982560 *   4.00000    1.000000    
     24 Si    c    0.660660 *  0.705910 *  0.017440 *   4.00000    1.000000    
     25 O1    c    0.106570 *  0.174340 *  0.366200 *   1.73396    1.000000    
     26 O1    c    0.393430 *  0.825660 *  0.366200 *   1.73396    1.000000    
     27 O1    c    0.893430 *  0.174340 *  0.633800 *   1.73396    1.000000    
     28 O3    c    0.606570 *  0.825660 *  0.633800 *   1.33043    1.000000    
     29 O1    c    0.893430 *  0.825660 *  0.633800 *   1.73396    1.000000    
     30 O3    c    0.606570 *  0.174340 *  0.633800 *   1.33043    1.000000    
     31 O1    c    0.106570 *  0.825660 *  0.366200 *   1.73396    1.000000    
     32 O1    c    0.393430 *  0.174340 *  0.366200 *   1.73396    1.000000    
     33 O1    c    0.000000 *  0.000000 *  0.500000 *   1.73396    1.000000    
     34 O3    c    0.500000 *  0.000000 *  0.500000 *   1.33043    1.000000    
     35 O1    c    0.994520 *  0.000000 *  0.250840 *   1.73396    1.000000    
     36 O1    c    0.505480 *  0.000000 *  0.250840 *   1.73396    1.000000    
     37 O1    c    0.005480 *  0.000000 *  0.749160 *   1.73396    1.000000    
     38 O3    c    0.494520 *  0.000000 *  0.749160 *   1.33043    1.000000    
     39 O1    c    0.610230 *  0.175520 *  0.115390 *   1.73396    1.000000    
     40 O1    c    0.889770 *  0.824480 *  0.115390 *   1.73396    1.000000    
     41 O3    c    0.389770 *  0.175520 *  0.884610 *   1.33043    1.000000    
     42 O1    c    0.110230 *  0.824480 *  0.884610 *   1.73396    1.000000    
     43 O3    c    0.389770 *  0.824480 *  0.884610 *   1.33043    1.000000    
     44 O1    c    0.110230 *  0.175520 *  0.884610 *   1.73396    1.000000    
     45 O3    c    0.610230 *  0.824480 *  0.115390 *   1.33043    1.000000    
     46 O1    c    0.889770 *  0.175520 *  0.115390 *   1.73396    1.000000    
     47 O1    c    0.500000 *  0.000000 *  0.000000 *   1.73396    1.000000    
     48 O1    c    0.000000 *  0.000000 *  0.000000 *   1.73396    1.000000    
     49 O1    c    0.151750 *  0.500000 *  0.313330 *   1.73396    1.000000    
     50 O1    c    0.348250 *  0.500000 *  0.313330 *   1.73396    1.000000    
     51 O1    c    0.848250 *  0.500000 *  0.686670 *   1.73396    1.000000    
     52 O1    c    0.651750 *  0.500000 *  0.686670 *   1.73396    1.000000    
     53 O1    c    0.250000 *  0.234950 *  0.285720 *   1.73396    1.000000    
     54 O1    c    0.250000 *  0.765050 *  0.285720 *   1.73396    1.000000    
     55 O1    c    0.750000 *  0.234950 *  0.714280 *   1.73396    1.000000    
     56 O1    c    0.750000 *  0.765050 *  0.714280 *   1.73396    1.000000    
     57 O1    c    0.131410 *  0.268650 *  0.127790 *   1.73396    1.000000    
     58 O3    c    0.368590 *  0.731350 *  0.127790 *   1.33043    1.000000    
     59 O1    c    0.868590 *  0.268650 *  0.872210 *   1.73396    1.000000    
     60 O3    c    0.631410 *  0.731350 *  0.872210 *   1.33043    1.000000    
     61 O1    c    0.868590 *  0.731350 *  0.872210 *   1.73396    1.000000    
     62 O1    c    0.631410 *  0.268650 *  0.872210 *   1.73396    1.000000    
     63 O1    c    0.131410 *  0.731350 *  0.127790 *   1.73396    1.000000    
     64 O3    c    0.368590 *  0.268650 *  0.127790 *   1.33043    1.000000    
     65 O3    c    0.653920 *  0.500000 *  0.058200 *   1.33043    1.000000    
     66 O1    c    0.846080 *  0.500000 *  0.058200 *   1.73396    1.000000    
     67 O2    c    0.346080 *  0.500000 *  0.941800 *   0.87073    1.000000    
     68 O1    c    0.153920 *  0.500000 *  0.941800 *   1.73396    1.000000    
     69 O1    c    0.750000 *  0.231060 *  0.027050 *   1.73396    1.000000    
     70 O3    c    0.750000 *  0.768940 *  0.027050 *   1.33043    1.000000    
     71 O3    c    0.250000 *  0.231060 *  0.972950 *   1.33043    1.000000    
     72 O3    c    0.250000 *  0.768940 *  0.972950 *   1.33043    1.000000    
     73 O1    s    0.106570 *  0.174340 *  0.366200 *  -3.73396    1.000000    
     74 O1    s    0.393430 *  0.825660 *  0.366200 *  -3.73396    1.000000    
     75 O1    s    0.893430 *  0.174340 *  0.633800 *  -3.73396    1.000000    
     76 O3    s    0.606570 *  0.825660 *  0.633800 *  -3.33043    1.000000    
     77 O1    s    0.893430 *  0.825660 *  0.633800 *  -3.73396    1.000000    
     78 O3    s    0.606570 *  0.174340 *  0.633800 *  -3.33043    1.000000    
     79 O1    s    0.106570 *  0.825660 *  0.366200 *  -3.73396    1.000000    
     80 O1    s    0.393430 *  0.174340 *  0.366200 *  -3.73396    1.000000    
     81 O1    s    0.000000 *  0.000000 *  0.500000 *  -3.73396    1.000000    
     82 O3    s    0.500000 *  0.000000 *  0.500000 *  -3.33043    1.000000    
     83 O1    s    0.994520 *  0.000000 *  0.250840 *  -3.73396    1.000000    
     84 O1    s    0.505480 *  0.000000 *  0.250840 *  -3.73396    1.000000    
     85 O1    s    0.005480 *  0.000000 *  0.749160 *  -3.73396    1.000000    
     86 O3    s    0.494520 *  0.000000 *  0.749160 *  -3.33043    1.000000    
     87 O1    s    0.610230 *  0.175520 *  0.115390 *  -3.73396    1.000000    
     88 O1    s    0.889770 *  0.824480 *  0.115390 *  -3.73396    1.000000    
     89 O3    s    0.389770 *  0.175520 *  0.884610 *  -3.33043    1.000000    
     90 O1    s    0.110230 *  0.824480 *  0.884610 *  -3.73396    1.000000    
     91 O3    s    0.389770 *  0.824480 *  0.884610 *  -3.33043    1.000000    
     92 O1    s    0.110230 *  0.175520 *  0.884610 *  -3.73396    1.000000    
     93 O3    s    0.610230 *  0.824480 *  0.115390 *  -3.33043    1.000000    
     94 O1    s    0.889770 *  0.175520 *  0.115390 *  -3.73396    1.000000    
     95 O1    s    0.500000 *  0.000000 *  0.000000 *  -3.73396    1.000000    
     96 O1    s    0.000000 *  0.000000 *  0.000000 *  -3.73396    1.000000    
     97 O1    s    0.151750 *  0.500000 *  0.313330 *  -3.73396    1.000000    
     98 O1    s    0.348250 *  0.500000 *  0.313330 *  -3.73396    1.000000    
     99 O1    s    0.848250 *  0.500000 *  0.686670 *  -3.73396    1.000000    
    100 O1    s    0.651750 *  0.500000 *  0.686670 *  -3.73396    1.000000    
    101 O1    s    0.250000 *  0.234950 *  0.285720 *  -3.73396    1.000000    
    102 O1    s    0.250000 *  0.765050 *  0.285720 *  -3.73396    1.000000    
    103 O1    s    0.750000 *  0.234950 *  0.714280 *  -3.73396    1.000000    
    104 O1    s    0.750000 *  0.765050 *  0.714280 *  -3.73396    1.000000    
    105 O1    s    0.131410 *  0.268650 *  0.127790 *  -3.73396    1.000000    
    106 O3    s    0.368590 *  0.731350 *  0.127790 *  -3.33043    1.000000    
    107 O1    s    0.868590 *  0.268650 *  0.872210 *  -3.73396    1.000000    
    108 O3    s    0.631410 *  0.731350 *  0.872210 *  -3.33043    1.000000    
    109 O1    s    0.868590 *  0.731350 *  0.872210 *  -3.73396    1.000000    
    110 O1    s    0.631410 *  0.268650 *  0.872210 *  -3.73396    1.000000    
    111 O1    s    0.131410 *  0.731350 *  0.127790 *  -3.73396    1.000000    
    112 O3    s    0.368590 *  0.268650 *  0.127790 *  -3.33043    1.000000    
    113 O3    s    0.653920 *  0.500000 *  0.058200 *  -3.33043    1.000000    
    114 O1    s    0.846080 *  0.500000 *  0.058200 *  -3.73396    1.000000    
    115 O2    s    0.346080 *  0.500000 *  0.941800 *  -2.87073    1.000000    
    116 O1    s    0.153920 *  0.500000 *  0.941800 *  -3.73396    1.000000    
    117 O1    s    0.750000 *  0.231060 *  0.027050 *  -3.73396    1.000000    
    118 O3    s    0.750000 *  0.768940 *  0.027050 *  -3.33043    1.000000    
    119 O3    s    0.250000 *  0.231060 *  0.972950 *  -3.33043    1.000000    
    120 O3    s    0.250000 *  0.768940 *  0.972950 *  -3.33043    1.000000    
--------------------------------------------------------------------------------



********************************************************************************
*  General input information                                                   *
********************************************************************************

  Species output for all configurations : 

--------------------------------------------------------------------------------
  Species    Type    Atomic    Atomic    Charge       Radii (Angs)     Library
                     Number     Mass       (e)     Cova   Ionic  VDW   Symbol
--------------------------------------------------------------------------------
    Ge       Core       32      72.61   4.000000   1.170  0.000  1.750 Ge       
    Si       Core       14      28.09   4.000000   1.200  0.000  2.100 Si       
    O1       Core        8      16.00   1.733957   0.730  0.000  1.360 O1       
    O2       Core        8      16.00   0.870733   0.730  0.000  1.360 O2       
    O3       Core        8      16.00   1.330431   0.730  0.000  1.360 O3       
    O1       Shell       8       0.00  -3.733957   0.730  0.000  0.000 O1       
    O2       Shell       8       0.00  -2.870733   0.730  0.000  0.000 O2       
    O3       Shell       8       0.00  -3.330431   0.730  0.000  0.000 O3       
--------------------------------------------------------------------------------


  Lattice summation method               =    Ewald          (3-D)
                                         =    Parry          (2-D)
                                         =    Saunders et al (1-D)
  Accuracy factor for lattice sums       =   12.000


  Analytic derivatives to be used

  Time limit = Infinity

  Maximum range for interatomic potentials =    100000.000000 Angstroms

  General interatomic potentials :

--------------------------------------------------------------------------------
Atom  Types   Potential      Parameter       Value         Units   Cutoffs(Ang)
  1     2                                                            Min /  Max 
--------------------------------------------------------------------------------
Si   c O1   s Buckingham    Buckingham A     1315.2478    eV        0.000 16.000
                            Buckingham rho  0.31775900    Ang       
                            Buckingham C     10.141118    eV*Ang^6  
--------------------------------------------------------------------------------
Si   c O2   s Buckingham    Buckingham A     1315.2478    eV        0.000 16.000
                            Buckingham rho  0.31775900    Ang       
                            Buckingham C     10.141118    eV*Ang^6  
--------------------------------------------------------------------------------
Si   c O3   s Buckingham    Buckingham A     1315.2478    eV        0.000 16.000
                            Buckingham rho  0.31775900    Ang       
                            Buckingham C     10.141118    eV*Ang^6  
--------------------------------------------------------------------------------
Ge   c O1   s Buckingham    Buckingham A     1497.3996    eV        0.000 16.000
                            Buckingham rho  0.32564600    Ang       
                            Buckingham C     16.808599    eV*Ang^6  
--------------------------------------------------------------------------------
Ge   c O2   s Buckingham    Buckingham A     1497.3996    eV        0.000 16.000
                            Buckingham rho  0.32564600    Ang       
                            Buckingham C     16.808599    eV*Ang^6  
--------------------------------------------------------------------------------
Ge   c O3   s Buckingham    Buckingham A     1497.3996    eV        0.000 16.000
                            Buckingham rho  0.32564600    Ang       
                            Buckingham C     16.808599    eV*Ang^6  
--------------------------------------------------------------------------------
O1   s O1   s Buckingham    Buckingham A     22764.000    eV        0.000 16.000
                            Buckingham rho  0.14900000    Ang       
                            Buckingham C     10.937044    eV*Ang^6  
--------------------------------------------------------------------------------
O1   s O2   s Buckingham    Buckingham A     22764.000    eV        0.000 16.000
                            Buckingham rho  0.14900000    Ang       
                            Buckingham C     10.937044    eV*Ang^6  
--------------------------------------------------------------------------------
O1   s O3   s Buckingham    Buckingham A     22764.000    eV        0.000 16.000
                            Buckingham rho  0.14900000    Ang       
                            Buckingham C     10.937044    eV*Ang^6  
--------------------------------------------------------------------------------
O2   s O2   s Buckingham    Buckingham A     22764.000    eV        0.000 16.000
                            Buckingham rho  0.14900000    Ang       
                            Buckingham C     10.937044    eV*Ang^6  
--------------------------------------------------------------------------------
O2   s O3   s Buckingham    Buckingham A     22764.000    eV        0.000 16.000
                            Buckingham rho  0.14900000    Ang       
                            Buckingham C     10.937044    eV*Ang^6  
--------------------------------------------------------------------------------
O3   s O3   s Buckingham    Buckingham A     22764.000    eV        0.000 16.000
                            Buckingham rho  0.14900000    Ang       
                            Buckingham C     10.937044    eV*Ang^6  
--------------------------------------------------------------------------------
O1   c O1   s Spring (c-s)  Spring k 2       180.31577    eV*Ang^-2 0.000  0.800
                            Spring k 4       0.0000000    eV*Ang^-4 
--------------------------------------------------------------------------------
O2   c O2   s Spring (c-s)  Spring k 2       75.969800    eV*Ang^-2 0.000  0.800
                            Spring k 4       0.0000000    eV*Ang^-4 
--------------------------------------------------------------------------------
O3   c O3   s Spring (c-s)  Spring k 2       128.14270    eV*Ang^-2 0.000  0.800
                            Spring k 4       0.0000000    eV*Ang^-4 
--------------------------------------------------------------------------------

  General Three-body potentials :

--------------------------------------------------------------------------------
  Atoms       Potential      Parameter       Value         Units   Cutoffs(Ang)
  1 / 2 / 3                                                          Min /  Max 
--------------------------------------------------------------------------------
Si    core    Harmonic      Three-body cnst  1.2614000    eV*rad^-2 0.000  1.900
O1    shel                  Three-body angl  109.47000    degrees   0.000  1.900
O1    shel                  Three-body k4    0.0000000    eV*rad^-4 0.000  3.500
                            Three-body k3    0.0000000    eV*rad^-3 
--------------------------------------------------------------------------------
Si    core    Harmonic      Three-body cnst  1.2614000    eV*rad^-2 0.000  1.900
O1    shel                  Three-body angl  109.47000    degrees   0.000  1.900
õ(1   shel                  Three-body k4    0.0000000    eV*rad^-4 0.000  3.500
                            Three-body k3    0.0000000    eV*rad^-3 
--------------------------------------------------------------------------------
Si    core    Harmonic      Three-body cnst  1.2614000    eV*rad^-2 0.000  1.900
õ(1   shel                  Three-body angl  109.47000    degrees   0.000  1.900
õ(1   shel                  Three-body k4    0.0000000    eV*rad^-4 0.000  3.500
                            Three-body k3    0.0000000    eV*rad^-3 
--------------------------------------------------------------------------------
Si    core    Harmonic      Three-body cnst  1.2614000    eV*rad^-2 0.000  1.900
O1    shel                  Three-body angl  109.47000    degrees   0.000  1.900
O2    shel                  Three-body k4    0.0000000    eV*rad^-4 0.000  3.500
                            Three-body k3    0.0000000    eV*rad^-3 
--------------------------------------------------------------------------------
Si    core    Harmonic      Three-body cnst  1.2614000    eV*rad^-2 0.000  1.900
O1    shel                  Three-body angl  109.47000    degrees   0.000  1.900
õ(2   shel                  Three-body k4    0.0000000    eV*rad^-4 0.000  3.500
                            Three-body k3    0.0000000    eV*rad^-3 
--------------------------------------------------------------------------------
Si    core    Harmonic      Three-body cnst  1.2614000    eV*rad^-2 0.000  1.900
O2    shel                  Three-body angl  109.47000    degrees   0.000  1.900
õ(1   shel                  Three-body k4    0.0000000    eV*rad^-4 0.000  3.500
                            Three-body k3    0.0000000    eV*rad^-3 
--------------------------------------------------------------------------------
Si    core    Harmonic      Three-body cnst  1.2614000    eV*rad^-2 0.000  1.900
õ(1   shel                  Three-body angl  109.47000    degrees   0.000  1.900
õ(2   shel                  Three-body k4    0.0000000    eV*rad^-4 0.000  3.500
                            Three-body k3    0.0000000    eV*rad^-3 
--------------------------------------------------------------------------------
Si    core    Harmonic      Three-body cnst  1.2614000    eV*rad^-2 0.000  1.900
O2    shel                  Three-body angl  109.47000    degrees   0.000  1.900
O2    shel                  Three-body k4    0.0000000    eV*rad^-4 0.000  3.500
                            Three-body k3    0.0000000    eV*rad^-3 
--------------------------------------------------------------------------------
Si    core    Harmonic      Three-body cnst  1.2614000    eV*rad^-2 0.000  1.900
O2    shel                  Three-body angl  109.47000    degrees   0.000  1.900
õ(2   shel                  Three-body k4    0.0000000    eV*rad^-4 0.000  3.500
                            Three-body k3    0.0000000    eV*rad^-3 
--------------------------------------------------------------------------------
Si    core    Harmonic      Three-body cnst  1.2614000    eV*rad^-2 0.000  1.900
õ(2   shel                  Three-body angl  109.47000    degrees   0.000  1.900
õ(2   shel                  Three-body k4    0.0000000    eV*rad^-4 0.000  3.500
                            Three-body k3    0.0000000    eV*rad^-3 
--------------------------------------------------------------------------------

********************************************************************************
*  Output for configuration   1 : c00664.vasp                                  *
********************************************************************************


  Components of energy : 

--------------------------------------------------------------------------------
  Interatomic potentials     =         896.58133343 eV    
  Three-body potentials      =           0.00000000 eV    
  Monopole - monopole (real) =       -2676.00317478 eV    
  Monopole - monopole (recip)=       -1115.35404472 eV    
  Monopole - monopole (total)=       -3791.35721950 eV    
--------------------------------------------------------------------------------
  Total lattice energy       =       -2894.77588607 eV    
--------------------------------------------------------------------------------
  Total lattice energy       =         -279301.6223 kJ/(mole unit cells)
--------------------------------------------------------------------------------


  Number of variables =      363

  Maximum number of calculations  =          1000
  Maximum Hessian update interval =            10
  Maximum step size               =   0.100000000
  Maximum parameter tolerance     =   0.000010000
  Maximum function  tolerance     =   0.000010000
  Maximum gradient  tolerance     =   0.001000000
  Maximum gradient  component     =   0.010000000

  Symmetry not applied to optimisation

  Cell parameters to be optimised using strains

  Newton-Raphson optimiser to be used

  BFGS hessian update to be used

  Lower half triangular hessian to be used

  Minimiser to switch to RFO
  When gradient norm is less than     0.050000

  Dumpfile to be written after every cycle

  Start of bulk optimisation :

  Cycle:      0 Energy:     -2894.775886  Gnorm:      5.840736  CPU:    0.099
  ** Hessian calculated **
  Cycle:      1 Energy:     -2938.322308  Gnorm:      1.412817  CPU:    0.216
  ** Hessian calculated **
  Cycle:      2 Energy:     -2943.233228  Gnorm:      0.806227  CPU:    0.392
  Cycle:      3 Energy:     -2944.179309  Gnorm:      0.399549  CPU:    0.474
  Cycle:      4 Energy:     -2944.697357  Gnorm:      0.325166  CPU:    0.572
  Cycle:      5 Energy:     -2945.334765  Gnorm:      0.268612  CPU:    0.669
  Cycle:      6 Energy:     -2945.999387  Gnorm:      0.222713  CPU:    0.764
  Cycle:      7 Energy:     -2946.321705  Gnorm:      0.155283  CPU:    0.845
  Cycle:      8 Energy:     -2946.436443  Gnorm:      0.109266  CPU:    0.926
  Cycle:      9 Energy:     -2946.485537  Gnorm:      0.082689  CPU:    1.021
  Cycle:     10 Energy:     -2946.520213  Gnorm:      0.076230  CPU:    1.116
  Cycle:     11 Energy:     -2946.557996  Gnorm:      0.079752  CPU:    1.211
  ** Hessian calculated **
  Cycle:     12 Energy:     -2946.584121  Gnorm:      0.078052  CPU:    1.386
  Cycle:     13 Energy:     -2946.629959  Gnorm:      0.074925  CPU:    1.495
  Cycle:     14 Energy:     -2946.695300  Gnorm:      0.070046  CPU:    1.590
  Cycle:     15 Energy:     -2946.800139  Gnorm:      0.061111  CPU:    1.700
  Cycle:     16 Energy:     -2946.898442  Gnorm:      0.050888  CPU:    1.795
  Cycle:     17 Energy:     -2946.958356  Gnorm:      0.044273  CPU:    1.890
  ** Hessian has wrong structure
  ** Imaginary eigenvectors =   7
  Cycle:     18 Energy:     -2947.010534  Gnorm:      0.104086  CPU:    2.100
  ** Hessian has wrong structure
  ** Imaginary eigenvectors =   4
  ** Hessian has wrong structure
  ** Imaginary eigenvectors =   4
  Cycle:     19 Energy:     -2947.041321  Gnorm:      0.111585  CPU:    2.553
  ** Hessian has wrong structure
  ** Imaginary eigenvectors =   3
  Cycle:     20 Energy:     -2947.189861  Gnorm:      0.131480  CPU:    2.865
  ** Hessian has required structure
  Cycle:     21 Energy:     -2947.546000  Gnorm:      0.097001  CPU:    3.138
  ** Hessian has required structure
  Cycle:     22 Energy:     -2947.692310  Gnorm:      0.060121  CPU:    3.286
  ** Hessian has required structure
  Cycle:     23 Energy:     -2947.786750  Gnorm:      0.060845  CPU:    3.430
  ** Hessian has required structure
  Cycle:     24 Energy:     -2947.830182  Gnorm:      0.047505  CPU:    3.583
  ** Hessian has required structure
  Cycle:     25 Energy:     -2947.867712  Gnorm:      0.049610  CPU:    3.752
  ** Hessian has required structure
  Cycle:     26 Energy:     -2947.885220  Gnorm:      0.047776  CPU:    3.905
  ** Hessian has required structure
  Cycle:     27 Energy:     -2947.894343  Gnorm:      0.026947  CPU:    4.041
  ** Hessian has required structure
  Cycle:     28 Energy:     -2947.901039  Gnorm:      0.021970  CPU:    4.212
  ** Hessian has required structure
  Cycle:     29 Energy:     -2947.903167  Gnorm:      0.012688  CPU:    4.364
  ** Hessian has required structure
  Cycle:     30 Energy:     -2947.904131  Gnorm:      0.008014  CPU:    4.517
  ** Hessian has required structure
  Cycle:     31 Energy:     -2947.905227  Gnorm:      0.004089  CPU:    4.769
  ** Hessian has required structure
  Cycle:     32 Energy:     -2947.905485  Gnorm:      0.002511  CPU:    4.901
  ** Hessian has required structure
  Cycle:     33 Energy:     -2947.905592  Gnorm:      0.001522  CPU:    5.037
  ** Hessian has required structure
  Cycle:     34 Energy:     -2947.905645  Gnorm:      0.000771  CPU:    5.187
  ** Hessian has required structure
  Cycle:     35 Energy:     -2947.905657  Gnorm:      0.000490  CPU:    5.328
  ** Hessian has required structure
  Cycle:     36 Energy:     -2947.905663  Gnorm:      0.000245  CPU:    5.477
  ** Hessian has required structure
  Cycle:     37 Energy:     -2947.905663  Gnorm:      0.000219  CPU:    5.603
  ** Hessian has required structure
  Cycle:     38 Energy:     -2947.905664  Gnorm:      0.000206  CPU:    5.724
  ** Hessian has required structure
  Cycle:     39 Energy:     -2947.905664  Gnorm:      0.000207  CPU:    5.896
  ** Hessian has required structure
  Cycle:     40 Energy:     -2947.905664  Gnorm:      0.000203  CPU:    6.015
  ** Hessian has required structure
  Cycle:     41 Energy:     -2947.905664  Gnorm:      0.000198  CPU:    6.233
  ** Hessian has required structure
  Cycle:     42 Energy:     -2947.905664  Gnorm:      0.000196  CPU:    6.361
  ** Hessian has required structure
  Cycle:     43 Energy:     -2947.905664  Gnorm:      0.000195  CPU:    6.480
  ** Hessian has required structure
  Cycle:     44 Energy:     -2947.905664  Gnorm:      0.000195  CPU:    6.605
  ** Hessian has required structure
  Cycle:     45 Energy:     -2947.905664  Gnorm:      0.000194  CPU:    6.727
  ** Hessian has required structure
  Cycle:     46 Energy:     -2947.905664  Gnorm:      0.000194  CPU:    6.847
  ** Hessian has required structure
  Cycle:     47 Energy:     -2947.905664  Gnorm:      0.000194  CPU:    6.972
  ** Hessian has required structure
  Cycle:     48 Energy:     -2947.905664  Gnorm:      0.000194  CPU:    7.092
  ** Hessian has required structure
  Cycle:     49 Energy:     -2947.905664  Gnorm:      0.000194  CPU:    7.218
  ** Hessian has required structure
  Cycle:     50 Energy:     -2947.905664  Gnorm:      0.000194  CPU:    7.340
  ** Hessian has required structure
  Cycle:     51 Energy:     -2947.905664  Gnorm:      0.000194  CPU:    7.646
  ** Hessian calculated **
  Cycle:     52 Energy:     -2947.905664  Gnorm:      0.000101  CPU:    7.797
  ** Hessian has required structure
  Cycle:     53 Energy:     -2947.905664  Gnorm:      0.000156  CPU:    7.918
  ** Hessian has required structure
  Cycle:     54 Energy:     -2947.905664  Gnorm:      0.000168  CPU:    8.037
  ** Hessian has required structure
  Cycle:     55 Energy:     -2947.905664  Gnorm:      0.000159  CPU:    8.162
  ** Hessian has required structure
  Cycle:     56 Energy:     -2947.905664  Gnorm:      0.000144  CPU:    8.285
  ** Hessian has required structure
  Cycle:     57 Energy:     -2947.905664  Gnorm:      0.000158  CPU:    8.406
  ** Hessian has required structure
  Cycle:     58 Energy:     -2947.905664  Gnorm:      0.000158  CPU:    8.526
  ** Hessian has required structure
  Cycle:     59 Energy:     -2947.905664  Gnorm:      0.000139  CPU:    8.647
  ** Hessian has required structure


  **** Optimisation achieved ****


  Final energy =   -2947.90566397 eV      
  Final Gnorm  =       0.00012864

  Components of energy : 

--------------------------------------------------------------------------------
  Interatomic potentials     =         779.51782969 eV    
  Three-body potentials      =           0.00000000 eV    
  Monopole - monopole (real) =       -1561.01908161 eV    
  Monopole - monopole (recip)=       -2166.40441205 eV    
  Monopole - monopole (total)=       -3727.42349366 eV    
--------------------------------------------------------------------------------
  Total lattice energy       =       -2947.90566397 eV    
--------------------------------------------------------------------------------
  Total lattice energy       =         -284427.8337 kJ/(mole unit cells)
--------------------------------------------------------------------------------

  Final fractional coordinates of atoms :

--------------------------------------------------------------------------------
   No.  Atomic        x           y          z          Radius
        Label       (Frac)      (Frac)     (Frac)       (Angs) 
--------------------------------------------------------------------------------
     1  Ge    c     0.052090    0.000000    0.372270    0.000000
     2  Ge    c     0.451158    0.054131    0.386607    0.000000
     3  Ge    c     0.946170    0.059323    0.620208    0.000000
     4  Ge    c     0.553262    0.003399    0.125989    0.000000
     5  Ge    c     0.955424    0.072270    0.112949    0.000000
     6  Ge    c     0.442520    0.052739    0.877652    0.000000
     7  Ge    c     0.059654    0.999788    0.860284    0.000000
     8  Ge    c     0.176995    0.280595    0.297080    0.000000
     9  Ge    c     0.327613    0.777060    0.296530    0.000000
    10  Ge    c     0.849357    0.370042    0.738147    0.000000
    11  Ge    c     0.642068    0.696940    0.747301    0.000000
    12  Ge    c     0.823173    0.773784    0.732389    0.000000
    13  Ge    c     0.667870    0.291195    0.744859    0.000000
    14  Ge    c     0.148480    0.685891    0.297704    0.000000
    15  Ge    c     0.357030    0.366390    0.299502    0.000000
    16  Ge    c     0.673296    0.301317    0.061091    0.000000
    17  Ge    c     0.829062    0.783717    0.046507    0.000000
    18  Ge    c     0.150527    0.684172    0.981081    0.000000
    19  Ge    c     0.177964    0.284270    0.983006    0.000000
    20  Ge    c     0.853034    0.382672    0.058737    0.000000
    21  Si    c     0.548086    0.003679    0.638713    0.000000
    22  Si    c     0.356737    0.366572    0.995857    0.000000
    23  Si    c     0.329401    0.762383    0.990092    0.000000
    24  Si    c     0.652777    0.698101    0.054762    0.000000
    25  O1    c     0.127091    0.143373    0.395739    0.000000
    26  O1    c     0.374371    0.913854    0.400362    0.000000
    27  O1    c     0.918664    0.263001    0.656744    0.000000
    28  O3    c     0.571003    0.811204    0.674584    0.000000
    29  O1    c     0.870042    0.921019    0.637693    0.000000
    30  O3    c     0.618813    0.134147    0.658777    0.000000
    31  O1    c     0.083374    0.794565    0.388702    0.000000
    32  O1    c     0.421188    0.261377    0.394352    0.000000
    33  O1    c     0.973822    0.047938    0.459544    0.000000
    34  O3    c     0.525579    0.011198    0.487368    0.000000
    35  O1    c     0.028798    0.020043    0.208957    0.000000
    36  O1    c     0.479547    0.014980    0.229076    0.000000
    37  O1    c     0.027161    0.004712    0.703027    0.000000
    38  O3    c     0.472996    0.055431    0.717537    0.000000
    39  O1    c     0.619564    0.166578    0.155439    0.000000
    40  O1    c     0.877595    0.934939    0.134087    0.000000
    41  O3    c     0.411338    0.259907    0.903946    0.000000
    42  O1    c     0.085643    0.793357    0.893137    0.000000
    43  O3    c     0.372221    0.894551    0.895120    0.000000
    44  O1    c     0.139455    0.128889    0.884415    0.000000
    45  O3    c     0.596184    0.805785    0.141586    0.000000
    46  O1    c     0.922367    0.275515    0.138973    0.000000
    47  O1    c     0.520727    0.014138    0.968535    0.000000
    48  O1    c     0.985148    0.064492    0.953311    0.000000
    49  O1    c     0.163099    0.486113    0.355824    0.000000
    50  O1    c     0.343606    0.570514    0.349534    0.000000
    51  O1    c     0.837378    0.570069    0.673677    0.000000
    52  O1    c     0.649024    0.492794    0.685866    0.000000
    53  O1    c     0.272836    0.247533    0.301543    0.000000
    54  O1    c     0.231976    0.808543    0.299313    0.000000
    55  O1    c     0.763654    0.257305    0.731946    0.000000
    56  O1    c     0.727062    0.807340    0.730809    0.000000
    57  O1    c     0.144016    0.265295    0.138952    0.000000
    58  O3    c     0.358476    0.795998    0.136116    0.000000
    59  O1    c     0.875748    0.399513    0.896553    0.000000
    60  O3    c     0.620375    0.668917    0.909574    0.000000
    61  O1    c     0.859047    0.794935    0.887399    0.000000
    62  O1    c     0.641386    0.275928    0.904268    0.000000
    63  O1    c     0.119496    0.669058    0.138352    0.000000
    64  O3    c     0.390867    0.367720    0.140416    0.000000
    65  O3    c     0.666398    0.512966    0.115322    0.000000
    66  O1    c     0.846401    0.587219    0.115389    0.000000
    67  O2    c     0.345829    0.563636    0.949994    0.000000
    68  O1    c     0.156165    0.480609    0.919891    0.000000
    69  O1    c     0.768753    0.264388    0.068347    0.000000
    70  O3    c     0.731639    0.808926    0.042912    0.000000
    71  O3    c     0.275376    0.268249    0.996041    0.000000
    72  O3    c     0.239432    0.788014    0.980907    0.000000
    73  O1    s     0.125395    0.143342    0.386503    0.000000
    74  O1    s     0.376417    0.913585    0.391303    0.000000
    75  O1    s     0.915503    0.255620    0.660123    0.000000
    76  O3    s     0.574517    0.820457    0.676988    0.000000
    77  O1    s     0.872321    0.920310    0.643756    0.000000
    78  O3    s     0.615771    0.134024    0.663888    0.000000
    79  O1    s     0.085805    0.801773    0.380889    0.000000
    80  O1    s     0.418692    0.253691    0.386801    0.000000
    81  O1    s     0.978035    0.044992    0.464203    0.000000
    82  O3    s     0.521474    0.014087    0.493388    0.000000
    83  O1    s     0.024450    0.022862    0.212502    0.000000
    84  O1    s     0.483597    0.016921    0.232048    0.000000
    85  O1    s     0.023691    0.008335    0.708590    0.000000
    86  O3    s     0.477658    0.050353    0.722387    0.000000
    87  O1    s     0.618931    0.165250    0.146049    0.000000
    88  O1    s     0.879315    0.932714    0.125557    0.000000
    89  O3    s     0.408276    0.254622    0.911093    0.000000
    90  O1    s     0.088767    0.800249    0.897557    0.000000
    91  O3    s     0.373535    0.893960    0.903174    0.000000
    92  O1    s     0.136540    0.131476    0.890337    0.000000
    93  O3    s     0.598577    0.810017    0.131767    0.000000
    94  O1    s     0.919572    0.268849    0.131126    0.000000
    95  O1    s     0.516939    0.016397    0.972962    0.000000
    96  O1    s     0.988604    0.060185    0.957722    0.000000
    97  O1    s     0.162938    0.487295    0.347054    0.000000
    98  O1    s     0.343530    0.568938    0.341670    0.000000
    99  O1    s     0.837237    0.570079    0.682760    0.000000
   100  O1    s     0.649850    0.493422    0.694650    0.000000
   101  O1    s     0.271727    0.258550    0.301048    0.000000
   102  O1    s     0.233312    0.797474    0.298957    0.000000
   103  O1    s     0.762783    0.267978    0.733355    0.000000
   104  O1    s     0.727840    0.796512    0.732172    0.000000
   105  O1    s     0.148818    0.267756    0.138780    0.000000
   106  O3    s     0.353399    0.791418    0.134121    0.000000
   107  O1    s     0.872025    0.396015    0.896327    0.000000
   108  O3    s     0.625140    0.673845    0.910484    0.000000
   109  O1    s     0.854282    0.792609    0.887575    0.000000
   110  O1    s     0.645783    0.278967    0.903877    0.000000
   111  O1    s     0.123968    0.671434    0.138311    0.000000
   112  O3    s     0.385089    0.367464    0.138448    0.000000
   113  O3    s     0.665585    0.515318    0.105348    0.000000
   114  O1    s     0.845658    0.585586    0.106023    0.000000
   115  O2    s     0.345338    0.563177    0.958467    0.000000
   116  O1    s     0.157347    0.481501    0.929184    0.000000
   117  O1    s     0.767637    0.275617    0.067092    0.000000
   118  O3    s     0.732021    0.796915    0.044245    0.000000
   119  O3    s     0.275448    0.279041    0.994989    0.000000
   120  O3    s     0.241383    0.777606    0.981828    0.000000
--------------------------------------------------------------------------------

  Final Cartesian lattice vectors (Angstroms) :

       17.576710   -0.233918   -0.021275
       -0.103423    7.793015   -0.017474
       -0.012270   -0.025715   10.297104


  Final cell parameters and derivatives :

--------------------------------------------------------------------------------
       a           17.578280 Angstrom     dE/de1(xx)    -0.001011 eV/strain
       b            7.793721 Angstrom     dE/de2(yy)     0.003060 eV/strain
       c           10.297143 Angstrom     dE/de3(zz)     0.002786 eV/strain
       alpha       90.270625 Degrees      dE/de4(yz)     0.000771 eV/strain
       beta        90.135707 Degrees      dE/de5(xz)    -0.001386 eV/strain
       gamma       91.522650 Degrees      dE/de6(xy)    -0.000714 eV/strain
--------------------------------------------------------------------------------

  Primitive cell volume =          1410.192519 Angs**3

  Density of cell =      2.746695 g/cm**3

  Non-primitive cell volume =          1410.192519 Angs**3


  Final internal derivatives :

--------------------------------------------------------------------------------
   No.  Atomic          a             b             c           Radius
        Label          (eV)          (eV)          (eV)        (eV/Angs)
--------------------------------------------------------------------------------
      1 Ge    c       0.000000      0.000000      0.000000      0.000000
      2 Ge    c      -0.002405      0.000897     -0.001087      0.000000
      3 Ge    c       0.000678     -0.000676      0.001046      0.000000
      4 Ge    c       0.003603     -0.000327     -0.000664      0.000000
      5 Ge    c      -0.007469      0.000909     -0.001237      0.000000
      6 Ge    c       0.000767      0.000874     -0.000129      0.000000
      7 Ge    c       0.005572     -0.000011     -0.000969      0.000000
      8 Ge    c      -0.000038     -0.001712      0.000666      0.000000
      9 Ge    c       0.001673      0.001405      0.000558      0.000000
     10 Ge    c      -0.004859     -0.000675     -0.001452      0.000000
     11 Ge    c      -0.002770      0.001108     -0.000015      0.000000
     12 Ge    c       0.000940      0.001859     -0.002413      0.000000
     13 Ge    c       0.003383     -0.001012     -0.001078      0.000000
     14 Ge    c       0.001892      0.000009      0.000090      0.000000
     15 Ge    c       0.004422     -0.002260      0.000540      0.000000
     16 Ge    c      -0.004253     -0.001838      0.001761      0.000000
     17 Ge    c      -0.000860      0.003286      0.001734      0.000000
     18 Ge    c       0.003149      0.001003     -0.000512      0.000000
     19 Ge    c       0.000343     -0.001505     -0.002857      0.000000
     20 Ge    c       0.001658     -0.001562      0.001331      0.000000
     21 Si    c      -0.002771     -0.000921     -0.000487      0.000000
     22 Si    c       0.002428      0.000047      0.000855      0.000000
     23 Si    c      -0.003245      0.000757     -0.000496      0.000000
     24 Si    c      -0.002931      0.000377      0.001440      0.000000
     25 O1    c       0.001762      0.003155     -0.003349      0.000000
     26 O1    c      -0.000531      0.000498     -0.002390      0.000000
     27 O1    c       0.001287      0.001772     -0.003584      0.000000
     28 O3    c      -0.001049      0.001102      0.001609      0.000000
     29 O1    c       0.000769     -0.000882      0.001796      0.000000
     30 O3    c       0.001137      0.002616      0.000491      0.000000
     31 O1    c      -0.004946      0.001069      0.003791      0.000000
     32 O1    c      -0.001780     -0.000833     -0.002236      0.000000
     33 O1    c       0.003053     -0.000768     -0.004991      0.000000
     34 O3    c      -0.000895      0.000311      0.002244      0.000000
     35 O1    c       0.008375      0.001036      0.006820      0.000000
     36 O1    c      -0.006993     -0.000041      0.002261      0.000000
     37 O1    c      -0.004335      0.001348     -0.002768      0.000000
     38 O3    c      -0.003301      0.000629      0.001666      0.000000
     39 O1    c      -0.004784      0.000168     -0.002094      0.000000
     40 O1    c      -0.000559     -0.000494     -0.005493      0.000000
     41 O3    c      -0.000389     -0.002845     -0.002379      0.000000
     42 O1    c      -0.003338     -0.001341     -0.003156      0.000000
     43 O3    c       0.001583     -0.002930      0.001756      0.000000
     44 O1    c      -0.000047      0.001984      0.004462      0.000000
     45 O3    c      -0.002684      0.001608      0.001907      0.000000
     46 O1    c       0.002160     -0.001373     -0.001486      0.000000
     47 O1    c      -0.001217     -0.000623     -0.002019      0.000000
     48 O1    c      -0.007501     -0.000867      0.003851      0.000000
     49 O1    c      -0.002061      0.002405      0.001587      0.000000
     50 O1    c       0.001371      0.001244      0.003015      0.000000
     51 O1    c       0.000795     -0.001674     -0.004215      0.000000
     52 O1    c      -0.002942      0.000242     -0.003117      0.000000
     53 O1    c       0.001904     -0.001758      0.001105      0.000000
     54 O1    c      -0.000634      0.001488     -0.000660      0.000000
     55 O1    c       0.006728     -0.002021     -0.001064      0.000000
     56 O1    c      -0.002464      0.002039     -0.000613      0.000000
     57 O1    c      -0.002329     -0.000291      0.003198      0.000000
     58 O3    c       0.003533     -0.000115      0.000302      0.000000
     59 O1    c       0.004912     -0.002369      0.002960      0.000000
     60 O3    c      -0.002477      0.000204     -0.001482      0.000000
     61 O1    c       0.002723      0.001088      0.001500      0.000000
     62 O1    c      -0.004066     -0.000510      0.000678      0.000000
     63 O1    c      -0.002373      0.001938      0.002293      0.000000
     64 O3    c       0.000648     -0.000755     -0.001052      0.000000
     65 O3    c      -0.003517      0.001464      0.001525      0.000000
     66 O1    c      -0.002184     -0.002454      0.005374      0.000000
     67 O2    c       0.001287     -0.001495      0.000134      0.000000
     68 O1    c      -0.000395     -0.001388     -0.002907      0.000000
     69 O1    c       0.004486     -0.002176      0.000957      0.000000
     70 O3    c       0.000127      0.000741      0.000579      0.000000
     71 O3    c       0.002387     -0.000940     -0.000121      0.000000
     72 O3    c       0.001916      0.000636      0.000640      0.000000
     73 O1    s      -0.000625     -0.002504      0.003498      0.000000
     74 O1    s       0.000048     -0.000617      0.002854      0.000000
     75 O1    s      -0.001347     -0.000722      0.001678      0.000000
     76 O3    s      -0.000091     -0.001859      0.000181      0.000000
     77 O1    s       0.001390      0.001108     -0.001686      0.000000
     78 O3    s       0.001325     -0.002661     -0.000675      0.000000
     79 O1    s       0.003337     -0.001492     -0.002758      0.000000
     80 O1    s       0.002737      0.001024      0.002293      0.000000
     81 O1    s      -0.004521      0.000106      0.004599      0.000000
     82 O3    s       0.003562     -0.000902     -0.003144      0.000000
     83 O1    s      -0.005154     -0.001104     -0.006125      0.000000
     84 O1    s       0.005664      0.000229     -0.004006      0.000000
     85 O1    s       0.001474     -0.000895      0.001765      0.000000
     86 O3    s       0.000458     -0.000087     -0.001056      0.000000
     87 O1    s       0.004880     -0.000831      0.002325      0.000000
     88 O1    s       0.001258      0.000494      0.006888      0.000000
     89 O3    s       0.001450      0.002508      0.001480      0.000000
     90 O1    s       0.004090      0.001584      0.000139      0.000000
     91 O3    s      -0.001872      0.002925     -0.001842      0.000000
     92 O1    s      -0.004141     -0.002443     -0.002389      0.000000
     93 O3    s       0.001981     -0.001006     -0.001129      0.000000
     94 O1    s      -0.000832      0.001078      0.003427      0.000000
     95 O1    s       0.000167      0.000078      0.001001      0.000000
     96 O1    s       0.008363      0.000624     -0.004908      0.000000
     97 O1    s       0.002121     -0.001136     -0.002413      0.000000
     98 O1    s      -0.000614     -0.000560     -0.002414      0.000000
     99 O1    s      -0.001914      0.000444      0.006812      0.000000
    100 O1    s       0.002274      0.000893      0.002886      0.000000
    101 O1    s      -0.002908      0.002812     -0.000728      0.000000
    102 O1    s      -0.000986     -0.002891      0.001484      0.000000
    103 O1    s      -0.002139      0.004239      0.002737      0.000000
    104 O1    s       0.000865     -0.001894      0.000703      0.000000
    105 O1    s      -0.000753      0.000549     -0.001814      0.000000
    106 O3    s      -0.001535     -0.000323      0.000520      0.000000
    107 O1    s      -0.001813      0.000549     -0.003044      0.000000
    108 O3    s       0.002672      0.000394      0.000947      0.000000
    109 O1    s      -0.002492     -0.002380     -0.001160      0.000000
    110 O1    s       0.003518      0.001449     -0.000239      0.000000
    111 O1    s       0.000525     -0.000602     -0.002183      0.000000
    112 O3    s      -0.001914      0.000491      0.000434      0.000000
    113 O3    s       0.003957     -0.001076     -0.002595      0.000000
    114 O1    s       0.002881      0.001384     -0.005694      0.000000
    115 O2    s      -0.000325      0.000461     -0.000083      0.000000
    116 O1    s      -0.001042      0.001258      0.003935      0.000000
    117 O1    s      -0.001284      0.002969     -0.001952      0.000000
    118 O3    s      -0.000587     -0.001290     -0.000904      0.000000
    119 O3    s       0.000483      0.001935      0.000690      0.000000
    120 O3    s      -0.003681     -0.001888     -0.000496      0.000000
--------------------------------------------------------------------------------
  Maximum abs         0.008375      0.004239      0.006888      0.000000
--------------------------------------------------------------------------------


  Born effective charge tensors : 

-------------------------------------------------------------------------------
  Atom             x           y             z
-------------------------------------------------------------------------------
    1 Ge    x       4.1592     -0.2728      0.0475
            y       0.0872      3.9155     -0.0091
            z      -0.8207      0.1735      4.1861
-------------------------------------------------------------------------------
    2 Ge    x       3.9666     -0.2701     -0.0302
            y       0.1310      3.9273      0.0228
            z       0.8002     -0.1168      4.3393
-------------------------------------------------------------------------------
    3 Ge    x       4.2466     -0.2586     -0.4665
            y       0.1323      3.9022      0.1188
            z      -0.2358      0.0184      4.4257
-------------------------------------------------------------------------------
    4 Ge    x       4.2660     -0.1052      0.0322
            y       0.1044      3.9169      0.0363
            z      -0.6765      0.0970      3.7301
-------------------------------------------------------------------------------
    5 Ge    x       4.3971     -0.2392     -0.0472
            y       0.0942      3.9175      0.0050
            z       0.6265     -0.1812      3.6782
-------------------------------------------------------------------------------
    6 Ge    x       4.1891     -0.1927     -0.3516
            y       0.1087      3.9558      0.0540
            z      -0.3154     -0.0122      3.7974
-------------------------------------------------------------------------------
    7 Ge    x       4.3464     -0.2847      0.4277
            y       0.1400      3.9285     -0.0547
            z       0.3698      0.0034      3.9809
-------------------------------------------------------------------------------
    8 Ge    x       4.0251      0.2360     -0.3200
            y       0.2659      4.1380     -0.0940
            z      -0.0384     -0.1512      3.5785
-------------------------------------------------------------------------------
    9 Ge    x       3.9535      0.2273      0.3580
            y       0.2157      4.1695      0.1753
            z       0.0540      0.1845      3.5807
-------------------------------------------------------------------------------
   10 Ge    x       4.0312     -0.0603     -0.1847
            y      -0.4497      4.1780      0.0945
            z      -0.1195      0.2216      3.6019
-------------------------------------------------------------------------------
   11 Ge    x       3.8635     -0.0282      0.1544
            y      -0.4410      4.2235     -0.0364
            z       0.0583     -0.1954      3.4495
-------------------------------------------------------------------------------
   12 Ge    x       4.0441      0.2338     -0.2915
            y       0.2318      4.1807     -0.0753
            z      -0.0292     -0.1791      3.6077
-------------------------------------------------------------------------------
   13 Ge    x       3.9750      0.2234      0.1701
            y       0.1870      4.2255      0.0245
            z      -0.0502      0.1473      3.5503
-------------------------------------------------------------------------------
   14 Ge    x       3.9004     -0.0796     -0.2560
            y      -0.4573      4.2081      0.1026
            z      -0.1003      0.1729      3.5838
-------------------------------------------------------------------------------
   15 Ge    x       3.8269     -0.0781      0.2914
            y      -0.4465      4.2305     -0.1457
            z       0.1118     -0.1881      3.5582
-------------------------------------------------------------------------------
   16 Ge    x       4.0914      0.2593     -0.2367
            y       0.3769      4.1339     -0.1055
            z      -0.0191     -0.1848      3.4244
-------------------------------------------------------------------------------
   17 Ge    x       3.9913      0.3133      0.3555
            y       0.3329      4.1421      0.0151
            z       0.0620      0.1187      3.4527
-------------------------------------------------------------------------------
   18 Ge    x       4.0240     -0.1216      0.2817
            y      -0.4818      4.1424     -0.0929
            z       0.1524     -0.1816      3.4975
-------------------------------------------------------------------------------
   19 Ge    x       3.9045      0.2883      0.3622
            y       0.2406      4.1885      0.0719
            z       0.0483      0.1645      3.5207
-------------------------------------------------------------------------------
   20 Ge    x       4.0827     -0.0905      0.2529
            y      -0.4493      4.1990     -0.0751
            z       0.1317     -0.1768      3.4205
-------------------------------------------------------------------------------
   21 Si    x       3.8419     -0.2480      0.4187
            y       0.1878      3.6553     -0.1213
            z       0.1310     -0.0158      4.2423
-------------------------------------------------------------------------------
   22 Si    x       3.6547     -0.0769     -0.2986
            y      -0.3852      3.6921      0.2608
            z      -0.0798      0.2756      3.1852
-------------------------------------------------------------------------------
   23 Si    x       3.7045      0.2814     -0.2733
            y       0.2885      3.7108     -0.2312
            z       0.0016     -0.2271      3.2250
-------------------------------------------------------------------------------
   24 Si    x       3.6937     -0.0718     -0.3017
            y      -0.4159      3.8816      0.0655
            z      -0.0781      0.2006      3.1986
-------------------------------------------------------------------------------
   25 O1    x      -2.2072     -0.8723      0.3227
            y      -0.9339     -2.2248      0.3559
            z       0.3995      0.3583     -1.6348
-------------------------------------------------------------------------------
   26 O1    x      -2.1856     -0.8614     -0.3795
            y      -0.9274     -2.2186     -0.4306
            z      -0.4448     -0.4197     -1.7209
-------------------------------------------------------------------------------
   27 O1    x      -2.0151      0.8458      0.5278
            y       0.8072     -2.5137     -0.5479
            z       0.4889     -0.5349     -1.6379
-------------------------------------------------------------------------------
   28 O3    x      -1.8075      0.7952     -0.4268
            y       0.7339     -2.4793      0.5013
            z      -0.3764      0.4951     -1.5191
-------------------------------------------------------------------------------
   29 O1    x      -2.2326     -0.8977      0.5326
            y      -0.9367     -2.2720      0.4973
            z       0.4996      0.5385     -1.6750
-------------------------------------------------------------------------------
   30 O3    x      -2.1245     -0.8761     -0.4483
            y      -0.9223     -2.2006     -0.4120
            z      -0.4115     -0.4483     -1.5097
-------------------------------------------------------------------------------
   31 O1    x      -1.9606      0.8498      0.3685
            y       0.8060     -2.5110     -0.3062
            z       0.4434     -0.3369     -1.5945
-------------------------------------------------------------------------------
   32 O1    x      -1.9117      0.8429     -0.4294
            y       0.7920     -2.5145      0.3903
            z      -0.5070      0.4390     -1.6816
-------------------------------------------------------------------------------
   33 O1    x      -2.1095      0.2618      0.9218
            y       0.1076     -1.2782     -0.1401
            z       1.1348     -0.2659     -3.0479
-------------------------------------------------------------------------------
   34 O3    x      -1.7854      0.1990     -0.8405
            y       0.0568     -1.2015      0.1192
            z      -1.0182      0.2353     -3.1143
-------------------------------------------------------------------------------
   35 O1    x      -2.1176      0.2641     -0.8283
            y       0.1251     -1.3647      0.2124
            z      -0.7757      0.2718     -2.6107
-------------------------------------------------------------------------------
   36 O1    x      -2.1343      0.1695      0.8882
            y       0.0606     -1.3522     -0.1748
            z       0.8667     -0.2140     -2.7217
-------------------------------------------------------------------------------
   37 O1    x      -2.1695      0.2603     -0.8055
            y       0.1440     -1.3079      0.1586
            z      -0.8405      0.1919     -2.7110
-------------------------------------------------------------------------------
   38 O3    x      -2.0864      0.2511      0.8035
            y       0.1370     -1.2691     -0.1396
            z       0.8242     -0.1658     -2.5113
-------------------------------------------------------------------------------
   39 O1    x      -2.1530     -0.9021      0.2941
            y      -0.9743     -2.3916      0.3096
            z       0.3744      0.3425     -1.5158
-------------------------------------------------------------------------------
   40 O1    x      -2.3130     -0.9231     -0.3073
            y      -0.9725     -2.3004     -0.3340
            z      -0.3638     -0.3501     -1.4620
-------------------------------------------------------------------------------
   41 O3    x      -1.8771      0.8579      0.5936
            y       0.7464     -2.4299     -0.5905
            z       0.4958     -0.5938     -1.5421
-------------------------------------------------------------------------------
   42 O1    x      -2.0430      0.8412     -0.5628
            y       0.7737     -2.5617      0.5781
            z      -0.4967      0.5449     -1.5693
-------------------------------------------------------------------------------
   43 O3    x      -1.9828     -0.8750      0.5517
            y      -0.8768     -2.3019      0.5790
            z       0.4887      0.5809     -1.5629
-------------------------------------------------------------------------------
   44 O1    x      -2.2286     -0.8538     -0.5513
            y      -0.8905     -2.2962     -0.5627
            z      -0.4586     -0.5286     -1.6088
-------------------------------------------------------------------------------
   45 O3    x      -1.9776      0.8634      0.4112
            y       0.8181     -2.2715     -0.3535
            z       0.4416     -0.4040     -1.4294
-------------------------------------------------------------------------------
   46 O1    x      -2.1320      0.8725     -0.3247
            y       0.8458     -2.5045      0.2087
            z      -0.3951      0.2606     -1.4204
-------------------------------------------------------------------------------
   47 O1    x      -2.2343      0.2101     -0.7899
            y       0.1262     -1.3694      0.1591
            z      -0.5352      0.1328     -2.2592
-------------------------------------------------------------------------------
   48 O1    x      -2.1722      0.2590      0.7375
            y       0.1483     -1.3827     -0.1994
            z       0.5143     -0.1787     -2.3092
-------------------------------------------------------------------------------
   49 O1    x      -1.3557      0.2078      0.0747
            y       0.3198     -3.1496      0.0164
            z       0.0253      0.0239     -1.3819
-------------------------------------------------------------------------------
   50 O1    x      -1.3301      0.2124     -0.0736
            y       0.3377     -3.2153      0.0013
            z      -0.0227     -0.0009     -1.3880
-------------------------------------------------------------------------------
   51 O1    x      -1.3649      0.1960      0.0693
            y       0.2975     -3.1427      0.0430
            z       0.0278      0.0353     -1.4091
-------------------------------------------------------------------------------
   52 O1    x      -1.3418      0.1621     -0.0816
            y       0.3076     -3.2443     -0.0410
            z      -0.0353     -0.0522     -1.4114
-------------------------------------------------------------------------------
   53 O1    x      -2.9819     -0.2772      0.0022
            y      -0.1915     -1.6018      0.0315
            z      -0.0016      0.0556     -1.2285
-------------------------------------------------------------------------------
   54 O1    x      -2.9880     -0.2905      0.0250
            y      -0.1900     -1.6081     -0.0244
            z       0.0603     -0.0442     -1.2258
-------------------------------------------------------------------------------
   55 O1    x      -3.0931     -0.2832      0.0460
            y      -0.2207     -1.5932     -0.0303
            z       0.0578     -0.0625     -1.2206
-------------------------------------------------------------------------------
   56 O1    x      -3.0706     -0.2608      0.0892
            y      -0.1542     -1.5546      0.0500
            z       0.0736      0.0860     -1.2345
-------------------------------------------------------------------------------
   57 O1    x      -1.5439     -0.1163      0.0561
            y      -0.1319     -1.4187      0.0422
            z       0.0035      0.0219     -2.6915
-------------------------------------------------------------------------------
   58 O3    x      -1.3640     -0.1150     -0.0576
            y      -0.1253     -1.3917     -0.1308
            z      -0.0394     -0.0919     -2.5693
-------------------------------------------------------------------------------
   59 O1    x      -1.4398      0.0187     -0.0685
            y       0.0863     -1.4443     -0.0536
            z      -0.0615     -0.0425     -2.7766
-------------------------------------------------------------------------------
   60 O3    x      -1.3720      0.0040     -0.1508
            y       0.0822     -1.3735     -0.0066
            z      -0.1154     -0.0253     -2.5518
-------------------------------------------------------------------------------
   61 O1    x      -1.5389     -0.1113     -0.0257
            y      -0.1247     -1.4152     -0.0165
            z      -0.0631     -0.0278     -2.7083
-------------------------------------------------------------------------------
   62 O1    x      -1.4511     -0.1214     -0.0306
            y      -0.1278     -1.4615     -0.0623
            z      -0.0048     -0.0394     -2.7425
-------------------------------------------------------------------------------
   63 O1    x      -1.4823      0.0104      0.0328
            y       0.0834     -1.4236     -0.0127
            z       0.0107     -0.0088     -2.7389
-------------------------------------------------------------------------------
   64 O3    x      -1.3824      0.0489     -0.0957
            y       0.1182     -1.3623      0.0421
            z      -0.0660      0.0243     -2.5477
-------------------------------------------------------------------------------
   65 O3    x      -1.3071      0.1847      0.0400
            y       0.2392     -2.9791      0.1466
            z      -0.0125      0.1507     -1.2693
-------------------------------------------------------------------------------
   66 O1    x      -1.4171      0.2084     -0.1168
            y       0.2711     -3.0994      0.0534
            z      -0.0642      0.0165     -1.3507
-------------------------------------------------------------------------------
   67 O2    x      -1.2126      0.1423      0.0735
            y       0.2239     -2.5020      0.0293
            z       0.0278      0.0189     -1.1055
-------------------------------------------------------------------------------
   68 O1    x      -1.4179      0.1893     -0.1259
            y       0.2913     -3.1207     -0.0020
            z      -0.0701     -0.0005     -1.3446
-------------------------------------------------------------------------------
   69 O1    x      -3.0711     -0.2570      0.0091
            y      -0.1321     -1.6178      0.0195
            z      -0.0190      0.0627     -1.1809
-------------------------------------------------------------------------------
   70 O3    x      -2.8456     -0.3653      0.0553
            y      -0.2782     -1.5306      0.0225
            z       0.0565     -0.0169     -1.1269
-------------------------------------------------------------------------------
   71 O3    x      -2.8646     -0.3753     -0.0478
            y      -0.3040     -1.5352     -0.0231
            z      -0.0209     -0.0424     -1.1208
-------------------------------------------------------------------------------
   72 O3    x      -2.9815     -0.1783     -0.0517
            y      -0.0706     -1.4599      0.0222
            z      -0.0799      0.0405     -1.1207
-------------------------------------------------------------------------------




  Elastic Constant Matrix: (Units=GPa)

-------------------------------------------------------------------------------
  Indices      1         2         3         4         5         6    
-------------------------------------------------------------------------------
       1     28.5939   12.6264    9.2909    0.0992   -0.4767   -6.9876
       2     12.6264   33.3110    6.7202   -0.2907    0.4488   -6.7120
       3      9.2909    6.7202   13.9334   -0.4096    0.1613   -1.1226
       4      0.0992   -0.2907   -0.4096    7.6247   -1.8616    1.0694
       5     -0.4767    0.4488    0.1613   -1.8616   15.1810   -1.0266
       6     -6.9876   -6.7120   -1.1226    1.0694   -1.0266   19.7018
-------------------------------------------------------------------------------


  Elastic Compliance Matrix: (Units=1/GPa)

-------------------------------------------------------------------------------
  Indices      1         2         3         4         5         6    
-------------------------------------------------------------------------------
       1    0.052744 -0.011565 -0.028652 -0.003890  0.002738  0.013488
       2   -0.011565  0.038097 -0.009995 -0.000305 -0.000861  0.008279
       3   -0.028652 -0.009995  0.095200  0.005946 -0.001464 -0.008542
       4   -0.003890 -0.000305  0.005946  0.136510  0.016042 -0.007718
       5    0.002738 -0.000861 -0.001464  0.016042  0.068187  0.003277
       6    0.013488  0.008279 -0.008542 -0.007718  0.003277  0.058464
-------------------------------------------------------------------------------

  Mechanical properties :

-------------------------------------------------------------------------------
  Convention :                    Reuss         Voigt         Hill
-------------------------------------------------------------------------------
  Bulk  Modulus (GPa)     =      11.67984      14.79035      13.23509
  Shear Modulus (GPa)     =       8.64802      11.64821      10.14812
-------------------------------------------------------------------------------
  Velocity S-wave (km/s)  =       1.77441       2.05932       1.92215
  Velocity P-wave (km/s)  =       2.90695       3.32253       3.12166
-------------------------------------------------------------------------------
  Compressibility (1/GPa) =    0.08561763
-------------------------------------------------------------------------------
  Stress axis :                     x             y             z
-------------------------------------------------------------------------------
  Youngs Moduli (GPa)     =      18.95935      26.24845      10.50422
-------------------------------------------------------------------------------
  Poissons Ratio (x)      =                     0.30357       0.30097
  Poissons Ratio (y)      =       0.21927                     0.10499
  Poissons Ratio (z)      =       0.54322       0.26235
-------------------------------------------------------------------------------


  Piezoelectric Strain Matrix: (Units=C/m**2)

-------------------------------------------------------------------------------
  Indices      1         2         3         4         5         6    
-------------------------------------------------------------------------------
       x     0.01754  -0.15369  -0.08082   0.11461   0.41840   0.04351
       y     0.03708   0.16719   0.16292   1.22975  -0.53369  -0.32839
       z     0.23543  -0.41228  -1.17499  -0.09347   0.15219  -0.22152
-------------------------------------------------------------------------------


  Piezoelectric Stress Matrix: (Units=10**-11 C/N)

-------------------------------------------------------------------------------
  Indices      1         2         3         4         5         6    
-------------------------------------------------------------------------------
       x     0.63048  -0.52851  -0.69631   2.15197   3.08091   0.26845
       y    -1.53199   0.16776   2.36757  16.26205  -1.80210  -2.99469
       z     4.86438  -0.86222 -11.33705  -1.63857   1.08721  -0.19325
-------------------------------------------------------------------------------


  Static dielectric constant tensor : 

-------------------------------------------------------------------------------
              x         y         z
-------------------------------------------------------------------------------
       x     5.31485  -0.00829  -0.06161
       y    -0.00829   6.52208  -0.05582
       z    -0.06161  -0.05582   4.15065
--------------------------------------------------------------------------------

  High frequency dielectric constant tensor : 

-------------------------------------------------------------------------------
              x         y         z
-------------------------------------------------------------------------------
       x     1.55013  -0.00304  -0.00048
       y    -0.00304   1.55606   0.00003
       z    -0.00048   0.00003   1.51018
-------------------------------------------------------------------------------

  Static refractive indices : 

-------------------------------------------------------------------------------
    1 =    2.03619      2 =    2.30610      3 =    2.55410
-------------------------------------------------------------------------------

  High frequency refractive indices : 

-------------------------------------------------------------------------------
    1 =    1.22889      2 =    1.24453      3 =    1.24794
-------------------------------------------------------------------------------


  Time to end of optimisation =       8.9331 seconds


  Peak dynamic memory used =       5.01 MB 


  Timing analysis for GULP :

--------------------------------------------------------------------------------
  Task / Subroutine                                          Time (Seconds)
--------------------------------------------------------------------------------
  Calculation of reciprocal space energy and derivatives          0.5431
  Calculation of real space energy and derivatives                5.8774
  Calculation of three-body energy and derivatives                0.0813
  Calculation and manipulation of Hessian matrix                  2.6699
  Calculation of matrix inversion                                 0.0261
  Global summation overhead                                       0.0001
--------------------------------------------------------------------------------
  Total CPU time                                                  8.9331
--------------------------------------------------------------------------------


  Dump file written as c00664.vasp.grs
  CIF file written as c00664.vasp.cif


  Job Finished at 13:52.26 31st October    2025                               

