********************************************************************************
*                       GENERAL UTILITY LATTICE PROGRAM                        *
*                                 Julian Gale                                  *
*                       Curtin Institute for Computation                       *
*                    School of Molecular and Life Sciences                     *
*                    Curtin University, Western Australia                      *
********************************************************************************
* Version = 6.1.2 * Last modified =   3rd November 2022                        *
********************************************************************************
*  optimise     - perform optimisation run                                     *
*  conp         - constant pressure calculation                                *
*  property     - calculate properties for final geometry                      *
********************************************************************************

  Job Started  at 14:01.06 31st October    2025                               

  Number of CPUs =     1


  Total number of configurations input =      1

********************************************************************************
*  Input for Configuration =   1 : c00712.vasp                                 *
********************************************************************************

  Formula = Ge20Si4O48                                                  

  Number of irreducible atoms/shells =     120


  Total number atoms/shells =     120

  Dimensionality = 3               :  Bulk   



  Cartesian lattice vectors (Angstroms) :

       17.182800    0.000000    0.000000
        0.000000    7.513760    0.000000
        0.000000    0.000000   10.447700

  Cell parameters (Angstroms/Degrees):

  a =      17.1828    alpha =  90.0000
  b =       7.5138    beta  =  90.0000
  c =      10.4477    gamma =  90.0000

  Initial cell volume =        1348.875752 Angs**3

  Temperature of configuration =   0.00     K 

  Pressure of configuration =         0.000 GPa 

  Fractional coordinates of asymmetric unit :

--------------------------------------------------------------------------------
   No.  Atomic       x           y          z         Charge      Occupancy
        Label      (Frac)      (Frac)     (Frac)        (e)         (Frac)  
--------------------------------------------------------------------------------
      1 Ge    c    0.052090    0.000000    0.372270     4.00000    1.000000    
      2 Ge    c    0.447910 *  0.000000 *  0.372270 *   4.00000    1.000000    
      3 Ge    c    0.947910 *  0.000000 *  0.627730 *   4.00000    1.000000    
      4 Ge    c    0.556730 *  0.000000 *  0.122130 *   4.00000    1.000000    
      5 Ge    c    0.943270 *  0.000000 *  0.122130 *   4.00000    1.000000    
      6 Ge    c    0.443270 *  0.000000 *  0.877870 *   4.00000    1.000000    
      7 Ge    c    0.056730 *  0.000000 *  0.877870 *   4.00000    1.000000    
      8 Ge    c    0.160190 *  0.293910 *  0.273440 *   4.00000    1.000000    
      9 Ge    c    0.339810 *  0.706090 *  0.273440 *   4.00000    1.000000    
     10 Ge    c    0.839810 *  0.293910 *  0.726560 *   4.00000    1.000000    
     11 Ge    c    0.660190 *  0.706090 *  0.726560 *   4.00000    1.000000    
     12 Ge    c    0.839810 *  0.706090 *  0.726560 *   4.00000    1.000000    
     13 Ge    c    0.660190 *  0.293910 *  0.726560 *   4.00000    1.000000    
     14 Ge    c    0.339810 *  0.293910 *  0.273440 *   4.00000    1.000000    
     15 Ge    c    0.660660 *  0.294090 *  0.017440 *   4.00000    1.000000    
     16 Ge    c    0.839340 *  0.705910 *  0.017440 *   4.00000    1.000000    
     17 Ge    c    0.339340 *  0.294090 *  0.982560 *   4.00000    1.000000    
     18 Ge    c    0.339340 *  0.705910 *  0.982560 *   4.00000    1.000000    
     19 Ge    c    0.160660 *  0.294090 *  0.982560 *   4.00000    1.000000    
     20 Ge    c    0.660660 *  0.705910 *  0.017440 *   4.00000    1.000000    
     21 Si    c    0.552090 *  0.000000 *  0.627730 *   4.00000    1.000000    
     22 Si    c    0.160190 *  0.706090 *  0.273440 *   4.00000    1.000000    
     23 Si    c    0.160660 *  0.705910 *  0.982560 *   4.00000    1.000000    
     24 Si    c    0.839340 *  0.294090 *  0.017440 *   4.00000    1.000000    
     25 O1    c    0.106570 *  0.174340 *  0.366200 *   1.73396    1.000000    
     26 O1    c    0.393430 *  0.825660 *  0.366200 *   1.73396    1.000000    
     27 O1    c    0.893430 *  0.174340 *  0.633800 *   1.73396    1.000000    
     28 O3    c    0.606570 *  0.825660 *  0.633800 *   1.33043    1.000000    
     29 O1    c    0.893430 *  0.825660 *  0.633800 *   1.73396    1.000000    
     30 O3    c    0.606570 *  0.174340 *  0.633800 *   1.33043    1.000000    
     31 O3    c    0.106570 *  0.825660 *  0.366200 *   1.33043    1.000000    
     32 O1    c    0.393430 *  0.174340 *  0.366200 *   1.73396    1.000000    
     33 O1    c    0.000000 *  0.000000 *  0.500000 *   1.73396    1.000000    
     34 O3    c    0.500000 *  0.000000 *  0.500000 *   1.33043    1.000000    
     35 O1    c    0.994520 *  0.000000 *  0.250840 *   1.73396    1.000000    
     36 O1    c    0.505480 *  0.000000 *  0.250840 *   1.73396    1.000000    
     37 O1    c    0.005480 *  0.000000 *  0.749160 *   1.73396    1.000000    
     38 O3    c    0.494520 *  0.000000 *  0.749160 *   1.33043    1.000000    
     39 O1    c    0.610230 *  0.175520 *  0.115390 *   1.73396    1.000000    
     40 O1    c    0.889770 *  0.824480 *  0.115390 *   1.73396    1.000000    
     41 O1    c    0.389770 *  0.175520 *  0.884610 *   1.73396    1.000000    
     42 O3    c    0.110230 *  0.824480 *  0.884610 *   1.33043    1.000000    
     43 O1    c    0.389770 *  0.824480 *  0.884610 *   1.73396    1.000000    
     44 O1    c    0.110230 *  0.175520 *  0.884610 *   1.73396    1.000000    
     45 O1    c    0.610230 *  0.824480 *  0.115390 *   1.73396    1.000000    
     46 O3    c    0.889770 *  0.175520 *  0.115390 *   1.33043    1.000000    
     47 O1    c    0.500000 *  0.000000 *  0.000000 *   1.73396    1.000000    
     48 O1    c    0.000000 *  0.000000 *  0.000000 *   1.73396    1.000000    
     49 O3    c    0.151750 *  0.500000 *  0.313330 *   1.33043    1.000000    
     50 O1    c    0.348250 *  0.500000 *  0.313330 *   1.73396    1.000000    
     51 O1    c    0.848250 *  0.500000 *  0.686670 *   1.73396    1.000000    
     52 O1    c    0.651750 *  0.500000 *  0.686670 *   1.73396    1.000000    
     53 O1    c    0.250000 *  0.234950 *  0.285720 *   1.73396    1.000000    
     54 O3    c    0.250000 *  0.765050 *  0.285720 *   1.33043    1.000000    
     55 O1    c    0.750000 *  0.234950 *  0.714280 *   1.73396    1.000000    
     56 O1    c    0.750000 *  0.765050 *  0.714280 *   1.73396    1.000000    
     57 O1    c    0.131410 *  0.268650 *  0.127790 *   1.73396    1.000000    
     58 O1    c    0.368590 *  0.731350 *  0.127790 *   1.73396    1.000000    
     59 O3    c    0.868590 *  0.268650 *  0.872210 *   1.33043    1.000000    
     60 O1    c    0.631410 *  0.731350 *  0.872210 *   1.73396    1.000000    
     61 O1    c    0.868590 *  0.731350 *  0.872210 *   1.73396    1.000000    
     62 O1    c    0.631410 *  0.268650 *  0.872210 *   1.73396    1.000000    
     63 O2    c    0.131410 *  0.731350 *  0.127790 *   0.87073    1.000000    
     64 O1    c    0.368590 *  0.268650 *  0.127790 *   1.73396    1.000000    
     65 O1    c    0.653920 *  0.500000 *  0.058200 *   1.73396    1.000000    
     66 O3    c    0.846080 *  0.500000 *  0.058200 *   1.33043    1.000000    
     67 O1    c    0.346080 *  0.500000 *  0.941800 *   1.73396    1.000000    
     68 O3    c    0.153920 *  0.500000 *  0.941800 *   1.33043    1.000000    
     69 O3    c    0.750000 *  0.231060 *  0.027050 *   1.33043    1.000000    
     70 O1    c    0.750000 *  0.768940 *  0.027050 *   1.73396    1.000000    
     71 O1    c    0.250000 *  0.231060 *  0.972950 *   1.73396    1.000000    
     72 O3    c    0.250000 *  0.768940 *  0.972950 *   1.33043    1.000000    
     73 O1    s    0.106570 *  0.174340 *  0.366200 *  -3.73396    1.000000    
     74 O1    s    0.393430 *  0.825660 *  0.366200 *  -3.73396    1.000000    
     75 O1    s    0.893430 *  0.174340 *  0.633800 *  -3.73396    1.000000    
     76 O3    s    0.606570 *  0.825660 *  0.633800 *  -3.33043    1.000000    
     77 O1    s    0.893430 *  0.825660 *  0.633800 *  -3.73396    1.000000    
     78 O3    s    0.606570 *  0.174340 *  0.633800 *  -3.33043    1.000000    
     79 O3    s    0.106570 *  0.825660 *  0.366200 *  -3.33043    1.000000    
     80 O1    s    0.393430 *  0.174340 *  0.366200 *  -3.73396    1.000000    
     81 O1    s    0.000000 *  0.000000 *  0.500000 *  -3.73396    1.000000    
     82 O3    s    0.500000 *  0.000000 *  0.500000 *  -3.33043    1.000000    
     83 O1    s    0.994520 *  0.000000 *  0.250840 *  -3.73396    1.000000    
     84 O1    s    0.505480 *  0.000000 *  0.250840 *  -3.73396    1.000000    
     85 O1    s    0.005480 *  0.000000 *  0.749160 *  -3.73396    1.000000    
     86 O3    s    0.494520 *  0.000000 *  0.749160 *  -3.33043    1.000000    
     87 O1    s    0.610230 *  0.175520 *  0.115390 *  -3.73396    1.000000    
     88 O1    s    0.889770 *  0.824480 *  0.115390 *  -3.73396    1.000000    
     89 O1    s    0.389770 *  0.175520 *  0.884610 *  -3.73396    1.000000    
     90 O3    s    0.110230 *  0.824480 *  0.884610 *  -3.33043    1.000000    
     91 O1    s    0.389770 *  0.824480 *  0.884610 *  -3.73396    1.000000    
     92 O1    s    0.110230 *  0.175520 *  0.884610 *  -3.73396    1.000000    
     93 O1    s    0.610230 *  0.824480 *  0.115390 *  -3.73396    1.000000    
     94 O3    s    0.889770 *  0.175520 *  0.115390 *  -3.33043    1.000000    
     95 O1    s    0.500000 *  0.000000 *  0.000000 *  -3.73396    1.000000    
     96 O1    s    0.000000 *  0.000000 *  0.000000 *  -3.73396    1.000000    
     97 O3    s    0.151750 *  0.500000 *  0.313330 *  -3.33043    1.000000    
     98 O1    s    0.348250 *  0.500000 *  0.313330 *  -3.73396    1.000000    
     99 O1    s    0.848250 *  0.500000 *  0.686670 *  -3.73396    1.000000    
    100 O1    s    0.651750 *  0.500000 *  0.686670 *  -3.73396    1.000000    
    101 O1    s    0.250000 *  0.234950 *  0.285720 *  -3.73396    1.000000    
    102 O3    s    0.250000 *  0.765050 *  0.285720 *  -3.33043    1.000000    
    103 O1    s    0.750000 *  0.234950 *  0.714280 *  -3.73396    1.000000    
    104 O1    s    0.750000 *  0.765050 *  0.714280 *  -3.73396    1.000000    
    105 O1    s    0.131410 *  0.268650 *  0.127790 *  -3.73396    1.000000    
    106 O1    s    0.368590 *  0.731350 *  0.127790 *  -3.73396    1.000000    
    107 O3    s    0.868590 *  0.268650 *  0.872210 *  -3.33043    1.000000    
    108 O1    s    0.631410 *  0.731350 *  0.872210 *  -3.73396    1.000000    
    109 O1    s    0.868590 *  0.731350 *  0.872210 *  -3.73396    1.000000    
    110 O1    s    0.631410 *  0.268650 *  0.872210 *  -3.73396    1.000000    
    111 O2    s    0.131410 *  0.731350 *  0.127790 *  -2.87073    1.000000    
    112 O1    s    0.368590 *  0.268650 *  0.127790 *  -3.73396    1.000000    
    113 O1    s    0.653920 *  0.500000 *  0.058200 *  -3.73396    1.000000    
    114 O3    s    0.846080 *  0.500000 *  0.058200 *  -3.33043    1.000000    
    115 O1    s    0.346080 *  0.500000 *  0.941800 *  -3.73396    1.000000    
    116 O3    s    0.153920 *  0.500000 *  0.941800 *  -3.33043    1.000000    
    117 O3    s    0.750000 *  0.231060 *  0.027050 *  -3.33043    1.000000    
    118 O1    s    0.750000 *  0.768940 *  0.027050 *  -3.73396    1.000000    
    119 O1    s    0.250000 *  0.231060 *  0.972950 *  -3.73396    1.000000    
    120 O3    s    0.250000 *  0.768940 *  0.972950 *  -3.33043    1.000000    
--------------------------------------------------------------------------------



********************************************************************************
*  General input information                                                   *
********************************************************************************

  Species output for all configurations : 

--------------------------------------------------------------------------------
  Species    Type    Atomic    Atomic    Charge       Radii (Angs)     Library
                     Number     Mass       (e)     Cova   Ionic  VDW   Symbol
--------------------------------------------------------------------------------
    Ge       Core       32      72.61   4.000000   1.170  0.000  1.750 Ge       
    Si       Core       14      28.09   4.000000   1.200  0.000  2.100 Si       
    O1       Core        8      16.00   1.733957   0.730  0.000  1.360 O1       
    O2       Core        8      16.00   0.870733   0.730  0.000  1.360 O2       
    O3       Core        8      16.00   1.330431   0.730  0.000  1.360 O3       
    O1       Shell       8       0.00  -3.733957   0.730  0.000  0.000 O1       
    O2       Shell       8       0.00  -2.870733   0.730  0.000  0.000 O2       
    O3       Shell       8       0.00  -3.330431   0.730  0.000  0.000 O3       
--------------------------------------------------------------------------------


  Lattice summation method               =    Ewald          (3-D)
                                         =    Parry          (2-D)
                                         =    Saunders et al (1-D)
  Accuracy factor for lattice sums       =   12.000


  Analytic derivatives to be used

  Time limit = Infinity

  Maximum range for interatomic potentials =    100000.000000 Angstroms

  General interatomic potentials :

--------------------------------------------------------------------------------
Atom  Types   Potential      Parameter       Value         Units   Cutoffs(Ang)
  1     2                                                            Min /  Max 
--------------------------------------------------------------------------------
Si   c O1   s Buckingham    Buckingham A     1315.2478    eV        0.000 16.000
                            Buckingham rho  0.31775900    Ang       
                            Buckingham C     10.141118    eV*Ang^6  
--------------------------------------------------------------------------------
Si   c O2   s Buckingham    Buckingham A     1315.2478    eV        0.000 16.000
                            Buckingham rho  0.31775900    Ang       
                            Buckingham C     10.141118    eV*Ang^6  
--------------------------------------------------------------------------------
Si   c O3   s Buckingham    Buckingham A     1315.2478    eV        0.000 16.000
                            Buckingham rho  0.31775900    Ang       
                            Buckingham C     10.141118    eV*Ang^6  
--------------------------------------------------------------------------------
Ge   c O1   s Buckingham    Buckingham A     1497.3996    eV        0.000 16.000
                            Buckingham rho  0.32564600    Ang       
                            Buckingham C     16.808599    eV*Ang^6  
--------------------------------------------------------------------------------
Ge   c O2   s Buckingham    Buckingham A     1497.3996    eV        0.000 16.000
                            Buckingham rho  0.32564600    Ang       
                            Buckingham C     16.808599    eV*Ang^6  
--------------------------------------------------------------------------------
Ge   c O3   s Buckingham    Buckingham A     1497.3996    eV        0.000 16.000
                            Buckingham rho  0.32564600    Ang       
                            Buckingham C     16.808599    eV*Ang^6  
--------------------------------------------------------------------------------
O1   s O1   s Buckingham    Buckingham A     22764.000    eV        0.000 16.000
                            Buckingham rho  0.14900000    Ang       
                            Buckingham C     10.937044    eV*Ang^6  
--------------------------------------------------------------------------------
O1   s O2   s Buckingham    Buckingham A     22764.000    eV        0.000 16.000
                            Buckingham rho  0.14900000    Ang       
                            Buckingham C     10.937044    eV*Ang^6  
--------------------------------------------------------------------------------
O1   s O3   s Buckingham    Buckingham A     22764.000    eV        0.000 16.000
                            Buckingham rho  0.14900000    Ang       
                            Buckingham C     10.937044    eV*Ang^6  
--------------------------------------------------------------------------------
O2   s O2   s Buckingham    Buckingham A     22764.000    eV        0.000 16.000
                            Buckingham rho  0.14900000    Ang       
                            Buckingham C     10.937044    eV*Ang^6  
--------------------------------------------------------------------------------
O2   s O3   s Buckingham    Buckingham A     22764.000    eV        0.000 16.000
                            Buckingham rho  0.14900000    Ang       
                            Buckingham C     10.937044    eV*Ang^6  
--------------------------------------------------------------------------------
O3   s O3   s Buckingham    Buckingham A     22764.000    eV        0.000 16.000
                            Buckingham rho  0.14900000    Ang       
                            Buckingham C     10.937044    eV*Ang^6  
--------------------------------------------------------------------------------
O1   c O1   s Spring (c-s)  Spring k 2       180.31577    eV*Ang^-2 0.000  0.800
                            Spring k 4       0.0000000    eV*Ang^-4 
--------------------------------------------------------------------------------
O2   c O2   s Spring (c-s)  Spring k 2       75.969800    eV*Ang^-2 0.000  0.800
                            Spring k 4       0.0000000    eV*Ang^-4 
--------------------------------------------------------------------------------
O3   c O3   s Spring (c-s)  Spring k 2       128.14270    eV*Ang^-2 0.000  0.800
                            Spring k 4       0.0000000    eV*Ang^-4 
--------------------------------------------------------------------------------

  General Three-body potentials :

--------------------------------------------------------------------------------
  Atoms       Potential      Parameter       Value         Units   Cutoffs(Ang)
  1 / 2 / 3                                                          Min /  Max 
--------------------------------------------------------------------------------
Si    core    Harmonic      Three-body cnst  1.2614000    eV*rad^-2 0.000  1.900
O1    shel                  Three-body angl  109.47000    degrees   0.000  1.900
O1    shel                  Three-body k4    0.0000000    eV*rad^-4 0.000  3.500
                            Three-body k3    0.0000000    eV*rad^-3 
--------------------------------------------------------------------------------
Si    core    Harmonic      Three-body cnst  1.2614000    eV*rad^-2 0.000  1.900
O1    shel                  Three-body angl  109.47000    degrees   0.000  1.900
õ(1   shel                  Three-body k4    0.0000000    eV*rad^-4 0.000  3.500
                            Three-body k3    0.0000000    eV*rad^-3 
--------------------------------------------------------------------------------
Si    core    Harmonic      Three-body cnst  1.2614000    eV*rad^-2 0.000  1.900
õ(1   shel                  Three-body angl  109.47000    degrees   0.000  1.900
õ(1   shel                  Three-body k4    0.0000000    eV*rad^-4 0.000  3.500
                            Three-body k3    0.0000000    eV*rad^-3 
--------------------------------------------------------------------------------
Si    core    Harmonic      Three-body cnst  1.2614000    eV*rad^-2 0.000  1.900
O1    shel                  Three-body angl  109.47000    degrees   0.000  1.900
O2    shel                  Three-body k4    0.0000000    eV*rad^-4 0.000  3.500
                            Three-body k3    0.0000000    eV*rad^-3 
--------------------------------------------------------------------------------
Si    core    Harmonic      Three-body cnst  1.2614000    eV*rad^-2 0.000  1.900
O1    shel                  Three-body angl  109.47000    degrees   0.000  1.900
õ(2   shel                  Three-body k4    0.0000000    eV*rad^-4 0.000  3.500
                            Three-body k3    0.0000000    eV*rad^-3 
--------------------------------------------------------------------------------
Si    core    Harmonic      Three-body cnst  1.2614000    eV*rad^-2 0.000  1.900
O2    shel                  Three-body angl  109.47000    degrees   0.000  1.900
õ(1   shel                  Three-body k4    0.0000000    eV*rad^-4 0.000  3.500
                            Three-body k3    0.0000000    eV*rad^-3 
--------------------------------------------------------------------------------
Si    core    Harmonic      Three-body cnst  1.2614000    eV*rad^-2 0.000  1.900
õ(1   shel                  Three-body angl  109.47000    degrees   0.000  1.900
õ(2   shel                  Three-body k4    0.0000000    eV*rad^-4 0.000  3.500
                            Three-body k3    0.0000000    eV*rad^-3 
--------------------------------------------------------------------------------
Si    core    Harmonic      Three-body cnst  1.2614000    eV*rad^-2 0.000  1.900
O2    shel                  Three-body angl  109.47000    degrees   0.000  1.900
O2    shel                  Three-body k4    0.0000000    eV*rad^-4 0.000  3.500
                            Three-body k3    0.0000000    eV*rad^-3 
--------------------------------------------------------------------------------
Si    core    Harmonic      Three-body cnst  1.2614000    eV*rad^-2 0.000  1.900
O2    shel                  Three-body angl  109.47000    degrees   0.000  1.900
õ(2   shel                  Three-body k4    0.0000000    eV*rad^-4 0.000  3.500
                            Three-body k3    0.0000000    eV*rad^-3 
--------------------------------------------------------------------------------
Si    core    Harmonic      Three-body cnst  1.2614000    eV*rad^-2 0.000  1.900
õ(2   shel                  Three-body angl  109.47000    degrees   0.000  1.900
õ(2   shel                  Three-body k4    0.0000000    eV*rad^-4 0.000  3.500
                            Three-body k3    0.0000000    eV*rad^-3 
--------------------------------------------------------------------------------

********************************************************************************
*  Output for configuration   1 : c00712.vasp                                  *
********************************************************************************


  Components of energy : 

--------------------------------------------------------------------------------
  Interatomic potentials     =         896.60803819 eV    
  Three-body potentials      =           0.00000000 eV    
  Monopole - monopole (real) =       -2676.00317478 eV    
  Monopole - monopole (recip)=       -1115.35404472 eV    
  Monopole - monopole (total)=       -3791.35721950 eV    
--------------------------------------------------------------------------------
  Total lattice energy       =       -2894.74918131 eV    
--------------------------------------------------------------------------------
  Total lattice energy       =         -279299.0457 kJ/(mole unit cells)
--------------------------------------------------------------------------------


  Number of variables =      363

  Maximum number of calculations  =          1000
  Maximum Hessian update interval =            10
  Maximum step size               =   0.100000000
  Maximum parameter tolerance     =   0.000010000
  Maximum function  tolerance     =   0.000010000
  Maximum gradient  tolerance     =   0.001000000
  Maximum gradient  component     =   0.010000000

  Symmetry not applied to optimisation

  Cell parameters to be optimised using strains

  Newton-Raphson optimiser to be used

  BFGS hessian update to be used

  Lower half triangular hessian to be used

  Minimiser to switch to RFO
  When gradient norm is less than     0.050000

  Dumpfile to be written after every cycle

  Start of bulk optimisation :

  Cycle:      0 Energy:     -2894.749181  Gnorm:      5.841661  CPU:    0.108
  ** Hessian calculated **
  Cycle:      1 Energy:     -2938.312054  Gnorm:      1.408360  CPU:    0.256
  ** Hessian calculated **
  Cycle:      2 Energy:     -2943.231531  Gnorm:      0.807812  CPU:    0.461
  Cycle:      3 Energy:     -2944.190574  Gnorm:      0.400306  CPU:    0.566
  Cycle:      4 Energy:     -2944.728249  Gnorm:      0.325998  CPU:    0.686
  Cycle:      5 Energy:     -2945.381009  Gnorm:      0.273754  CPU:    0.806
  Cycle:      6 Energy:     -2946.081574  Gnorm:      0.228701  CPU:    0.931
  Cycle:      7 Energy:     -2946.460360  Gnorm:      0.166850  CPU:    1.033
  Cycle:      8 Energy:     -2946.597413  Gnorm:      0.114512  CPU:    1.133
  Cycle:      9 Energy:     -2946.644725  Gnorm:      0.081906  CPU:    1.240
  Cycle:     10 Energy:     -2946.685260  Gnorm:      0.074175  CPU:    1.359
  Cycle:     11 Energy:     -2946.719341  Gnorm:      0.071868  CPU:    1.480
  ** Hessian calculated **
  Cycle:     12 Energy:     -2946.733958  Gnorm:      0.070939  CPU:    1.686
  Cycle:     13 Energy:     -2946.757858  Gnorm:      0.069360  CPU:    1.825
  Cycle:     14 Energy:     -2946.790236  Gnorm:      0.067024  CPU:    1.966
  Cycle:     15 Energy:     -2946.814798  Gnorm:      0.064945  CPU:    2.089
  ** Hessian calculated **
  Cycle:     16 Energy:     -2946.858095  Gnorm:      0.062118  CPU:    2.295
  Cycle:     17 Energy:     -2946.954655  Gnorm:      0.054040  CPU:    2.436
  Cycle:     18 Energy:     -2947.044723  Gnorm:      0.045863  CPU:    2.560
  ** Hessian has wrong structure
  ** Imaginary eigenvectors =   6
  Cycle:     19 Energy:     -2947.090954  Gnorm:      0.105578  CPU:    2.845
  ** Hessian has wrong structure
  ** Imaginary eigenvectors =   5
  ** Hessian has wrong structure
  ** Imaginary eigenvectors =   4
  Cycle:     20 Energy:     -2947.155297  Gnorm:      0.121059  CPU:    3.353
  ** Hessian has wrong structure
  ** Imaginary eigenvectors =   2
  ** Hessian has required structure
  Cycle:     21 Energy:     -2947.628970  Gnorm:      0.091019  CPU:    3.838
  ** Hessian has required structure
  Cycle:     22 Energy:     -2947.775972  Gnorm:      0.050899  CPU:    4.014
  ** Hessian has required structure
  Cycle:     23 Energy:     -2947.834519  Gnorm:      0.064541  CPU:    4.189
  ** Hessian has required structure
  Cycle:     24 Energy:     -2947.876716  Gnorm:      0.038906  CPU:    4.325
  ** Hessian has required structure
  Cycle:     25 Energy:     -2947.919674  Gnorm:      0.064755  CPU:    4.482
  ** Hessian has required structure
  Cycle:     26 Energy:     -2947.941062  Gnorm:      0.056010  CPU:    4.636
  ** Hessian has required structure
  Cycle:     27 Energy:     -2947.954030  Gnorm:      0.066000  CPU:    4.813
  ** Hessian has required structure
  Cycle:     28 Energy:     -2947.990660  Gnorm:      0.043390  CPU:    4.984
  ** Hessian has required structure
  Cycle:     29 Energy:     -2948.015493  Gnorm:      0.046357  CPU:    5.141
  ** Hessian has required structure
  Cycle:     30 Energy:     -2948.036423  Gnorm:      0.038044  CPU:    5.301
  ** Hessian has required structure
  Cycle:     31 Energy:     -2948.072892  Gnorm:      0.024457  CPU:    5.584
  ** Hessian has required structure
  Cycle:     32 Energy:     -2948.084934  Gnorm:      0.015448  CPU:    5.750
  ** Hessian has required structure
  Cycle:     33 Energy:     -2948.089708  Gnorm:      0.008466  CPU:    5.924
  ** Hessian has required structure
  Cycle:     34 Energy:     -2948.091492  Gnorm:      0.005456  CPU:    6.106
  ** Hessian has required structure
  Cycle:     35 Energy:     -2948.092026  Gnorm:      0.002434  CPU:    6.267
  ** Hessian has required structure
  Cycle:     36 Energy:     -2948.092257  Gnorm:      0.002209  CPU:    6.428
  ** Hessian has required structure
  Cycle:     37 Energy:     -2948.092340  Gnorm:      0.001020  CPU:    6.589
  ** Hessian has required structure
  Cycle:     38 Energy:     -2948.092369  Gnorm:      0.000499  CPU:    6.772
  ** Hessian has required structure
  Cycle:     39 Energy:     -2948.092372  Gnorm:      0.000400  CPU:    6.914
  ** Hessian has required structure
  Cycle:     40 Energy:     -2948.092373  Gnorm:      0.000327  CPU:    7.056
  ** Hessian has required structure
  Cycle:     41 Energy:     -2948.092376  Gnorm:      0.000229  CPU:    7.278
  ** Hessian has required structure
  Cycle:     42 Energy:     -2948.092378  Gnorm:      0.000138  CPU:    7.440
  ** Hessian has required structure
  Cycle:     43 Energy:     -2948.092378  Gnorm:      0.000097  CPU:    7.581
  ** Hessian has required structure
  Cycle:     44 Energy:     -2948.092378  Gnorm:      0.000089  CPU:    7.799
  ** Hessian has required structure
  Cycle:     45 Energy:     -2948.092378  Gnorm:      0.000088  CPU:    8.001
  ** Hessian has required structure
  Cycle:     46 Energy:     -2948.092378  Gnorm:      0.000090  CPU:    8.321
  ** Hessian calculated **


  **** Optimisation achieved ****


  Final energy =   -2948.09237834 eV      
  Final Gnorm  =       0.00009171

  Components of energy : 

--------------------------------------------------------------------------------
  Interatomic potentials     =         780.47521961 eV    
  Three-body potentials      =           0.00000000 eV    
  Monopole - monopole (real) =       -1558.16480512 eV    
  Monopole - monopole (recip)=       -2170.40279282 eV    
  Monopole - monopole (total)=       -3728.56759794 eV    
--------------------------------------------------------------------------------
  Total lattice energy       =       -2948.09237834 eV    
--------------------------------------------------------------------------------
  Total lattice energy       =         -284445.8488 kJ/(mole unit cells)
--------------------------------------------------------------------------------

  Final fractional coordinates of atoms :

--------------------------------------------------------------------------------
   No.  Atomic        x           y          z          Radius
        Label       (Frac)      (Frac)     (Frac)       (Angs) 
--------------------------------------------------------------------------------
     1  Ge    c     0.052090    0.000000    0.372270    0.000000
     2  Ge    c     0.444826    0.053017    0.386105    0.000000
     3  Ge    c     0.948142    0.023805    0.626707    0.000000
     4  Ge    c     0.552158    0.983232    0.136529    0.000000
     5  Ge    c     0.937890    0.040161    0.135805    0.000000
     6  Ge    c     0.448840    0.047689    0.878850    0.000000
     7  Ge    c     0.049062    0.982366    0.891288    0.000000
     8  Ge    c     0.168728    0.296064    0.269900    0.000000
     9  Ge    c     0.321222    0.771823    0.270215    0.000000
    10  Ge    c     0.846665    0.338353    0.696014    0.000000
    11  Ge    c     0.642221    0.669984    0.699472    0.000000
    12  Ge    c     0.823071    0.745990    0.700332    0.000000
    13  Ge    c     0.666518    0.265353    0.698663    0.000000
    14  Ge    c     0.351704    0.367732    0.271317    0.000000
    15  Ge    c     0.671539    0.264372    0.017867    0.000000
    16  Ge    c     0.822245    0.744519    0.017259    0.000000
    17  Ge    c     0.349336    0.358575    0.951401    0.000000
    18  Ge    c     0.323754    0.763399    0.947271    0.000000
    19  Ge    c     0.169076    0.279465    0.955159    0.000000
    20  Ge    c     0.641880    0.665325    0.018663    0.000000
    21  Si    c     0.547922    0.982739    0.630267    0.000000
    22  Si    c     0.147324    0.690299    0.258452    0.000000
    23  Si    c     0.151680    0.675105    0.946253    0.000000
    24  Si    c     0.847262    0.344613    0.008358    0.000000
    25  O1    c     0.121587    0.154051    0.368997    0.000000
    26  O1    c     0.365318    0.928854    0.359746    0.000000
    27  O1    c     0.913081    0.227706    0.610276    0.000000
    28  O3    c     0.578835    0.792100    0.609560    0.000000
    29  O1    c     0.873487    0.881810    0.602408    0.000000
    30  O3    c     0.614681    0.120945    0.603322    0.000000
    31  O3    c     0.078911    0.800491    0.312462    0.000000
    32  O1    c     0.418468    0.260483    0.360892    0.000000
    33  O1    c     0.025536    0.981215    0.534555    0.000000
    34  O3    c     0.473333    0.023155    0.547995    0.000000
    35  O1    c     0.969011    0.054188    0.295610    0.000000
    36  O1    c     0.521704    0.994796    0.295713    0.000000
    37  O1    c     0.974018    0.002919    0.789681    0.000000
    38  O3    c     0.525730    0.001563    0.784212    0.000000
    39  O1    c     0.631450    0.110317    0.113514    0.000000
    40  O1    c     0.868657    0.884598    0.120508    0.000000
    41  O1    c     0.412252    0.247841    0.857110    0.000000
    42  O3    c     0.085383    0.775726    0.876935    0.000000
    43  O1    c     0.375724    0.901780    0.855376    0.000000
    44  O1    c     0.117424    0.137153    0.861661    0.000000
    45  O1    c     0.574684    0.773831    0.104096    0.000000
    46  O3    c     0.908188    0.242495    0.091772    0.000000
    47  O1    c     0.478208    0.046054    0.040364    0.000000
    48  O1    c     0.017943    0.992534    0.050079    0.000000
    49  O3    c     0.151431    0.504643    0.324511    0.000000
    50  O1    c     0.343235    0.573290    0.329486    0.000000
    51  O1    c     0.835106    0.540880    0.639697    0.000000
    52  O1    c     0.651742    0.468134    0.636444    0.000000
    53  O1    c     0.264513    0.265267    0.276940    0.000000
    54  O3    c     0.224181    0.799967    0.282793    0.000000
    55  O1    c     0.761584    0.226008    0.689827    0.000000
    56  O1    c     0.727316    0.781104    0.700583    0.000000
    57  O1    c     0.136516    0.257697    0.113206    0.000000
    58  O1    c     0.349573    0.787637    0.109609    0.000000
    59  O3    c     0.874865    0.360726    0.859078    0.000000
    60  O1    c     0.612536    0.644992    0.858053    0.000000
    61  O1    c     0.854655    0.768841    0.860410    0.000000
    62  O1    c     0.637643    0.254005    0.859459    0.000000
    63  O2    c     0.140858    0.645708    0.103160    0.000000
    64  O1    c     0.380635    0.377275    0.111229    0.000000
    65  O1    c     0.652011    0.463689    0.081289    0.000000
    66  O3    c     0.835054    0.533272    0.067116    0.000000
    67  O1    c     0.339892    0.559155    0.890578    0.000000
    68  O3    c     0.158802    0.484768    0.889773    0.000000
    69  O3    c     0.768465    0.236575    0.010533    0.000000
    70  O1    c     0.726610    0.777904    0.022383    0.000000
    71  O1    c     0.264564    0.244085    0.954434    0.000000
    72  O3    c     0.227163    0.792460    0.930728    0.000000
    73  O1    s     0.119759    0.152855    0.361652    0.000000
    74  O1    s     0.367940    0.925881    0.354605    0.000000
    75  O1    s     0.910589    0.221371    0.617929    0.000000
    76  O3    s     0.580650    0.801040    0.618254    0.000000
    77  O1    s     0.875054    0.881719    0.611696    0.000000
    78  O3    s     0.612428    0.119218    0.613280    0.000000
    79  O3    s     0.083793    0.804684    0.311571    0.000000
    80  O1    s     0.415495    0.252740    0.356156    0.000000
    81  O1    s     0.021386    0.985886    0.530075    0.000000
    82  O3    s     0.478556    0.021478    0.543906    0.000000
    83  O1    s     0.972787    0.049168    0.289556    0.000000
    84  O1    s     0.518133    0.998386    0.290592    0.000000
    85  O1    s     0.978240    0.002817    0.786179    0.000000
    86  O3    s     0.521434    0.003614    0.778220    0.000000
    87  O1    s     0.628677    0.112975    0.107686    0.000000
    88  O1    s     0.870341    0.885606    0.113682    0.000000
    89  O1    s     0.410296    0.241240    0.865715    0.000000
    90  O3    s     0.089477    0.780740    0.885016    0.000000
    91  O1    s     0.376995    0.901566    0.864412    0.000000
    92  O1    s     0.116366    0.136709    0.870951    0.000000
    93  O1    s     0.578165    0.781069    0.099938    0.000000
    94  O3    s     0.904381    0.236839    0.086832    0.000000
    95  O1    s     0.481668    0.041399    0.035950    0.000000
    96  O1    s     0.014246    0.995402    0.044719    0.000000
    97  O3    s     0.152318    0.507017    0.314129    0.000000
    98  O1    s     0.342239    0.572703    0.320712    0.000000
    99  O1    s     0.835135    0.539808    0.648491    0.000000
   100  O1    s     0.652060    0.469112    0.645655    0.000000
   101  O1    s     0.263657    0.275100    0.275997    0.000000
   102  O3    s     0.224377    0.787520    0.279529    0.000000
   103  O1    s     0.760590    0.236995    0.690948    0.000000
   104  O1    s     0.728219    0.770391    0.700503    0.000000
   105  O1    s     0.141272    0.262095    0.113325    0.000000
   106  O1    s     0.345581    0.784697    0.109590    0.000000
   107  O3    s     0.870058    0.357479    0.860978    0.000000
   108  O1    s     0.616945    0.648375    0.857970    0.000000
   109  O1    s     0.849945    0.765391    0.860744    0.000000
   110  O1    s     0.642253    0.255606    0.859358    0.000000
   111  O2    s     0.142630    0.652985    0.103391    0.000000
   112  O1    s     0.376154    0.375183    0.111502    0.000000
   113  O1    s     0.652677    0.464168    0.071963    0.000000
   114  O3    s     0.835271    0.530886    0.057713    0.000000
   115  O1    s     0.339441    0.558427    0.899602    0.000000
   116  O3    s     0.158870    0.488424    0.900161    0.000000
   117  O3    s     0.768206    0.248706    0.010892    0.000000
   118  O1    s     0.727594    0.767162    0.021713    0.000000
   119  O1    s     0.263436    0.254819    0.954288    0.000000
   120  O3    s     0.227670    0.779421    0.933496    0.000000
--------------------------------------------------------------------------------

  Final Cartesian lattice vectors (Angstroms) :

       17.644772   -0.136616   -0.043021
       -0.061716    7.801384   -0.027342
       -0.028914   -0.035006   10.188900


  Final cell parameters and derivatives :

--------------------------------------------------------------------------------
       a           17.645353 Angstrom     dE/de1(xx)     0.008930 eV/strain
       b            7.801676 Angstrom     dE/de2(yy)     0.007714 eV/strain
       c           10.189002 Angstrom     dE/de3(zz)     0.003358 eV/strain
       alpha       90.396357 Degrees      dE/de4(yz)    -0.000123 eV/strain
       beta        90.300755 Degrees      dE/de5(xz)    -0.000103 eV/strain
       gamma       90.896360 Degrees      dE/de6(xy)     0.000423 eV/strain
--------------------------------------------------------------------------------

  Primitive cell volume =          1402.426457 Angs**3

  Density of cell =      2.761905 g/cm**3

  Non-primitive cell volume =          1402.426457 Angs**3


  Final internal derivatives :

--------------------------------------------------------------------------------
   No.  Atomic          a             b             c           Radius
        Label          (eV)          (eV)          (eV)        (eV/Angs)
--------------------------------------------------------------------------------
      1 Ge    c       0.000000      0.000000      0.000000      0.000000
      2 Ge    c       0.000385      0.000140      0.000286      0.000000
      3 Ge    c       0.001291     -0.000060      0.000397      0.000000
      4 Ge    c      -0.000561     -0.000415      0.000595      0.000000
      5 Ge    c       0.001250     -0.001841      0.005225      0.000000
      6 Ge    c       0.000557     -0.000045      0.000126      0.000000
      7 Ge    c       0.001036     -0.000756     -0.000348      0.000000
      8 Ge    c      -0.000378     -0.000128      0.000057      0.000000
      9 Ge    c       0.000555      0.000210     -0.000250      0.000000
     10 Ge    c      -0.000165      0.000622     -0.000529      0.000000
     11 Ge    c      -0.000863      0.000431      0.000555      0.000000
     12 Ge    c       0.000550      0.000515      0.001665      0.000000
     13 Ge    c      -0.001219     -0.000139      0.000231      0.000000
     14 Ge    c       0.000610     -0.000065     -0.000422      0.000000
     15 Ge    c      -0.002676     -0.001223     -0.000914      0.000000
     16 Ge    c       0.000265     -0.000072     -0.003359      0.000000
     17 Ge    c       0.000699      0.000187      0.000324      0.000000
     18 Ge    c       0.000199     -0.000113      0.000279      0.000000
     19 Ge    c       0.000231     -0.000169      0.000240      0.000000
     20 Ge    c      -0.001532      0.000842     -0.000838      0.000000
     21 Si    c      -0.000125      0.000081      0.000300      0.000000
     22 Si    c      -0.000468      0.000309      0.000019      0.000000
     23 Si    c      -0.000825      0.000195      0.000448      0.000000
     24 Si    c      -0.004391      0.002070     -0.000171      0.000000
     25 O1    c       0.000799      0.000474      0.000046      0.000000
     26 O1    c      -0.001167     -0.000561     -0.000251      0.000000
     27 O1    c      -0.002657      0.002396     -0.001719      0.000000
     28 O3    c       0.000980     -0.000615     -0.000247      0.000000
     29 O1    c      -0.003619     -0.002264     -0.002477      0.000000
     30 O3    c       0.000692      0.000252     -0.000202      0.000000
     31 O3    c      -0.000162      0.000099      0.000028      0.000000
     32 O1    c       0.000345     -0.000108      0.000044      0.000000
     33 O1    c       0.006219     -0.000047     -0.002436      0.000000
     34 O3    c      -0.001394      0.000141     -0.000844      0.000000
     35 O1    c      -0.004503      0.000329     -0.002798      0.000000
     36 O1    c       0.000528      0.000005     -0.000224      0.000000
     37 O1    c      -0.002144     -0.000397      0.001610      0.000000
     38 O3    c       0.000826     -0.000086     -0.000011      0.000000
     39 O1    c       0.003796      0.001536     -0.000416      0.000000
     40 O1    c      -0.004389     -0.003375      0.002635      0.000000
     41 O1    c       0.000063     -0.000055     -0.000186      0.000000
     42 O3    c      -0.000353      0.000425     -0.000048      0.000000
     43 O1    c       0.000426      0.000179     -0.000363      0.000000
     44 O1    c       0.000486      0.000111     -0.000213      0.000000
     45 O1    c       0.001372     -0.000677     -0.000554      0.000000
     46 O3    c      -0.000606      0.006349      0.000005      0.000000
     47 O1    c      -0.002495      0.000202     -0.001225      0.000000
     48 O1    c       0.018822     -0.001123     -0.005942      0.000000
     49 O3    c      -0.000020     -0.000201      0.000284      0.000000
     50 O1    c      -0.000027      0.000161      0.000209      0.000000
     51 O1    c       0.001040     -0.001990     -0.001283      0.000000
     52 O1    c      -0.000285     -0.000844     -0.000586      0.000000
     53 O1    c      -0.000118     -0.000185      0.000056      0.000000
     54 O3    c      -0.000018      0.000205      0.000096      0.000000
     55 O1    c      -0.002035     -0.001188      0.000210      0.000000
     56 O1    c      -0.002266      0.000952     -0.000545      0.000000
     57 O1    c       0.000389     -0.000166     -0.000113      0.000000
     58 O1    c      -0.000597     -0.000104      0.000655      0.000000
     59 O3    c       0.005183     -0.000625     -0.002523      0.000000
     60 O1    c       0.000731     -0.000368      0.001123      0.000000
     61 O1    c      -0.000432      0.000736      0.000570      0.000000
     62 O1    c      -0.000666      0.000299      0.000845      0.000000
     63 O2    c       0.000120      0.000182     -0.000772      0.000000
     64 O1    c      -0.000530     -0.000010      0.000303      0.000000
     65 O1    c      -0.001224      0.001442      0.001728      0.000000
     66 O3    c       0.000744     -0.002917      0.001046      0.000000
     67 O1    c       0.000057      0.000060     -0.000170      0.000000
     68 O3    c       0.000144      0.000015     -0.000467      0.000000
     69 O3    c      -0.001173     -0.002394     -0.000821      0.000000
     70 O1    c      -0.004761      0.001036      0.000830      0.000000
     71 O1    c      -0.000880     -0.000538     -0.000008      0.000000
     72 O3    c       0.000725      0.000402     -0.000184      0.000000
     73 O1    s       0.000359     -0.000117     -0.000093      0.000000
     74 O1    s       0.000744      0.000241     -0.000048      0.000000
     75 O1    s       0.001191     -0.000152      0.000100      0.000000
     76 O3    s      -0.000744      0.000103      0.000080      0.000000
     77 O1    s       0.000867      0.000590      0.000207      0.000000
     78 O3    s      -0.000407      0.000122      0.000082      0.000000
     79 O3    s       0.000225     -0.000371     -0.000116      0.000000
     80 O1    s      -0.000321      0.000053     -0.000037      0.000000
     81 O1    s      -0.000689     -0.000228      0.001664      0.000000
     82 O3    s       0.000268      0.000003      0.000339      0.000000
     83 O1    s       0.004120     -0.000257      0.003466      0.000000
     84 O1    s      -0.000958     -0.000090      0.000426      0.000000
     85 O1    s       0.002791      0.001162     -0.000023      0.000000
     86 O3    s      -0.001112      0.000009     -0.000095      0.000000
     87 O1    s      -0.001698     -0.000969      0.000348      0.000000
     88 O1    s      -0.001219      0.000348      0.000670      0.000000
     89 O1    s       0.000188      0.000066      0.000148      0.000000
     90 O3    s       0.000102     -0.000359      0.000206      0.000000
     91 O1    s      -0.000377     -0.000072      0.000268      0.000000
     92 O1    s      -0.000286      0.000017      0.000130      0.000000
     93 O1    s      -0.000780     -0.000139      0.000162      0.000000
     94 O3    s       0.000968     -0.000719      0.002358      0.000000
     95 O1    s       0.000223     -0.000046      0.000757      0.000000
     96 O1    s      -0.002437      0.000820      0.002639      0.000000
     97 O3    s       0.000079      0.000020     -0.000334      0.000000
     98 O1    s      -0.000043      0.000019     -0.000265      0.000000
     99 O1    s      -0.001102      0.000925      0.000903      0.000000
    100 O1    s       0.000102      0.000410     -0.000412      0.000000
    101 O1    s       0.000205      0.000087     -0.000075      0.000000
    102 O3    s       0.000460     -0.000165     -0.000092      0.000000
    103 O1    s       0.000611      0.000395     -0.000584      0.000000
    104 O1    s       0.000140     -0.000435      0.000949      0.000000
    105 O1    s      -0.000657      0.000250     -0.000113      0.000000
    106 O1    s       0.000339      0.000135     -0.000140      0.000000
    107 O3    s       0.003517      0.001326     -0.000809      0.000000
    108 O1    s      -0.000054      0.000562     -0.000243      0.000000
    109 O1    s       0.000716     -0.001618     -0.001095      0.000000
    110 O1    s      -0.000873     -0.000634     -0.000864      0.000000
    111 O2    s       0.000116     -0.000329      0.000008      0.000000
    112 O1    s       0.000375      0.000001     -0.000092      0.000000
    113 O1    s       0.000796     -0.000370     -0.000529      0.000000
    114 O3    s      -0.000867      0.001645     -0.000194      0.000000
    115 O1    s       0.000117     -0.000007      0.000007      0.000000
    116 O3    s      -0.000536     -0.000056      0.000562      0.000000
    117 O3    s      -0.003218      0.000362      0.001650      0.000000
    118 O1    s      -0.000502     -0.000111     -0.000870      0.000000
    119 O1    s       0.000212      0.000269      0.000099      0.000000
    120 O3    s      -0.000502     -0.000185      0.000264      0.000000
--------------------------------------------------------------------------------
  Maximum abs         0.018822      0.006349      0.005942      0.000000
--------------------------------------------------------------------------------


  Born effective charge tensors : 

-------------------------------------------------------------------------------
  Atom             x           y             z
-------------------------------------------------------------------------------
    1 Ge    x       4.1533     -0.1523     -0.4759
            y       0.2254      3.9022      0.1752
            z      -0.1867     -0.1078      4.4449
-------------------------------------------------------------------------------
    2 Ge    x       4.2138     -0.3257      0.4596
            y       0.1310      3.9056     -0.0706
            z       0.2298     -0.0634      4.3485
-------------------------------------------------------------------------------
    3 Ge    x       4.1988     -0.2645      0.0746
            y       0.1231      3.8811     -0.0058
            z      -0.8121      0.1480      4.2911
-------------------------------------------------------------------------------
    4 Ge    x       4.2528     -0.2498     -0.3825
            y       0.1673      3.9250      0.0617
            z      -0.3336      0.0133      4.0640
-------------------------------------------------------------------------------
    5 Ge    x       4.3193     -0.1458      0.4260
            y       0.1558      3.9216     -0.1125
            z       0.3348      0.0262      3.9084
-------------------------------------------------------------------------------
    6 Ge    x       4.2345     -0.1455      0.1058
            y       0.1014      3.9334      0.0024
            z      -0.6277      0.1699      3.6669
-------------------------------------------------------------------------------
    7 Ge    x       4.2822     -0.1696     -0.0339
            y       0.1451      3.9292     -0.0523
            z       0.6684     -0.1378      3.6965
-------------------------------------------------------------------------------
    8 Ge    x       3.9500      0.2672     -0.2256
            y       0.2667      4.2101     -0.1495
            z       0.0247     -0.2363      3.5583
-------------------------------------------------------------------------------
    9 Ge    x       3.9037      0.2993      0.2489
            y       0.2543      4.1895      0.0592
            z       0.0784      0.1869      3.6348
-------------------------------------------------------------------------------
   10 Ge    x       3.9560     -0.0929     -0.2627
            y      -0.4508      4.1992      0.0939
            z      -0.1078      0.1951      3.5153
-------------------------------------------------------------------------------
   11 Ge    x       3.8479     -0.0420      0.1750
            y      -0.4164      4.2610     -0.0930
            z      -0.0061     -0.1728      3.5006
-------------------------------------------------------------------------------
   12 Ge    x       4.0554      0.2621     -0.2938
            y       0.2776      4.1716     -0.0708
            z      -0.0235     -0.1289      3.5834
-------------------------------------------------------------------------------
   13 Ge    x       4.0125      0.2101      0.2554
            y       0.2411      4.1332      0.0062
            z      -0.0166      0.0743      3.5086
-------------------------------------------------------------------------------
   14 Ge    x       3.9881     -0.1068      0.2055
            y      -0.4728      4.1933     -0.1158
            z       0.1311     -0.1978      3.6354
-------------------------------------------------------------------------------
   15 Ge    x       3.9160      0.2511     -0.3189
            y       0.2448      4.1796     -0.0759
            z      -0.0197     -0.1986      3.5543
-------------------------------------------------------------------------------
   16 Ge    x       4.0355      0.2408      0.2956
            y       0.2800      4.1692      0.1552
            z       0.0108      0.2238      3.5028
-------------------------------------------------------------------------------
   17 Ge    x       4.0180     -0.1150     -0.3156
            y      -0.4460      4.1984      0.0935
            z      -0.1364      0.1657      3.4788
-------------------------------------------------------------------------------
   18 Ge    x       4.0093      0.3020     -0.3196
            y       0.3692      4.1293     -0.0508
            z      -0.1445     -0.1142      3.4982
-------------------------------------------------------------------------------
   19 Ge    x       4.0378      0.2883      0.2780
            y       0.3408      4.1830      0.0994
            z       0.0044      0.1921      3.3992
-------------------------------------------------------------------------------
   20 Ge    x       4.0280     -0.0659     -0.2495
            y      -0.4577      4.1859      0.0591
            z      -0.1357      0.1875      3.5133
-------------------------------------------------------------------------------
   21 Si    x       3.8165     -0.2366     -0.1327
            y       0.0655      3.6784     -0.0062
            z       0.7572     -0.1556      3.8320
-------------------------------------------------------------------------------
   22 Si    x       3.6383     -0.0801     -0.1475
            y      -0.4326      3.9103     -0.0047
            z      -0.2023      0.2146      2.9895
-------------------------------------------------------------------------------
   23 Si    x       3.6629     -0.0406      0.2726
            y      -0.4076      3.8755     -0.0647
            z       0.2222     -0.2037      2.9369
-------------------------------------------------------------------------------
   24 Si    x       3.7254     -0.0624      0.2797
            y      -0.4253      3.8958     -0.0840
            z       0.1181     -0.2067      3.2569
-------------------------------------------------------------------------------
   25 O1    x      -2.1070     -0.9171      0.4617
            y      -0.9761     -2.4327      0.4658
            z       0.4410      0.5278     -1.6561
-------------------------------------------------------------------------------
   26 O1    x      -2.2909     -0.9098     -0.5653
            y      -0.9529     -2.2874     -0.5206
            z      -0.5369     -0.5515     -1.6755
-------------------------------------------------------------------------------
   27 O1    x      -2.0201      0.8934      0.3616
            y       0.8512     -2.4889     -0.2989
            z       0.4540     -0.3480     -1.6037
-------------------------------------------------------------------------------
   28 O3    x      -1.7720      0.8144     -0.2408
            y       0.7809     -2.4972      0.2287
            z      -0.3239      0.2454     -1.4384
-------------------------------------------------------------------------------
   29 O1    x      -2.2268     -0.8809      0.3124
            y      -0.9647     -2.2359      0.3488
            z       0.3942      0.3533     -1.6343
-------------------------------------------------------------------------------
   30 O3    x      -2.0831     -0.8566     -0.2052
            y      -0.9019     -2.1472     -0.2272
            z      -0.2942     -0.2330     -1.4693
-------------------------------------------------------------------------------
   31 O3    x      -2.0058      0.8967      0.4945
            y       0.8232     -2.3116     -0.5297
            z       0.4393     -0.5230     -1.5041
-------------------------------------------------------------------------------
   32 O1    x      -1.9506      0.8324     -0.5328
            y       0.7864     -2.5697      0.5409
            z      -0.5001      0.5379     -1.6740
-------------------------------------------------------------------------------
   33 O1    x      -2.0903      0.1768      0.9427
            y       0.0484     -1.2761     -0.0448
            z       1.1579     -0.0880     -3.1129
-------------------------------------------------------------------------------
   34 O3    x      -2.0515      0.2867     -0.8649
            y       0.1254     -1.2271      0.1759
            z      -1.0928      0.3259     -2.7473
-------------------------------------------------------------------------------
   35 O1    x      -2.2144      0.2444     -0.7886
            y       0.1474     -1.3317      0.0988
            z      -0.8164      0.1063     -2.6694
-------------------------------------------------------------------------------
   36 O1    x      -2.0769      0.2683      0.8018
            y       0.1392     -1.3091     -0.1862
            z       0.8595     -0.2376     -2.8100
-------------------------------------------------------------------------------
   37 O1    x      -2.1587      0.1809     -0.8974
            y       0.0613     -1.3346      0.1448
            z      -0.8542      0.1685     -2.6804
-------------------------------------------------------------------------------
   38 O3    x      -1.9178      0.1911      0.7136
            y       0.0866     -1.2783     -0.1534
            z       0.6982     -0.2063     -2.5183
-------------------------------------------------------------------------------
   39 O1    x      -2.2471     -0.8718      0.5427
            y      -0.9017     -2.2825      0.5390
            z       0.4693      0.5297     -1.6128
-------------------------------------------------------------------------------
   40 O1    x      -2.1611     -0.9168     -0.5295
            y      -0.9363     -2.4018     -0.5260
            z      -0.4570     -0.5208     -1.6015
-------------------------------------------------------------------------------
   41 O1    x      -2.0574      0.8767      0.3805
            y       0.8565     -2.5113     -0.3024
            z       0.4300     -0.3266     -1.4937
-------------------------------------------------------------------------------
   42 O3    x      -2.0818      0.8959     -0.3770
            y       0.8376     -2.2697      0.2903
            z      -0.4411      0.3481     -1.3494
-------------------------------------------------------------------------------
   43 O1    x      -2.3183     -0.9425      0.3448
            y      -0.9984     -2.2723      0.3386
            z       0.4386      0.3663     -1.5052
-------------------------------------------------------------------------------
   44 O1    x      -2.1630     -0.9130     -0.2766
            y      -0.9851     -2.4213     -0.3093
            z      -0.3543     -0.3419     -1.4859
-------------------------------------------------------------------------------
   45 O1    x      -1.9948      0.7993      0.5228
            y       0.7354     -2.5550     -0.5388
            z       0.4722     -0.5217     -1.5609
-------------------------------------------------------------------------------
   46 O3    x      -1.9687      0.8338     -0.6065
            y       0.7429     -2.2901      0.5883
            z      -0.5062      0.5663     -1.5272
-------------------------------------------------------------------------------
   47 O1    x      -2.1315      0.2436     -0.7316
            y       0.1502     -1.3806      0.1872
            z      -0.5076      0.1497     -2.3684
-------------------------------------------------------------------------------
   48 O1    x      -2.2602      0.2544      0.7550
            y       0.1692     -1.3805     -0.1668
            z       0.5022     -0.1262     -2.2248
-------------------------------------------------------------------------------
   49 O3    x      -1.2385      0.1208      0.0557
            y       0.2216     -2.9792      0.2098
            z       0.0236      0.2160     -1.3682
-------------------------------------------------------------------------------
   50 O1    x      -1.3863      0.2399     -0.0973
            y       0.3379     -3.1452      0.0057
            z      -0.0699      0.0107     -1.3886
-------------------------------------------------------------------------------
   51 O1    x      -1.3420      0.1639      0.0701
            y       0.2682     -3.1845      0.0070
            z       0.0142      0.0470     -1.4032
-------------------------------------------------------------------------------
   52 O1    x      -1.3436      0.1667     -0.0878
            y       0.2760     -3.2212     -0.0099
            z      -0.0342     -0.0224     -1.3969
-------------------------------------------------------------------------------
   53 O1    x      -3.0757     -0.2397     -0.0136
            y      -0.1440     -1.5744      0.0333
            z      -0.0537      0.0578     -1.2203
-------------------------------------------------------------------------------
   54 O3    x      -2.7842     -0.3622     -0.0876
            y      -0.2951     -1.5195     -0.0743
            z      -0.1013     -0.1230     -1.1886
-------------------------------------------------------------------------------
   55 O1    x      -3.0684     -0.2614     -0.0014
            y      -0.1908     -1.5801     -0.0298
            z       0.0055     -0.0613     -1.2288
-------------------------------------------------------------------------------
   56 O1    x      -3.0766     -0.2597     -0.0081
            y      -0.1339     -1.5790      0.0171
            z      -0.0364      0.0439     -1.2093
-------------------------------------------------------------------------------
   57 O1    x      -1.4610     -0.1416     -0.0211
            y      -0.1528     -1.4966     -0.0567
            z      -0.0228     -0.0573     -2.6584
-------------------------------------------------------------------------------
   58 O1    x      -1.4960     -0.1152      0.0461
            y      -0.1236     -1.4131     -0.0113
            z       0.0618     -0.0211     -2.7788
-------------------------------------------------------------------------------
   59 O3    x      -1.3662      0.0138      0.0634
            y       0.0814     -1.3541      0.0151
            z       0.0444      0.0005     -2.5979
-------------------------------------------------------------------------------
   60 O1    x      -1.4423      0.0128      0.0101
            y       0.0889     -1.4442      0.0502
            z       0.0217      0.0457     -2.7472
-------------------------------------------------------------------------------
   61 O1    x      -1.4871     -0.1198     -0.0117
            y      -0.1314     -1.4518      0.0605
            z      -0.0057      0.0186     -2.7022
-------------------------------------------------------------------------------
   62 O1    x      -1.5101     -0.1041     -0.0883
            y      -0.1235     -1.4176     -0.0416
            z      -0.0430     -0.0016     -2.7380
-------------------------------------------------------------------------------
   63 O2    x      -1.1985      0.0270      0.0063
            y       0.0981     -1.3049     -0.0294
            z       0.0092     -0.0341     -2.0871
-------------------------------------------------------------------------------
   64 O1    x      -1.4643      0.0310      0.0304
            y       0.0981     -1.4255     -0.0164
            z       0.0245     -0.0315     -2.7551
-------------------------------------------------------------------------------
   65 O1    x      -1.4089      0.2321      0.0986
            y       0.3256     -3.1181      0.0164
            z       0.0519      0.0001     -1.3678
-------------------------------------------------------------------------------
   66 O3    x      -1.3117      0.1834     -0.0544
            y       0.2737     -3.0348     -0.1451
            z      -0.0068     -0.1278     -1.2552
-------------------------------------------------------------------------------
   67 O1    x      -1.4113      0.2412      0.0963
            y       0.2845     -3.1408      0.0385
            z       0.0571      0.0386     -1.3306
-------------------------------------------------------------------------------
   68 O3    x      -1.2685      0.1348     -0.0630
            y       0.1903     -2.9881     -0.0912
            z      -0.0194     -0.1439     -1.3086
-------------------------------------------------------------------------------
   69 O3    x      -2.8483     -0.3561      0.0401
            y      -0.2891     -1.5295      0.0232
            z       0.0127      0.0531     -1.1373
-------------------------------------------------------------------------------
   70 O1    x      -3.0760     -0.2661      0.0147
            y      -0.1504     -1.6032     -0.0176
            z       0.0376     -0.0500     -1.1930
-------------------------------------------------------------------------------
   71 O1    x      -3.0597     -0.2545      0.0299
            y      -0.1271     -1.6213      0.0005
            z       0.0695     -0.0350     -1.1769
-------------------------------------------------------------------------------
   72 O3    x      -2.7811     -0.3922      0.0359
            y      -0.2870     -1.5421      0.0543
            z       0.0607      0.1023     -1.1569
-------------------------------------------------------------------------------




  Elastic Constant Matrix: (Units=GPa)

-------------------------------------------------------------------------------
  Indices      1         2         3         4         5         6    
-------------------------------------------------------------------------------
       1     30.4934   13.9259    9.8684   -0.0769   -0.4163   -6.4325
       2     13.9259   35.5379    7.4618   -0.2011   -0.2303   -6.3115
       3      9.8684    7.4618   13.9200   -1.3586    0.0761   -0.8168
       4     -0.0769   -0.2011   -1.3586    6.7449   -0.5657    0.6721
       5     -0.4163   -0.2303    0.0761   -0.5657   14.8494   -1.3427
       6     -6.4325   -6.3115   -0.8168    0.6721   -1.3427   19.7231
-------------------------------------------------------------------------------


  Elastic Compliance Matrix: (Units=1/GPa)

-------------------------------------------------------------------------------
  Indices      1         2         3         4         5         6    
-------------------------------------------------------------------------------
       1    0.049972 -0.011350 -0.029311 -0.006668  0.002191  0.011828
       2   -0.011350  0.036267 -0.011147 -0.001972  0.000911  0.007571
       3   -0.029311 -0.011147  0.100012  0.020318 -0.001618 -0.009788
       4   -0.006668 -0.001972  0.020318  0.153311  0.004898 -0.006855
       5    0.002191  0.000911 -0.001618  0.004898  0.068102  0.005408
       6    0.011828  0.007571 -0.009788 -0.006855  0.005408  0.057179
-------------------------------------------------------------------------------

  Mechanical properties :

-------------------------------------------------------------------------------
  Convention :                    Reuss         Voigt         Hill
-------------------------------------------------------------------------------
  Bulk  Modulus (GPa)     =      12.10170      15.82927      13.96548
  Shear Modulus (GPa)     =       8.38919      11.50983       9.94951
-------------------------------------------------------------------------------
  Velocity S-wave (km/s)  =       1.74283       2.04141       1.89800
  Velocity P-wave (km/s)  =       2.90372       3.35973       3.14001
-------------------------------------------------------------------------------
  Compressibility (1/GPa) =    0.08263302
-------------------------------------------------------------------------------
  Stress axis :                     x             y             z
-------------------------------------------------------------------------------
  Youngs Moduli (GPa)     =      20.01133      27.57354       9.99877
-------------------------------------------------------------------------------
  Poissons Ratio (x)      =                     0.31297       0.29308
  Poissons Ratio (y)      =       0.22714                     0.11146
  Poissons Ratio (z)      =       0.58656       0.30736
-------------------------------------------------------------------------------


  Piezoelectric Strain Matrix: (Units=C/m**2)

-------------------------------------------------------------------------------
  Indices      1         2         3         4         5         6    
-------------------------------------------------------------------------------
       x    -0.34259  -0.47341  -0.22330  -0.09653  -0.51085   0.12121
       y     0.16714  -0.26614  -0.49074  -1.11534   0.61172   0.33973
       z    -0.35444   0.33689   1.24991  -0.28455   0.07053   0.32396
-------------------------------------------------------------------------------


  Piezoelectric Stress Matrix: (Units=10**-11 C/N)

-------------------------------------------------------------------------------
  Indices      1         2         3         4         5         6    
-------------------------------------------------------------------------------
       x    -0.42427  -1.01486  -0.93351  -1.94514  -3.54277  -0.06212
       y     3.85530  -0.07505  -7.79899 -18.08879   3.89512   3.51449
       z    -5.22887   0.53861  12.25740  -1.84047   0.26691   0.69806
-------------------------------------------------------------------------------


  Static dielectric constant tensor : 

-------------------------------------------------------------------------------
              x         y         z
-------------------------------------------------------------------------------
       x     5.33362   0.11688  -0.04410
       y     0.11688   6.44249  -0.10775
       z    -0.04410  -0.10775   4.18500
--------------------------------------------------------------------------------

  High frequency dielectric constant tensor : 

-------------------------------------------------------------------------------
              x         y         z
-------------------------------------------------------------------------------
       x     1.55294  -0.00372   0.00095
       y    -0.00372   1.55975  -0.00099
       z     0.00095  -0.00099   1.51220
-------------------------------------------------------------------------------

  Static refractive indices : 

-------------------------------------------------------------------------------
    1 =    2.04416      2 =    2.30702      3 =    2.54169
-------------------------------------------------------------------------------

  High frequency refractive indices : 

-------------------------------------------------------------------------------
    1 =    1.22970      2 =    1.24552      3 =    1.24957
-------------------------------------------------------------------------------


  Time to end of optimisation =       8.7673 seconds


  Peak dynamic memory used =       5.01 MB 


  Timing analysis for GULP :

--------------------------------------------------------------------------------
  Task / Subroutine                                          Time (Seconds)
--------------------------------------------------------------------------------
  Calculation of reciprocal space energy and derivatives          0.5144
  Calculation of real space energy and derivatives                6.4840
  Calculation of three-body energy and derivatives                0.0722
  Calculation and manipulation of Hessian matrix                  1.9717
  Calculation of matrix inversion                                 0.0331
  Global summation overhead                                       0.0001
--------------------------------------------------------------------------------
  Total CPU time                                                  8.7673
--------------------------------------------------------------------------------


  Dump file written as c00712.vasp.grs
  CIF file written as c00712.vasp.cif


  Job Finished at 14:01.15 31st October    2025                               

