********************************************************************************
*                       GENERAL UTILITY LATTICE PROGRAM                        *
*                                 Julian Gale                                  *
*                       Curtin Institute for Computation                       *
*                    School of Molecular and Life Sciences                     *
*                    Curtin University, Western Australia                      *
********************************************************************************
* Version = 6.1.2 * Last modified =   3rd November 2022                        *
********************************************************************************
*  optimise     - perform optimisation run                                     *
*  conp         - constant pressure calculation                                *
*  property     - calculate properties for final geometry                      *
********************************************************************************

  Job Started  at 14:02.29 31st October    2025                               

  Number of CPUs =     1


  Total number of configurations input =      1

********************************************************************************
*  Input for Configuration =   1 : c00721.vasp                                 *
********************************************************************************

  Formula = Ge20Si4O48                                                  

  Number of irreducible atoms/shells =     120


  Total number atoms/shells =     120

  Dimensionality = 3               :  Bulk   



  Cartesian lattice vectors (Angstroms) :

       17.182800    0.000000    0.000000
        0.000000    7.513760    0.000000
        0.000000    0.000000   10.447700

  Cell parameters (Angstroms/Degrees):

  a =      17.1828    alpha =  90.0000
  b =       7.5138    beta  =  90.0000
  c =      10.4477    gamma =  90.0000

  Initial cell volume =        1348.875752 Angs**3

  Temperature of configuration =   0.00     K 

  Pressure of configuration =         0.000 GPa 

  Fractional coordinates of asymmetric unit :

--------------------------------------------------------------------------------
   No.  Atomic       x           y          z         Charge      Occupancy
        Label      (Frac)      (Frac)     (Frac)        (e)         (Frac)  
--------------------------------------------------------------------------------
      1 Ge    c    0.052090    0.000000    0.372270     4.00000    1.000000    
      2 Ge    c    0.447910 *  0.000000 *  0.372270 *   4.00000    1.000000    
      3 Ge    c    0.947910 *  0.000000 *  0.627730 *   4.00000    1.000000    
      4 Ge    c    0.556730 *  0.000000 *  0.122130 *   4.00000    1.000000    
      5 Ge    c    0.943270 *  0.000000 *  0.122130 *   4.00000    1.000000    
      6 Ge    c    0.443270 *  0.000000 *  0.877870 *   4.00000    1.000000    
      7 Ge    c    0.056730 *  0.000000 *  0.877870 *   4.00000    1.000000    
      8 Ge    c    0.160190 *  0.293910 *  0.273440 *   4.00000    1.000000    
      9 Ge    c    0.339810 *  0.706090 *  0.273440 *   4.00000    1.000000    
     10 Ge    c    0.839810 *  0.293910 *  0.726560 *   4.00000    1.000000    
     11 Ge    c    0.660190 *  0.706090 *  0.726560 *   4.00000    1.000000    
     12 Ge    c    0.839810 *  0.706090 *  0.726560 *   4.00000    1.000000    
     13 Ge    c    0.660190 *  0.293910 *  0.726560 *   4.00000    1.000000    
     14 Ge    c    0.339810 *  0.293910 *  0.273440 *   4.00000    1.000000    
     15 Ge    c    0.660660 *  0.294090 *  0.017440 *   4.00000    1.000000    
     16 Ge    c    0.339340 *  0.294090 *  0.982560 *   4.00000    1.000000    
     17 Ge    c    0.160660 *  0.705910 *  0.982560 *   4.00000    1.000000    
     18 Ge    c    0.339340 *  0.705910 *  0.982560 *   4.00000    1.000000    
     19 Ge    c    0.160660 *  0.294090 *  0.982560 *   4.00000    1.000000    
     20 Ge    c    0.660660 *  0.705910 *  0.017440 *   4.00000    1.000000    
     21 Si    c    0.552090 *  0.000000 *  0.627730 *   4.00000    1.000000    
     22 Si    c    0.160190 *  0.706090 *  0.273440 *   4.00000    1.000000    
     23 Si    c    0.839340 *  0.705910 *  0.017440 *   4.00000    1.000000    
     24 Si    c    0.839340 *  0.294090 *  0.017440 *   4.00000    1.000000    
     25 O1    c    0.106570 *  0.174340 *  0.366200 *   1.73396    1.000000    
     26 O1    c    0.393430 *  0.825660 *  0.366200 *   1.73396    1.000000    
     27 O1    c    0.893430 *  0.174340 *  0.633800 *   1.73396    1.000000    
     28 O3    c    0.606570 *  0.825660 *  0.633800 *   1.33043    1.000000    
     29 O1    c    0.893430 *  0.825660 *  0.633800 *   1.73396    1.000000    
     30 O3    c    0.606570 *  0.174340 *  0.633800 *   1.33043    1.000000    
     31 O3    c    0.106570 *  0.825660 *  0.366200 *   1.33043    1.000000    
     32 O1    c    0.393430 *  0.174340 *  0.366200 *   1.73396    1.000000    
     33 O1    c    0.000000 *  0.000000 *  0.500000 *   1.73396    1.000000    
     34 O3    c    0.500000 *  0.000000 *  0.500000 *   1.33043    1.000000    
     35 O1    c    0.994520 *  0.000000 *  0.250840 *   1.73396    1.000000    
     36 O1    c    0.505480 *  0.000000 *  0.250840 *   1.73396    1.000000    
     37 O1    c    0.005480 *  0.000000 *  0.749160 *   1.73396    1.000000    
     38 O3    c    0.494520 *  0.000000 *  0.749160 *   1.33043    1.000000    
     39 O1    c    0.610230 *  0.175520 *  0.115390 *   1.73396    1.000000    
     40 O3    c    0.889770 *  0.824480 *  0.115390 *   1.33043    1.000000    
     41 O1    c    0.389770 *  0.175520 *  0.884610 *   1.73396    1.000000    
     42 O1    c    0.110230 *  0.824480 *  0.884610 *   1.73396    1.000000    
     43 O1    c    0.389770 *  0.824480 *  0.884610 *   1.73396    1.000000    
     44 O1    c    0.110230 *  0.175520 *  0.884610 *   1.73396    1.000000    
     45 O1    c    0.610230 *  0.824480 *  0.115390 *   1.73396    1.000000    
     46 O3    c    0.889770 *  0.175520 *  0.115390 *   1.33043    1.000000    
     47 O1    c    0.500000 *  0.000000 *  0.000000 *   1.73396    1.000000    
     48 O1    c    0.000000 *  0.000000 *  0.000000 *   1.73396    1.000000    
     49 O3    c    0.151750 *  0.500000 *  0.313330 *   1.33043    1.000000    
     50 O1    c    0.348250 *  0.500000 *  0.313330 *   1.73396    1.000000    
     51 O1    c    0.848250 *  0.500000 *  0.686670 *   1.73396    1.000000    
     52 O1    c    0.651750 *  0.500000 *  0.686670 *   1.73396    1.000000    
     53 O1    c    0.250000 *  0.234950 *  0.285720 *   1.73396    1.000000    
     54 O3    c    0.250000 *  0.765050 *  0.285720 *   1.33043    1.000000    
     55 O1    c    0.750000 *  0.234950 *  0.714280 *   1.73396    1.000000    
     56 O1    c    0.750000 *  0.765050 *  0.714280 *   1.73396    1.000000    
     57 O1    c    0.131410 *  0.268650 *  0.127790 *   1.73396    1.000000    
     58 O1    c    0.368590 *  0.731350 *  0.127790 *   1.73396    1.000000    
     59 O3    c    0.868590 *  0.268650 *  0.872210 *   1.33043    1.000000    
     60 O1    c    0.631410 *  0.731350 *  0.872210 *   1.73396    1.000000    
     61 O3    c    0.868590 *  0.731350 *  0.872210 *   1.33043    1.000000    
     62 O1    c    0.631410 *  0.268650 *  0.872210 *   1.73396    1.000000    
     63 O3    c    0.131410 *  0.731350 *  0.127790 *   1.33043    1.000000    
     64 O1    c    0.368590 *  0.268650 *  0.127790 *   1.73396    1.000000    
     65 O1    c    0.653920 *  0.500000 *  0.058200 *   1.73396    1.000000    
     66 O2    c    0.846080 *  0.500000 *  0.058200 *   0.87073    1.000000    
     67 O1    c    0.346080 *  0.500000 *  0.941800 *   1.73396    1.000000    
     68 O1    c    0.153920 *  0.500000 *  0.941800 *   1.73396    1.000000    
     69 O3    c    0.750000 *  0.231060 *  0.027050 *   1.33043    1.000000    
     70 O3    c    0.750000 *  0.768940 *  0.027050 *   1.33043    1.000000    
     71 O1    c    0.250000 *  0.231060 *  0.972950 *   1.73396    1.000000    
     72 O1    c    0.250000 *  0.768940 *  0.972950 *   1.73396    1.000000    
     73 O1    s    0.106570 *  0.174340 *  0.366200 *  -3.73396    1.000000    
     74 O1    s    0.393430 *  0.825660 *  0.366200 *  -3.73396    1.000000    
     75 O1    s    0.893430 *  0.174340 *  0.633800 *  -3.73396    1.000000    
     76 O3    s    0.606570 *  0.825660 *  0.633800 *  -3.33043    1.000000    
     77 O1    s    0.893430 *  0.825660 *  0.633800 *  -3.73396    1.000000    
     78 O3    s    0.606570 *  0.174340 *  0.633800 *  -3.33043    1.000000    
     79 O3    s    0.106570 *  0.825660 *  0.366200 *  -3.33043    1.000000    
     80 O1    s    0.393430 *  0.174340 *  0.366200 *  -3.73396    1.000000    
     81 O1    s    0.000000 *  0.000000 *  0.500000 *  -3.73396    1.000000    
     82 O3    s    0.500000 *  0.000000 *  0.500000 *  -3.33043    1.000000    
     83 O1    s    0.994520 *  0.000000 *  0.250840 *  -3.73396    1.000000    
     84 O1    s    0.505480 *  0.000000 *  0.250840 *  -3.73396    1.000000    
     85 O1    s    0.005480 *  0.000000 *  0.749160 *  -3.73396    1.000000    
     86 O3    s    0.494520 *  0.000000 *  0.749160 *  -3.33043    1.000000    
     87 O1    s    0.610230 *  0.175520 *  0.115390 *  -3.73396    1.000000    
     88 O3    s    0.889770 *  0.824480 *  0.115390 *  -3.33043    1.000000    
     89 O1    s    0.389770 *  0.175520 *  0.884610 *  -3.73396    1.000000    
     90 O1    s    0.110230 *  0.824480 *  0.884610 *  -3.73396    1.000000    
     91 O1    s    0.389770 *  0.824480 *  0.884610 *  -3.73396    1.000000    
     92 O1    s    0.110230 *  0.175520 *  0.884610 *  -3.73396    1.000000    
     93 O1    s    0.610230 *  0.824480 *  0.115390 *  -3.73396    1.000000    
     94 O3    s    0.889770 *  0.175520 *  0.115390 *  -3.33043    1.000000    
     95 O1    s    0.500000 *  0.000000 *  0.000000 *  -3.73396    1.000000    
     96 O1    s    0.000000 *  0.000000 *  0.000000 *  -3.73396    1.000000    
     97 O3    s    0.151750 *  0.500000 *  0.313330 *  -3.33043    1.000000    
     98 O1    s    0.348250 *  0.500000 *  0.313330 *  -3.73396    1.000000    
     99 O1    s    0.848250 *  0.500000 *  0.686670 *  -3.73396    1.000000    
    100 O1    s    0.651750 *  0.500000 *  0.686670 *  -3.73396    1.000000    
    101 O1    s    0.250000 *  0.234950 *  0.285720 *  -3.73396    1.000000    
    102 O3    s    0.250000 *  0.765050 *  0.285720 *  -3.33043    1.000000    
    103 O1    s    0.750000 *  0.234950 *  0.714280 *  -3.73396    1.000000    
    104 O1    s    0.750000 *  0.765050 *  0.714280 *  -3.73396    1.000000    
    105 O1    s    0.131410 *  0.268650 *  0.127790 *  -3.73396    1.000000    
    106 O1    s    0.368590 *  0.731350 *  0.127790 *  -3.73396    1.000000    
    107 O3    s    0.868590 *  0.268650 *  0.872210 *  -3.33043    1.000000    
    108 O1    s    0.631410 *  0.731350 *  0.872210 *  -3.73396    1.000000    
    109 O3    s    0.868590 *  0.731350 *  0.872210 *  -3.33043    1.000000    
    110 O1    s    0.631410 *  0.268650 *  0.872210 *  -3.73396    1.000000    
    111 O3    s    0.131410 *  0.731350 *  0.127790 *  -3.33043    1.000000    
    112 O1    s    0.368590 *  0.268650 *  0.127790 *  -3.73396    1.000000    
    113 O1    s    0.653920 *  0.500000 *  0.058200 *  -3.73396    1.000000    
    114 O2    s    0.846080 *  0.500000 *  0.058200 *  -2.87073    1.000000    
    115 O1    s    0.346080 *  0.500000 *  0.941800 *  -3.73396    1.000000    
    116 O1    s    0.153920 *  0.500000 *  0.941800 *  -3.73396    1.000000    
    117 O3    s    0.750000 *  0.231060 *  0.027050 *  -3.33043    1.000000    
    118 O3    s    0.750000 *  0.768940 *  0.027050 *  -3.33043    1.000000    
    119 O1    s    0.250000 *  0.231060 *  0.972950 *  -3.73396    1.000000    
    120 O1    s    0.250000 *  0.768940 *  0.972950 *  -3.73396    1.000000    
--------------------------------------------------------------------------------



********************************************************************************
*  General input information                                                   *
********************************************************************************

  Species output for all configurations : 

--------------------------------------------------------------------------------
  Species    Type    Atomic    Atomic    Charge       Radii (Angs)     Library
                     Number     Mass       (e)     Cova   Ionic  VDW   Symbol
--------------------------------------------------------------------------------
    Ge       Core       32      72.61   4.000000   1.170  0.000  1.750 Ge       
    Si       Core       14      28.09   4.000000   1.200  0.000  2.100 Si       
    O1       Core        8      16.00   1.733957   0.730  0.000  1.360 O1       
    O2       Core        8      16.00   0.870733   0.730  0.000  1.360 O2       
    O3       Core        8      16.00   1.330431   0.730  0.000  1.360 O3       
    O1       Shell       8       0.00  -3.733957   0.730  0.000  0.000 O1       
    O2       Shell       8       0.00  -2.870733   0.730  0.000  0.000 O2       
    O3       Shell       8       0.00  -3.330431   0.730  0.000  0.000 O3       
--------------------------------------------------------------------------------


  Lattice summation method               =    Ewald          (3-D)
                                         =    Parry          (2-D)
                                         =    Saunders et al (1-D)
  Accuracy factor for lattice sums       =   12.000


  Analytic derivatives to be used

  Time limit = Infinity

  Maximum range for interatomic potentials =    100000.000000 Angstroms

  General interatomic potentials :

--------------------------------------------------------------------------------
Atom  Types   Potential      Parameter       Value         Units   Cutoffs(Ang)
  1     2                                                            Min /  Max 
--------------------------------------------------------------------------------
Si   c O1   s Buckingham    Buckingham A     1315.2478    eV        0.000 16.000
                            Buckingham rho  0.31775900    Ang       
                            Buckingham C     10.141118    eV*Ang^6  
--------------------------------------------------------------------------------
Si   c O2   s Buckingham    Buckingham A     1315.2478    eV        0.000 16.000
                            Buckingham rho  0.31775900    Ang       
                            Buckingham C     10.141118    eV*Ang^6  
--------------------------------------------------------------------------------
Si   c O3   s Buckingham    Buckingham A     1315.2478    eV        0.000 16.000
                            Buckingham rho  0.31775900    Ang       
                            Buckingham C     10.141118    eV*Ang^6  
--------------------------------------------------------------------------------
Ge   c O1   s Buckingham    Buckingham A     1497.3996    eV        0.000 16.000
                            Buckingham rho  0.32564600    Ang       
                            Buckingham C     16.808599    eV*Ang^6  
--------------------------------------------------------------------------------
Ge   c O2   s Buckingham    Buckingham A     1497.3996    eV        0.000 16.000
                            Buckingham rho  0.32564600    Ang       
                            Buckingham C     16.808599    eV*Ang^6  
--------------------------------------------------------------------------------
Ge   c O3   s Buckingham    Buckingham A     1497.3996    eV        0.000 16.000
                            Buckingham rho  0.32564600    Ang       
                            Buckingham C     16.808599    eV*Ang^6  
--------------------------------------------------------------------------------
O1   s O1   s Buckingham    Buckingham A     22764.000    eV        0.000 16.000
                            Buckingham rho  0.14900000    Ang       
                            Buckingham C     10.937044    eV*Ang^6  
--------------------------------------------------------------------------------
O1   s O2   s Buckingham    Buckingham A     22764.000    eV        0.000 16.000
                            Buckingham rho  0.14900000    Ang       
                            Buckingham C     10.937044    eV*Ang^6  
--------------------------------------------------------------------------------
O1   s O3   s Buckingham    Buckingham A     22764.000    eV        0.000 16.000
                            Buckingham rho  0.14900000    Ang       
                            Buckingham C     10.937044    eV*Ang^6  
--------------------------------------------------------------------------------
O2   s O2   s Buckingham    Buckingham A     22764.000    eV        0.000 16.000
                            Buckingham rho  0.14900000    Ang       
                            Buckingham C     10.937044    eV*Ang^6  
--------------------------------------------------------------------------------
O2   s O3   s Buckingham    Buckingham A     22764.000    eV        0.000 16.000
                            Buckingham rho  0.14900000    Ang       
                            Buckingham C     10.937044    eV*Ang^6  
--------------------------------------------------------------------------------
O3   s O3   s Buckingham    Buckingham A     22764.000    eV        0.000 16.000
                            Buckingham rho  0.14900000    Ang       
                            Buckingham C     10.937044    eV*Ang^6  
--------------------------------------------------------------------------------
O1   c O1   s Spring (c-s)  Spring k 2       180.31577    eV*Ang^-2 0.000  0.800
                            Spring k 4       0.0000000    eV*Ang^-4 
--------------------------------------------------------------------------------
O2   c O2   s Spring (c-s)  Spring k 2       75.969800    eV*Ang^-2 0.000  0.800
                            Spring k 4       0.0000000    eV*Ang^-4 
--------------------------------------------------------------------------------
O3   c O3   s Spring (c-s)  Spring k 2       128.14270    eV*Ang^-2 0.000  0.800
                            Spring k 4       0.0000000    eV*Ang^-4 
--------------------------------------------------------------------------------

  General Three-body potentials :

--------------------------------------------------------------------------------
  Atoms       Potential      Parameter       Value         Units   Cutoffs(Ang)
  1 / 2 / 3                                                          Min /  Max 
--------------------------------------------------------------------------------
Si    core    Harmonic      Three-body cnst  1.2614000    eV*rad^-2 0.000  1.900
O1    shel                  Three-body angl  109.47000    degrees   0.000  1.900
O1    shel                  Three-body k4    0.0000000    eV*rad^-4 0.000  3.500
                            Three-body k3    0.0000000    eV*rad^-3 
--------------------------------------------------------------------------------
Si    core    Harmonic      Three-body cnst  1.2614000    eV*rad^-2 0.000  1.900
O1    shel                  Three-body angl  109.47000    degrees   0.000  1.900
õ(1   shel                  Three-body k4    0.0000000    eV*rad^-4 0.000  3.500
                            Three-body k3    0.0000000    eV*rad^-3 
--------------------------------------------------------------------------------
Si    core    Harmonic      Three-body cnst  1.2614000    eV*rad^-2 0.000  1.900
õ(1   shel                  Three-body angl  109.47000    degrees   0.000  1.900
õ(1   shel                  Three-body k4    0.0000000    eV*rad^-4 0.000  3.500
                            Three-body k3    0.0000000    eV*rad^-3 
--------------------------------------------------------------------------------
Si    core    Harmonic      Three-body cnst  1.2614000    eV*rad^-2 0.000  1.900
O1    shel                  Three-body angl  109.47000    degrees   0.000  1.900
O2    shel                  Three-body k4    0.0000000    eV*rad^-4 0.000  3.500
                            Three-body k3    0.0000000    eV*rad^-3 
--------------------------------------------------------------------------------
Si    core    Harmonic      Three-body cnst  1.2614000    eV*rad^-2 0.000  1.900
O1    shel                  Three-body angl  109.47000    degrees   0.000  1.900
õ(2   shel                  Three-body k4    0.0000000    eV*rad^-4 0.000  3.500
                            Three-body k3    0.0000000    eV*rad^-3 
--------------------------------------------------------------------------------
Si    core    Harmonic      Three-body cnst  1.2614000    eV*rad^-2 0.000  1.900
O2    shel                  Three-body angl  109.47000    degrees   0.000  1.900
õ(1   shel                  Three-body k4    0.0000000    eV*rad^-4 0.000  3.500
                            Three-body k3    0.0000000    eV*rad^-3 
--------------------------------------------------------------------------------
Si    core    Harmonic      Three-body cnst  1.2614000    eV*rad^-2 0.000  1.900
õ(1   shel                  Three-body angl  109.47000    degrees   0.000  1.900
õ(2   shel                  Three-body k4    0.0000000    eV*rad^-4 0.000  3.500
                            Three-body k3    0.0000000    eV*rad^-3 
--------------------------------------------------------------------------------
Si    core    Harmonic      Three-body cnst  1.2614000    eV*rad^-2 0.000  1.900
O2    shel                  Three-body angl  109.47000    degrees   0.000  1.900
O2    shel                  Three-body k4    0.0000000    eV*rad^-4 0.000  3.500
                            Three-body k3    0.0000000    eV*rad^-3 
--------------------------------------------------------------------------------
Si    core    Harmonic      Three-body cnst  1.2614000    eV*rad^-2 0.000  1.900
O2    shel                  Three-body angl  109.47000    degrees   0.000  1.900
õ(2   shel                  Three-body k4    0.0000000    eV*rad^-4 0.000  3.500
                            Three-body k3    0.0000000    eV*rad^-3 
--------------------------------------------------------------------------------
Si    core    Harmonic      Three-body cnst  1.2614000    eV*rad^-2 0.000  1.900
õ(2   shel                  Three-body angl  109.47000    degrees   0.000  1.900
õ(2   shel                  Three-body k4    0.0000000    eV*rad^-4 0.000  3.500
                            Three-body k3    0.0000000    eV*rad^-3 
--------------------------------------------------------------------------------

********************************************************************************
*  Output for configuration   1 : c00721.vasp                                  *
********************************************************************************


  Components of energy : 

--------------------------------------------------------------------------------
  Interatomic potentials     =         896.60803819 eV    
  Three-body potentials      =           0.00000000 eV    
  Monopole - monopole (real) =       -2676.00317478 eV    
  Monopole - monopole (recip)=       -1115.35404472 eV    
  Monopole - monopole (total)=       -3791.35721950 eV    
--------------------------------------------------------------------------------
  Total lattice energy       =       -2894.74918131 eV    
--------------------------------------------------------------------------------
  Total lattice energy       =         -279299.0457 kJ/(mole unit cells)
--------------------------------------------------------------------------------


  Number of variables =      363

  Maximum number of calculations  =          1000
  Maximum Hessian update interval =            10
  Maximum step size               =   0.100000000
  Maximum parameter tolerance     =   0.000010000
  Maximum function  tolerance     =   0.000010000
  Maximum gradient  tolerance     =   0.001000000
  Maximum gradient  component     =   0.010000000

  Symmetry not applied to optimisation

  Cell parameters to be optimised using strains

  Newton-Raphson optimiser to be used

  BFGS hessian update to be used

  Lower half triangular hessian to be used

  Minimiser to switch to RFO
  When gradient norm is less than     0.050000

  Dumpfile to be written after every cycle

  Start of bulk optimisation :

  Cycle:      0 Energy:     -2894.749181  Gnorm:      5.841268  CPU:    0.095
  ** Hessian calculated **
  Cycle:      1 Energy:     -2938.295954  Gnorm:      1.408685  CPU:    0.255
  ** Hessian calculated **
  Cycle:      2 Energy:     -2943.211343  Gnorm:      0.809632  CPU:    0.433
  Cycle:      3 Energy:     -2944.165089  Gnorm:      0.403908  CPU:    0.515
  Cycle:      4 Energy:     -2944.693620  Gnorm:      0.329830  CPU:    0.612
  Cycle:      5 Energy:     -2945.346018  Gnorm:      0.275614  CPU:    0.713
  Cycle:      6 Energy:     -2946.041673  Gnorm:      0.228822  CPU:    0.813
  Cycle:      7 Energy:     -2946.408268  Gnorm:      0.166791  CPU:    0.898
  Cycle:      8 Energy:     -2946.543883  Gnorm:      0.117899  CPU:    0.983
  Cycle:      9 Energy:     -2946.592357  Gnorm:      0.085624  CPU:    1.067
  Cycle:     10 Energy:     -2946.634832  Gnorm:      0.078048  CPU:    1.169
  Cycle:     11 Energy:     -2946.670660  Gnorm:      0.078556  CPU:    1.270
  ** Hessian calculated **
  Cycle:     12 Energy:     -2946.690638  Gnorm:      0.077032  CPU:    1.455
  Cycle:     13 Energy:     -2946.723847  Gnorm:      0.074408  CPU:    1.570
  Cycle:     14 Energy:     -2946.773873  Gnorm:      0.070167  CPU:    1.686
  Cycle:     15 Energy:     -2946.833674  Gnorm:      0.064567  CPU:    1.786
  Cycle:     16 Energy:     -2946.923709  Gnorm:      0.054816  CPU:    1.903
  Cycle:     17 Energy:     -2946.999120  Gnorm:      0.044785  CPU:    2.004
  ** Hessian has wrong structure
  ** Imaginary eigenvectors =   7
  Cycle:     18 Energy:     -2947.043689  Gnorm:      0.191699  CPU:    2.219
  ** Hessian has wrong structure
  ** Imaginary eigenvectors =   5
  ** Hessian has wrong structure
  ** Imaginary eigenvectors =   4
  Cycle:     19 Energy:     -2947.088830  Gnorm:      0.197539  CPU:    2.642
  ** Hessian has wrong structure
  ** Imaginary eigenvectors =   3
  ** Hessian has wrong structure
  ** Imaginary eigenvectors =   1
  Cycle:     20 Energy:     -2947.137746  Gnorm:      0.194641  CPU:    3.108
  ** Hessian has required structure
  Cycle:     21 Energy:     -2947.471326  Gnorm:      0.135441  CPU:    3.319
  ** Hessian has required structure
  ** Hessian has required structure
  Cycle:     22 Energy:     -2947.677077  Gnorm:      0.073185  CPU:    3.597
  ** Hessian has required structure
  Cycle:     23 Energy:     -2947.756432  Gnorm:      0.044455  CPU:    3.750
  ** Hessian has required structure
  Cycle:     24 Energy:     -2947.793444  Gnorm:      0.024627  CPU:    3.903
  ** Hessian has required structure
  Cycle:     25 Energy:     -2947.808340  Gnorm:      0.016438  CPU:    4.056
  ** Hessian has required structure
  Cycle:     26 Energy:     -2947.814346  Gnorm:      0.006483  CPU:    4.208
  ** Hessian has required structure
  Cycle:     27 Energy:     -2947.816416  Gnorm:      0.007840  CPU:    4.345
  ** Hessian has required structure
  Cycle:     28 Energy:     -2947.817392  Gnorm:      0.003961  CPU:    4.482
  ** Hessian has required structure
  Cycle:     29 Energy:     -2947.817959  Gnorm:      0.003510  CPU:    4.634
  ** Hessian has required structure
  Cycle:     30 Energy:     -2947.818917  Gnorm:      0.005589  CPU:    4.803
  ** Hessian has wrong structure
  ** Imaginary eigenvectors =   1
  Cycle:     31 Energy:     -2947.819048  Gnorm:      0.003575  CPU:    4.988
  ** Hessian has wrong structure
  ** Imaginary eigenvectors =   1
  Cycle:     32 Energy:     -2947.825378  Gnorm:      0.006728  CPU:    5.307
  ** Hessian has wrong structure
  ** Imaginary eigenvectors =   1
  Cycle:     33 Energy:     -2947.845462  Gnorm:      0.034256  CPU:    5.662
  ** Hessian has required structure
  Cycle:     34 Energy:     -2947.881792  Gnorm:      0.033918  CPU:    5.893
  ** Hessian has required structure
  Cycle:     35 Energy:     -2947.907064  Gnorm:      0.028680  CPU:    6.051
  ** Hessian has required structure
  Cycle:     36 Energy:     -2947.921711  Gnorm:      0.009939  CPU:    6.205
  ** Hessian has required structure
  Cycle:     37 Energy:     -2947.927305  Gnorm:      0.015405  CPU:    6.345
  ** Hessian has required structure
  Cycle:     38 Energy:     -2947.930150  Gnorm:      0.010553  CPU:    6.501
  ** Hessian has required structure
  Cycle:     39 Energy:     -2947.931489  Gnorm:      0.005452  CPU:    6.660
  ** Hessian has required structure
  Cycle:     40 Energy:     -2947.931928  Gnorm:      0.002927  CPU:    6.812
  ** Hessian has required structure
  Cycle:     41 Energy:     -2947.932056  Gnorm:      0.002105  CPU:    6.955
  ** Hessian has required structure
  Cycle:     42 Energy:     -2947.932108  Gnorm:      0.001125  CPU:    7.094
  ** Hessian has required structure
  Cycle:     43 Energy:     -2947.932130  Gnorm:      0.000603  CPU:    7.258
  ** Hessian has required structure
  Cycle:     44 Energy:     -2947.932133  Gnorm:      0.000483  CPU:    7.480
  ** Hessian has required structure
  Cycle:     45 Energy:     -2947.932133  Gnorm:      0.000475  CPU:    7.616
  ** Hessian has required structure
  Cycle:     46 Energy:     -2947.932133  Gnorm:      0.000468  CPU:    7.742
  ** Hessian has required structure
  Cycle:     47 Energy:     -2947.932133  Gnorm:      0.000467  CPU:    7.863
  ** Hessian has required structure
  Cycle:     48 Energy:     -2947.932133  Gnorm:      0.000466  CPU:    7.988
  ** Hessian has required structure
  Cycle:     49 Energy:     -2947.932135  Gnorm:      0.000326  CPU:    8.174
  ** Hessian has required structure
  Cycle:     50 Energy:     -2947.932135  Gnorm:      0.000373  CPU:    8.312
  ** Hessian has required structure
  Cycle:     51 Energy:     -2947.932136  Gnorm:      0.000296  CPU:    8.450
  ** Hessian has required structure
  Cycle:     52 Energy:     -2947.932136  Gnorm:      0.000228  CPU:    8.588
  ** Hessian has required structure
  Cycle:     53 Energy:     -2947.932136  Gnorm:      0.000172  CPU:    8.726
  ** Hessian has required structure
  Cycle:     54 Energy:     -2947.932137  Gnorm:      0.000120  CPU:    8.933
  ** Hessian has required structure
  Cycle:     55 Energy:     -2947.932137  Gnorm:      0.000084  CPU:    9.053
  ** Hessian has required structure
  Cycle:     56 Energy:     -2947.932137  Gnorm:      0.000059  CPU:    9.174
  ** Hessian has required structure


  **** Optimisation achieved ****


  Final energy =   -2947.93213732 eV      
  Final Gnorm  =       0.00004125

  Components of energy : 

--------------------------------------------------------------------------------
  Interatomic potentials     =         780.08220087 eV    
  Three-body potentials      =           0.00000000 eV    
  Monopole - monopole (real) =       -1560.33817991 eV    
  Monopole - monopole (recip)=       -2167.67615829 eV    
  Monopole - monopole (total)=       -3728.01433819 eV    
--------------------------------------------------------------------------------
  Total lattice energy       =       -2947.93213732 eV    
--------------------------------------------------------------------------------
  Total lattice energy       =         -284430.3880 kJ/(mole unit cells)
--------------------------------------------------------------------------------

  Final fractional coordinates of atoms :

--------------------------------------------------------------------------------
   No.  Atomic        x           y          z          Radius
        Label       (Frac)      (Frac)     (Frac)       (Angs) 
--------------------------------------------------------------------------------
     1  Ge    c     0.052090    0.000000    0.372270    0.000000
     2  Ge    c     0.447310    0.056799    0.390015    0.000000
     3  Ge    c     0.946177    0.037911    0.623193    0.000000
     4  Ge    c     0.557908    0.992041    0.145318    0.000000
     5  Ge    c     0.939730    0.042411    0.129782    0.000000
     6  Ge    c     0.453228    0.054620    0.887256    0.000000
     7  Ge    c     0.047571    0.986025    0.883457    0.000000
     8  Ge    c     0.171414    0.295907    0.270489    0.000000
     9  Ge    c     0.324578    0.772736    0.271773    0.000000
    10  Ge    c     0.847997    0.348150    0.701370    0.000000
    11  Ge    c     0.641994    0.679467    0.709956    0.000000
    12  Ge    c     0.822855    0.757662    0.707447    0.000000
    13  Ge    c     0.666567    0.273644    0.708653    0.000000
    14  Ge    c     0.354081    0.370488    0.276508    0.000000
    15  Ge    c     0.674757    0.276003    0.023929    0.000000
    16  Ge    c     0.352566    0.363082    0.958916    0.000000
    17  Ge    c     0.149574    0.677131    0.947304    0.000000
    18  Ge    c     0.327180    0.769233    0.955487    0.000000
    19  Ge    c     0.173236    0.272503    0.956337    0.000000
    20  Ge    c     0.648385    0.675324    0.026085    0.000000
    21  Si    c     0.548726    0.989751    0.635992    0.000000
    22  Si    c     0.147541    0.690959    0.258719    0.000000
    23  Si    c     0.827272    0.748725    0.013943    0.000000
    24  Si    c     0.852893    0.353364    0.007079    0.000000
    25  O1    c     0.121402    0.156794    0.367119    0.000000
    26  O1    c     0.367438    0.930745    0.363329    0.000000
    27  O1    c     0.910366    0.239820    0.605920    0.000000
    28  O3    c     0.578283    0.798060    0.618608    0.000000
    29  O1    c     0.871672    0.891243    0.606630    0.000000
    30  O3    c     0.616084    0.128936    0.610510    0.000000
    31  O3    c     0.083763    0.799496    0.329694    0.000000
    32  O1    c     0.421458    0.264044    0.364821    0.000000
    33  O1    c     0.023098    0.993144    0.532650    0.000000
    34  O3    c     0.474655    0.027582    0.551578    0.000000
    35  O1    c     0.969658    0.045766    0.289355    0.000000
    36  O1    c     0.525135    0.001523    0.301692    0.000000
    37  O1    c     0.972676    0.023754    0.785552    0.000000
    38  O3    c     0.528267    0.012769    0.788823    0.000000
    39  O1    c     0.637054    0.122112    0.121984    0.000000
    40  O3    c     0.870189    0.882463    0.109195    0.000000
    41  O1    c     0.417180    0.255407    0.867664    0.000000
    42  O1    c     0.081625    0.782152    0.862486    0.000000
    43  O1    c     0.380667    0.905226    0.863449    0.000000
    44  O1    c     0.122474    0.130119    0.861825    0.000000
    45  O1    c     0.585352    0.785546    0.116787    0.000000
    46  O3    c     0.909521    0.248642    0.097045    0.000000
    47  O1    c     0.484197    0.050141    0.046907    0.000000
    48  O1    c     0.019195    0.000389    0.043402    0.000000
    49  O3    c     0.157881    0.505932    0.323514    0.000000
    50  O1    c     0.344620    0.575495    0.334824    0.000000
    51  O1    c     0.835691    0.551771    0.650342    0.000000
    52  O1    c     0.650719    0.477074    0.649328    0.000000
    53  O1    c     0.267379    0.262680    0.280740    0.000000
    54  O3    c     0.226952    0.799481    0.266917    0.000000
    55  O1    c     0.761949    0.236874    0.700310    0.000000
    56  O1    c     0.727390    0.792680    0.706700    0.000000
    57  O1    c     0.140141    0.261962    0.113737    0.000000
    58  O1    c     0.357654    0.787117    0.115333    0.000000
    59  O3    c     0.883270    0.355530    0.860676    0.000000
    60  O1    c     0.614019    0.662195    0.868906    0.000000
    61  O3    c     0.856393    0.777181    0.867687    0.000000
    62  O1    c     0.637785    0.262684    0.868318    0.000000
    63  O3    c     0.124581    0.654615    0.109704    0.000000
    64  O1    c     0.383274    0.384528    0.118061    0.000000
    65  O1    c     0.654960    0.473788    0.087989    0.000000
    66  O2    c     0.842776    0.550604    0.055203    0.000000
    67  O1    c     0.338225    0.562027    0.898834    0.000000
    68  O1    c     0.162059    0.474889    0.891086    0.000000
    69  O3    c     0.771746    0.254410    0.010178    0.000000
    70  O3    c     0.737394    0.777053    0.020647    0.000000
    71  O1    c     0.269335    0.239941    0.960661    0.000000
    72  O1    c     0.231563    0.803670    0.944655    0.000000
    73  O1    s     0.119877    0.155335    0.360028    0.000000
    74  O1    s     0.370171    0.927888    0.358106    0.000000
    75  O1    s     0.908351    0.233169    0.614243    0.000000
    76  O3    s     0.580250    0.807383    0.627113    0.000000
    77  O1    s     0.873311    0.891528    0.615715    0.000000
    78  O3    s     0.613685    0.127178    0.620525    0.000000
    79  O3    s     0.087550    0.804799    0.326079    0.000000
    80  O1    s     0.418400    0.256244    0.360180    0.000000
    81  O1    s     0.019017    0.997210    0.528383    0.000000
    82  O3    s     0.479990    0.026076    0.547796    0.000000
    83  O1    s     0.973457    0.042148    0.283631    0.000000
    84  O1    s     0.521698    0.005031    0.296579    0.000000
    85  O1    s     0.976954    0.021661    0.782013    0.000000
    86  O3    s     0.523902    0.014138    0.783260    0.000000
    87  O1    s     0.634140    0.124604    0.115979    0.000000
    88  O3    s     0.871343    0.881617    0.101244    0.000000
    89  O1    s     0.415030    0.248665    0.875875    0.000000
    90  O1    s     0.084419    0.788656    0.870473    0.000000
    91  O1    s     0.381834    0.905603    0.872430    0.000000
    92  O1    s     0.121022    0.130829    0.870747    0.000000
    93  O1    s     0.588246    0.792391    0.111785    0.000000
    94  O3    s     0.906148    0.243351    0.090536    0.000000
    95  O1    s     0.487553    0.046033    0.042797    0.000000
    96  O1    s     0.015117    0.002590    0.038591    0.000000
    97  O3    s     0.157905    0.507836    0.313431    0.000000
    98  O1    s     0.343849    0.574863    0.325830    0.000000
    99  O1    s     0.835731    0.550498    0.658592    0.000000
   100  O1    s     0.651168    0.478222    0.658217    0.000000
   101  O1    s     0.266538    0.273042    0.279668    0.000000
   102  O3    s     0.227128    0.787417    0.266526    0.000000
   103  O1    s     0.760989    0.247697    0.701033    0.000000
   104  O1    s     0.728471    0.781753    0.707021    0.000000
   105  O1    s     0.144872    0.265236    0.114130    0.000000
   106  O1    s     0.353028    0.784790    0.115310    0.000000
   107  O3    s     0.877693    0.354754    0.862896    0.000000
   108  O1    s     0.618652    0.664458    0.868631    0.000000
   109  O3    s     0.851169    0.773081    0.869653    0.000000
   110  O1    s     0.642572    0.264458    0.868154    0.000000
   111  O3    s     0.128760    0.659855    0.111824    0.000000
   112  O1    s     0.378831    0.381902    0.118210    0.000000
   113  O1    s     0.655921    0.474550    0.078533    0.000000
   114  O2    s     0.842286    0.550221    0.046434    0.000000
   115  O1    s     0.338553    0.561247    0.907612    0.000000
   116  O1    s     0.161873    0.476554    0.900112    0.000000
   117  O3    s     0.771779    0.265664    0.010968    0.000000
   118  O3    s     0.739270    0.766482    0.020397    0.000000
   119  O1    s     0.268105    0.251003    0.960236    0.000000
   120  O1    s     0.232869    0.792096    0.945684    0.000000
--------------------------------------------------------------------------------

  Final Cartesian lattice vectors (Angstroms) :

       17.571067   -0.215152   -0.092261
       -0.096007    7.802647   -0.028342
       -0.056641   -0.040756   10.269760


  Final cell parameters and derivatives :

--------------------------------------------------------------------------------
       a           17.572626 Angstrom     dE/de1(xx)     0.003497 eV/strain
       b            7.803289 Angstrom     dE/de2(yy)     0.002379 eV/strain
       c           10.269997 Angstrom     dE/de3(zz)    -0.001223 eV/strain
       alpha       90.431569 Degrees      dE/de4(yz)    -0.000137 eV/strain
       beta        90.614009 Degrees      dE/de5(xz)    -0.000006 eV/strain
       gamma       91.405363 Degrees      dE/de6(xy)     0.000896 eV/strain
--------------------------------------------------------------------------------

  Primitive cell volume =          1407.718710 Angs**3

  Density of cell =      2.751522 g/cm**3

  Non-primitive cell volume =          1407.718710 Angs**3


  Final internal derivatives :

--------------------------------------------------------------------------------
   No.  Atomic          a             b             c           Radius
        Label          (eV)          (eV)          (eV)        (eV/Angs)
--------------------------------------------------------------------------------
      1 Ge    c       0.000000      0.000000      0.000000      0.000000
      2 Ge    c       0.000663      0.000091      0.000678      0.000000
      3 Ge    c       0.000736      0.000275      0.000506      0.000000
      4 Ge    c       0.001533      0.000383      0.002013      0.000000
      5 Ge    c       0.000420      0.000287      0.000829      0.000000
      6 Ge    c       0.000159      0.000328      0.000036      0.000000
      7 Ge    c      -0.000846     -0.000257      0.000136      0.000000
      8 Ge    c      -0.000575      0.000120     -0.000625      0.000000
      9 Ge    c       0.000598     -0.000015     -0.000318      0.000000
     10 Ge    c       0.001000     -0.000055      0.000332      0.000000
     11 Ge    c      -0.000856      0.000077      0.000405      0.000000
     12 Ge    c       0.000292      0.000001      0.000825      0.000000
     13 Ge    c      -0.000598     -0.000036      0.000629      0.000000
     14 Ge    c       0.001018      0.000034     -0.000281      0.000000
     15 Ge    c      -0.000950     -0.000244     -0.000696      0.000000
     16 Ge    c       0.001327      0.000105      0.000516      0.000000
     17 Ge    c      -0.001465     -0.000216      0.000438      0.000000
     18 Ge    c       0.000535     -0.000176      0.000592      0.000000
     19 Ge    c      -0.000720      0.000157      0.000399      0.000000
     20 Ge    c      -0.000612      0.000342     -0.000496      0.000000
     21 Si    c      -0.000671     -0.000277      0.000044      0.000000
     22 Si    c      -0.001196      0.000002     -0.000583      0.000000
     23 Si    c       0.000848      0.000219     -0.000858      0.000000
     24 Si    c       0.000901     -0.000033     -0.000531      0.000000
     25 O1    c       0.000928      0.000369      0.000354      0.000000
     26 O1    c      -0.001211     -0.000293      0.000011      0.000000
     27 O1    c      -0.001363      0.000546     -0.000063      0.000000
     28 O3    c       0.000659     -0.000243     -0.000058      0.000000
     29 O1    c      -0.001129     -0.000646     -0.000754      0.000000
     30 O3    c       0.001147      0.000575     -0.000430      0.000000
     31 O3    c       0.000003      0.000045      0.000004      0.000000
     32 O1    c      -0.000276      0.000283     -0.000030      0.000000
     33 O1    c       0.002169      0.000007     -0.001282      0.000000
     34 O3    c      -0.001135      0.000085     -0.000955      0.000000
     35 O1    c      -0.001292      0.000057     -0.001105      0.000000
     36 O1    c       0.002855     -0.000220     -0.002157      0.000000
     37 O1    c      -0.000474     -0.000008     -0.000400      0.000000
     38 O3    c       0.001257     -0.000093     -0.000627      0.000000
     39 O1    c       0.002140     -0.000155     -0.000129      0.000000
     40 O3    c      -0.001371     -0.000756      0.000160      0.000000
     41 O1    c      -0.000087     -0.000033     -0.000151      0.000000
     42 O1    c       0.000129      0.000039     -0.000069      0.000000
     43 O1    c      -0.000453     -0.000105     -0.000515      0.000000
     44 O1    c       0.000826      0.000228     -0.000273      0.000000
     45 O1    c       0.001430     -0.001418     -0.000714      0.000000
     46 O3    c      -0.000443      0.000471     -0.000182      0.000000
     47 O1    c      -0.007705      0.000303     -0.003413      0.000000
     48 O1    c       0.002464     -0.000157     -0.001391      0.000000
     49 O3    c       0.000095     -0.000207      0.000231      0.000000
     50 O1    c      -0.000046      0.000063      0.000247      0.000000
     51 O1    c      -0.000030     -0.000205     -0.000294      0.000000
     52 O1    c      -0.000158     -0.000015     -0.000322      0.000000
     53 O1    c      -0.000389     -0.000536      0.000082      0.000000
     54 O3    c       0.000383      0.000423      0.000052      0.000000
     55 O1    c      -0.000011     -0.000357     -0.000088      0.000000
     56 O1    c      -0.000086      0.000326     -0.000039      0.000000
     57 O1    c       0.000894      0.000122      0.000262      0.000000
     58 O1    c      -0.000712      0.000018     -0.000353      0.000000
     59 O3    c      -0.000899     -0.000054      0.000116      0.000000
     60 O1    c       0.001040      0.000137      0.000186      0.000000
     61 O3    c      -0.000812     -0.000055      0.000027      0.000000
     62 O1    c       0.001030      0.000019      0.000014      0.000000
     63 O3    c       0.000821      0.000167      0.000240      0.000000
     64 O1    c      -0.000711     -0.000186     -0.000464      0.000000
     65 O1    c      -0.000126      0.000347      0.000518      0.000000
     66 O2    c       0.000005     -0.000521      0.000252      0.000000
     67 O1    c      -0.000206      0.000282     -0.000343      0.000000
     68 O1    c       0.000104     -0.000157     -0.000157      0.000000
     69 O3    c       0.000602     -0.000362     -0.000072      0.000000
     70 O3    c      -0.001344      0.000431      0.000133      0.000000
     71 O1    c      -0.000710     -0.000706      0.000057      0.000000
     72 O1    c       0.000767      0.000813     -0.000089      0.000000
     73 O1    s      -0.000388     -0.000181     -0.000331      0.000000
     74 O1    s       0.000341      0.000105     -0.000098      0.000000
     75 O1    s       0.000644     -0.000014      0.000152      0.000000
     76 O3    s      -0.000257     -0.000136      0.000216      0.000000
     77 O1    s       0.000595      0.000200      0.000392      0.000000
     78 O3    s      -0.000324     -0.000079      0.000241      0.000000
     79 O3    s      -0.000195     -0.000124     -0.000082      0.000000
     80 O1    s       0.000303      0.000007     -0.000010      0.000000
     81 O1    s      -0.000914     -0.000029      0.000687      0.000000
     82 O3    s       0.000026     -0.000062      0.000673      0.000000
     83 O1    s       0.000976      0.000002      0.000778      0.000000
     84 O1    s      -0.001688      0.000135      0.001462      0.000000
     85 O1    s       0.000587      0.000186      0.000373      0.000000
     86 O3    s      -0.000854     -0.000081      0.000340      0.000000
     87 O1    s      -0.000175      0.000425      0.000185      0.000000
     88 O3    s       0.000578      0.000375      0.000032      0.000000
     89 O1    s       0.000383      0.000050      0.000235      0.000000
     90 O1    s      -0.000341     -0.000013      0.000235      0.000000
     91 O1    s       0.000208      0.000052      0.000454      0.000000
     92 O1    s      -0.000493     -0.000142      0.000349      0.000000
     93 O1    s      -0.000728      0.000053      0.000662      0.000000
     94 O3    s       0.000133      0.000109      0.000052      0.000000
     95 O1    s       0.002715     -0.000150      0.001920      0.000000
     96 O1    s      -0.000623      0.000110      0.000655      0.000000
     97 O3    s      -0.000172      0.000066     -0.000307      0.000000
     98 O1    s       0.000163      0.000019     -0.000316      0.000000
     99 O1    s       0.000028      0.000013      0.000288      0.000000
    100 O1    s       0.000021      0.000011      0.000295      0.000000
    101 O1    s       0.000009      0.000277     -0.000039      0.000000
    102 O3    s      -0.000185     -0.000166     -0.000086      0.000000
    103 O1    s       0.000315      0.000110      0.000116      0.000000
    104 O1    s      -0.000207     -0.000056      0.000070      0.000000
    105 O1    s      -0.000727     -0.000099     -0.000145      0.000000
    106 O1    s       0.000630     -0.000056      0.000149      0.000000
    107 O3    s       0.000544      0.000198      0.000007      0.000000
    108 O1    s      -0.000582     -0.000225     -0.000049      0.000000
    109 O3    s       0.000766     -0.000019     -0.000102      0.000000
    110 O1    s      -0.000978      0.000024     -0.000014      0.000000
    111 O3    s      -0.000499     -0.000161     -0.000044      0.000000
    112 O1    s       0.000721      0.000253      0.000226      0.000000
    113 O1    s       0.000094     -0.000038     -0.000380      0.000000
    114 O2    s      -0.000030     -0.000067     -0.000176      0.000000
    115 O1    s       0.000316     -0.000063      0.000434      0.000000
    116 O1    s      -0.000223      0.000040      0.000232      0.000000
    117 O3    s       0.000049      0.000092     -0.000013      0.000000
    118 O3    s       0.000062     -0.000162     -0.000117      0.000000
    119 O1    s       0.000273      0.000327     -0.000044      0.000000
    120 O1    s      -0.000313     -0.000462      0.000075      0.000000
--------------------------------------------------------------------------------
  Maximum abs         0.007705      0.001418      0.003413      0.000000
--------------------------------------------------------------------------------


  Born effective charge tensors : 

-------------------------------------------------------------------------------
  Atom             x           y             z
-------------------------------------------------------------------------------
    1 Ge    x       4.2120     -0.1577     -0.4094
            y       0.1813      3.9049      0.1330
            z      -0.1658     -0.0630      4.4545
-------------------------------------------------------------------------------
    2 Ge    x       4.2086     -0.3220      0.4595
            y       0.1383      3.9044     -0.0703
            z       0.2057     -0.0700      4.3546
-------------------------------------------------------------------------------
    3 Ge    x       4.1641     -0.2523     -0.0101
            y       0.0892      3.9044     -0.0153
            z      -0.8829      0.1752      4.2823
-------------------------------------------------------------------------------
    4 Ge    x       4.2868     -0.2691     -0.3971
            y       0.1336      3.9324      0.0314
            z      -0.3799     -0.0000      4.0615
-------------------------------------------------------------------------------
    5 Ge    x       4.2075     -0.1994      0.4074
            y       0.1183      3.9611     -0.0771
            z       0.3513      0.0059      3.9285
-------------------------------------------------------------------------------
    6 Ge    x       4.2153     -0.1461      0.0847
            y       0.0999      3.9337      0.0074
            z      -0.6142      0.1552      3.6766
-------------------------------------------------------------------------------
    7 Ge    x       4.3465     -0.2208     -0.0456
            y       0.1074      3.9244     -0.0103
            z       0.6516     -0.1463      3.6518
-------------------------------------------------------------------------------
    8 Ge    x       4.0113      0.2506     -0.2269
            y       0.3025      4.1671     -0.1184
            z       0.0201     -0.2097      3.5595
-------------------------------------------------------------------------------
    9 Ge    x       3.9051      0.2907      0.2901
            y       0.2611      4.1934      0.0499
            z       0.0344      0.1931      3.6240
-------------------------------------------------------------------------------
   10 Ge    x       3.8829     -0.0932     -0.2959
            y      -0.4294      4.2187      0.1463
            z      -0.0868      0.1838      3.5372
-------------------------------------------------------------------------------
   11 Ge    x       3.8124     -0.0392      0.2087
            y      -0.4139      4.2561     -0.0921
            z       0.0231     -0.1505      3.5151
-------------------------------------------------------------------------------
   12 Ge    x       3.9752      0.2190     -0.3537
            y       0.2278      4.1557     -0.1451
            z      -0.0478     -0.1665      3.5523
-------------------------------------------------------------------------------
   13 Ge    x       3.9764      0.2087      0.2775
            y       0.2265      4.1440      0.0337
            z      -0.0113      0.0899      3.5025
-------------------------------------------------------------------------------
   14 Ge    x       3.9992     -0.0869      0.2005
            y      -0.4726      4.1931     -0.1128
            z       0.1238     -0.2090      3.6258
-------------------------------------------------------------------------------
   15 Ge    x       3.8818      0.2683     -0.3368
            y       0.2471      4.1895     -0.0820
            z      -0.0316     -0.1917      3.5437
-------------------------------------------------------------------------------
   16 Ge    x       4.0237     -0.0894     -0.3224
            y      -0.4469      4.1940      0.0891
            z      -0.1267      0.1783      3.4757
-------------------------------------------------------------------------------
   17 Ge    x       4.0026     -0.0686      0.3286
            y      -0.4447      4.1908     -0.0746
            z       0.1490     -0.1929      3.3808
-------------------------------------------------------------------------------
   18 Ge    x       4.1333      0.2576     -0.3362
            y       0.3279      4.1421     -0.0798
            z      -0.0886     -0.1478      3.4867
-------------------------------------------------------------------------------
   19 Ge    x       4.1015      0.2686      0.3317
            y       0.3026      4.1723      0.0738
            z       0.0313      0.1548      3.4562
-------------------------------------------------------------------------------
   20 Ge    x       3.9873     -0.1211     -0.3005
            y      -0.4940      4.1317      0.0651
            z      -0.1457      0.1616      3.5219
-------------------------------------------------------------------------------
   21 Si    x       3.7599     -0.2422     -0.0827
            y       0.0784      3.6837     -0.0057
            z       0.7980     -0.1463      3.8716
-------------------------------------------------------------------------------
   22 Si    x       3.7089     -0.0743     -0.1635
            y      -0.4442      3.9165      0.0721
            z      -0.0756      0.2547      3.2963
-------------------------------------------------------------------------------
   23 Si    x       3.6878      0.2717      0.2722
            y       0.2900      3.7097      0.2263
            z      -0.0100      0.2331      3.2006
-------------------------------------------------------------------------------
   24 Si    x       3.6501     -0.0691      0.2775
            y      -0.3869      3.6818     -0.2521
            z       0.0835     -0.2821      3.1815
-------------------------------------------------------------------------------
   25 O1    x      -2.1503     -0.9273      0.4736
            y      -0.9885     -2.4123      0.4644
            z       0.4493      0.5119     -1.6515
-------------------------------------------------------------------------------
   26 O1    x      -2.2611     -0.8947     -0.5676
            y      -0.9365     -2.2928     -0.5313
            z      -0.5236     -0.5610     -1.6847
-------------------------------------------------------------------------------
   27 O1    x      -1.9523      0.8605      0.3933
            y       0.8282     -2.4828     -0.3381
            z       0.4659     -0.3699     -1.6671
-------------------------------------------------------------------------------
   28 O3    x      -1.7576      0.8091     -0.2662
            y       0.7637     -2.4914      0.2526
            z      -0.3421      0.2622     -1.4524
-------------------------------------------------------------------------------
   29 O1    x      -2.1745     -0.8732      0.3687
            y      -0.9454     -2.2455      0.4152
            z       0.4338      0.4012     -1.6879
-------------------------------------------------------------------------------
   30 O3    x      -2.0529     -0.8470     -0.2181
            y      -0.8837     -2.1468     -0.2454
            z      -0.2941     -0.2398     -1.4881
-------------------------------------------------------------------------------
   31 O3    x      -1.9817      0.8835      0.5254
            y       0.8195     -2.3210     -0.5312
            z       0.4636     -0.5320     -1.5382
-------------------------------------------------------------------------------
   32 O1    x      -1.9592      0.8385     -0.5337
            y       0.7837     -2.5631      0.5338
            z      -0.4964      0.5386     -1.6681
-------------------------------------------------------------------------------
   33 O1    x      -2.1144      0.2100      0.9670
            y       0.0825     -1.2783     -0.0941
            z       1.2006     -0.1723     -3.1257
-------------------------------------------------------------------------------
   34 O3    x      -2.0233      0.2785     -0.8821
            y       0.1162     -1.2253      0.1751
            z      -1.0923      0.3234     -2.7797
-------------------------------------------------------------------------------
   35 O1    x      -2.2002      0.2268     -0.8517
            y       0.1233     -1.3284      0.1131
            z      -0.8717      0.1387     -2.7508
-------------------------------------------------------------------------------
   36 O1    x      -2.1096      0.2596      0.8195
            y       0.1417     -1.3065     -0.1792
            z       0.8975     -0.2208     -2.7967
-------------------------------------------------------------------------------
   37 O1    x      -2.1254      0.2122     -0.8326
            y       0.0930     -1.3422      0.1621
            z      -0.7979      0.2009     -2.6262
-------------------------------------------------------------------------------
   38 O3    x      -1.8874      0.1846      0.7180
            y       0.0761     -1.2866     -0.1692
            z       0.6822     -0.2221     -2.5354
-------------------------------------------------------------------------------
   39 O1    x      -2.1959     -0.8454      0.5468
            y      -0.8890     -2.3007      0.5702
            z       0.4643      0.5402     -1.6306
-------------------------------------------------------------------------------
   40 O3    x      -1.9646     -0.8710     -0.5359
            y      -0.8702     -2.3207     -0.5750
            z      -0.4660     -0.5726     -1.5457
-------------------------------------------------------------------------------
   41 O1    x      -2.0890      0.8813      0.3934
            y       0.8447     -2.4848     -0.2941
            z       0.4363     -0.3276     -1.4810
-------------------------------------------------------------------------------
   42 O1    x      -2.1061      0.8785     -0.3646
            y       0.8260     -2.4638      0.2580
            z      -0.4235      0.3173     -1.4609
-------------------------------------------------------------------------------
   43 O1    x      -2.2969     -0.9311      0.3520
            y      -0.9699     -2.2566      0.3301
            z       0.4312      0.3625     -1.5099
-------------------------------------------------------------------------------
   44 O1    x      -2.2634     -0.9007     -0.3117
            y      -0.9569     -2.2815     -0.3422
            z      -0.3688     -0.3489     -1.4975
-------------------------------------------------------------------------------
   45 O1    x      -2.0058      0.8314      0.5542
            y       0.7797     -2.5625     -0.5620
            z       0.4980     -0.5384     -1.5894
-------------------------------------------------------------------------------
   46 O3    x      -1.8906      0.8436     -0.5904
            y       0.7395     -2.4100      0.5984
            z      -0.4880      0.5806     -1.5280
-------------------------------------------------------------------------------
   47 O1    x      -2.1358      0.2310     -0.7426
            y       0.1389     -1.3732      0.1907
            z      -0.5212      0.1621     -2.3772
-------------------------------------------------------------------------------
   48 O1    x      -2.2514      0.2226      0.7395
            y       0.1127     -1.3703     -0.1422
            z       0.4755     -0.1263     -2.2170
-------------------------------------------------------------------------------
   49 O3    x      -1.2797      0.1687      0.0369
            y       0.2640     -2.9863      0.1749
            z      -0.0077      0.1774     -1.3233
-------------------------------------------------------------------------------
   50 O1    x      -1.3845      0.2299     -0.0970
            y       0.3327     -3.1333      0.0220
            z      -0.0578      0.0145     -1.3979
-------------------------------------------------------------------------------
   51 O1    x      -1.3249      0.1834      0.0735
            y       0.2930     -3.2084     -0.0160
            z       0.0132      0.0031     -1.3959
-------------------------------------------------------------------------------
   52 O1    x      -1.3358      0.1670     -0.0973
            y       0.2863     -3.2401     -0.0171
            z      -0.0422     -0.0237     -1.3810
-------------------------------------------------------------------------------
   53 O1    x      -3.0802     -0.2441     -0.0317
            y      -0.1441     -1.5846      0.0257
            z      -0.0662      0.0565     -1.2198
-------------------------------------------------------------------------------
   54 O3    x      -2.8471     -0.3561     -0.0612
            y      -0.2929     -1.5264     -0.0264
            z      -0.0493     -0.0671     -1.1571
-------------------------------------------------------------------------------
   55 O1    x      -3.0464     -0.2601      0.0250
            y      -0.2008     -1.5806     -0.0295
            z       0.0185     -0.0524     -1.2241
-------------------------------------------------------------------------------
   56 O1    x      -3.0386     -0.2513     -0.0023
            y      -0.1250     -1.5702      0.0324
            z      -0.0488      0.0508     -1.2171
-------------------------------------------------------------------------------
   57 O1    x      -1.4870     -0.1195     -0.0081
            y      -0.1290     -1.4604     -0.1016
            z      -0.0124     -0.0951     -2.6896
-------------------------------------------------------------------------------
   58 O1    x      -1.5178     -0.1081      0.0918
            y      -0.1232     -1.4173      0.0180
            z       0.0767     -0.0005     -2.7398
-------------------------------------------------------------------------------
   59 O3    x      -1.3712      0.0448      0.0717
            y       0.1096     -1.3650     -0.0503
            z       0.0339     -0.0302     -2.5517
-------------------------------------------------------------------------------
   60 O1    x      -1.4767      0.0161     -0.0729
            y       0.0952     -1.4289      0.0491
            z      -0.0381      0.0412     -2.7344
-------------------------------------------------------------------------------
   61 O3    x      -1.3816     -0.1143      0.0476
            y      -0.1269     -1.3853      0.1268
            z       0.0311      0.0790     -2.5462
-------------------------------------------------------------------------------
   62 O1    x      -1.5224     -0.1108     -0.1155
            y      -0.1339     -1.4208     -0.0488
            z      -0.0597     -0.0139     -2.7062
-------------------------------------------------------------------------------
   63 O3    x      -1.3450      0.0034     -0.0953
            y       0.0767     -1.3749     -0.0767
            z      -0.0681     -0.0803     -2.5996
-------------------------------------------------------------------------------
   64 O1    x      -1.4626      0.0192      0.0476
            y       0.0892     -1.4288     -0.0188
            z       0.0373     -0.0240     -2.7604
-------------------------------------------------------------------------------
   65 O1    x      -1.4014      0.1791      0.1204
            y       0.2827     -3.1244      0.0119
            z       0.0659     -0.0020     -1.3575
-------------------------------------------------------------------------------
   66 O2    x      -1.2120      0.1317     -0.0700
            y       0.2089     -2.4980     -0.0269
            z      -0.0278     -0.0150     -1.1067
-------------------------------------------------------------------------------
   67 O1    x      -1.4049      0.2145      0.0774
            y       0.2811     -3.1526      0.0406
            z       0.0299      0.0385     -1.3383
-------------------------------------------------------------------------------
   68 O1    x      -1.3830      0.1831     -0.0801
            y       0.2676     -3.1416      0.0181
            z      -0.0157     -0.0243     -1.3733
-------------------------------------------------------------------------------
   69 O3    x      -2.8479     -0.3579      0.0822
            y      -0.2964     -1.5347      0.0306
            z       0.0536      0.0548     -1.1215
-------------------------------------------------------------------------------
   70 O3    x      -2.9631     -0.1595      0.0729
            y      -0.0571     -1.4558     -0.0102
            z       0.0891     -0.0328     -1.1220
-------------------------------------------------------------------------------
   71 O1    x      -3.0506     -0.2978     -0.0009
            y      -0.1910     -1.6239     -0.0032
            z       0.0343     -0.0362     -1.1842
-------------------------------------------------------------------------------
   72 O1    x      -3.0266     -0.3065     -0.0263
            y      -0.1952     -1.6160      0.0231
            z      -0.0072      0.0639     -1.2035
-------------------------------------------------------------------------------




  Elastic Constant Matrix: (Units=GPa)

-------------------------------------------------------------------------------
  Indices      1         2         3         4         5         6    
-------------------------------------------------------------------------------
       1     28.6103   11.7012    9.7111    0.0530   -0.2355   -6.7742
       2     11.7012   32.3923    7.1222   -0.4778    0.5326   -6.7286
       3      9.7111    7.1222   14.8162   -0.7489   -0.4049   -1.5889
       4      0.0530   -0.4778   -0.7489    7.7951   -1.4752    0.0898
       5     -0.2355    0.5326   -0.4049   -1.4752   15.0283   -1.2912
       6     -6.7742   -6.7286   -1.5889    0.0898   -1.2912   19.4727
-------------------------------------------------------------------------------


  Elastic Compliance Matrix: (Units=1/GPa)

-------------------------------------------------------------------------------
  Indices      1         2         3         4         5         6    
-------------------------------------------------------------------------------
       1    0.051352 -0.009989 -0.027692 -0.003552  0.001116  0.012244
       2   -0.009989  0.038819 -0.011123  0.001095 -0.000955  0.008963
       3   -0.027692 -0.011123  0.090878  0.008830  0.002767 -0.005919
       4   -0.003552  0.001095  0.008830  0.131700  0.013082  0.000123
       5    0.001116 -0.000955  0.002767  0.013082  0.068360  0.004757
       6    0.012244  0.008963 -0.005919  0.000123  0.004757  0.058542
-------------------------------------------------------------------------------

  Mechanical properties :

-------------------------------------------------------------------------------
  Convention :                    Reuss         Voigt         Hill
-------------------------------------------------------------------------------
  Bulk  Modulus (GPa)     =      11.98453      14.76532      13.37492
  Shear Modulus (GPa)     =       8.84841      11.61151      10.22996
-------------------------------------------------------------------------------
  Velocity S-wave (km/s)  =       1.79327       2.05427       1.92819
  Velocity P-wave (km/s)  =       2.93996       3.31556       3.13339
-------------------------------------------------------------------------------
  Compressibility (1/GPa) =    0.08344089
-------------------------------------------------------------------------------
  Stress axis :                     x             y             z
-------------------------------------------------------------------------------
  Youngs Moduli (GPa)     =      19.47339      25.76060      11.00376
-------------------------------------------------------------------------------
  Poissons Ratio (x)      =                     0.25732       0.30472
  Poissons Ratio (y)      =       0.19452                     0.12239
  Poissons Ratio (z)      =       0.53927       0.28653
-------------------------------------------------------------------------------


  Piezoelectric Strain Matrix: (Units=C/m**2)

-------------------------------------------------------------------------------
  Indices      1         2         3         4         5         6    
-------------------------------------------------------------------------------
       x    -0.10431  -0.61674  -0.14263  -0.10603  -0.41044   0.25122
       y    -0.02391  -0.44147  -0.58040  -1.11548   0.66965   0.39056
       z    -0.36998   0.46169   1.25801  -0.19455   0.01758   0.19482
-------------------------------------------------------------------------------


  Piezoelectric Stress Matrix: (Units=10**-11 C/N)

-------------------------------------------------------------------------------
  Indices      1         2         3         4         5         6    
-------------------------------------------------------------------------------
       x     0.77482  -1.87854  -0.67725  -2.08665  -2.81723   0.67808
       y     2.87461  -0.88028  -5.74818 -14.36239   3.18305   2.50979
       z    -5.53525   0.91417  11.66136  -1.24411   0.22105   0.36265
-------------------------------------------------------------------------------


  Static dielectric constant tensor : 

-------------------------------------------------------------------------------
              x         y         z
-------------------------------------------------------------------------------
       x     5.31154   0.03473  -0.05463
       y     0.03473   6.33230  -0.07691
       z    -0.05463  -0.07691   4.16264
--------------------------------------------------------------------------------

  High frequency dielectric constant tensor : 

-------------------------------------------------------------------------------
              x         y         z
-------------------------------------------------------------------------------
       x     1.55066  -0.00306   0.00085
       y    -0.00306   1.55727  -0.00044
       z     0.00085  -0.00044   1.51073
-------------------------------------------------------------------------------

  Static refractive indices : 

-------------------------------------------------------------------------------
    1 =    2.03898      2 =    2.30493      3 =    2.51721
-------------------------------------------------------------------------------

  High frequency refractive indices : 

-------------------------------------------------------------------------------
    1 =    1.22911      2 =    1.24478      3 =    1.24839
-------------------------------------------------------------------------------


  Time to end of optimisation =       9.4591 seconds


  Peak dynamic memory used =       5.01 MB 


  Timing analysis for GULP :

--------------------------------------------------------------------------------
  Task / Subroutine                                          Time (Seconds)
--------------------------------------------------------------------------------
  Calculation of reciprocal space energy and derivatives          0.6251
  Calculation of real space energy and derivatives                6.3097
  Calculation of three-body energy and derivatives                0.0860
  Calculation and manipulation of Hessian matrix                  2.9366
  Calculation of matrix inversion                                 0.0196
  Global summation overhead                                       0.0001
--------------------------------------------------------------------------------
  Total CPU time                                                  9.4591
--------------------------------------------------------------------------------


  Dump file written as c00721.vasp.grs
  CIF file written as c00721.vasp.cif


  Job Finished at 14:02.38 31st October    2025                               

