********************************************************************************
*                       GENERAL UTILITY LATTICE PROGRAM                        *
*                                 Julian Gale                                  *
*                       Curtin Institute for Computation                       *
*                    School of Molecular and Life Sciences                     *
*                    Curtin University, Western Australia                      *
********************************************************************************
* Version = 6.1.2 * Last modified =   3rd November 2022                        *
********************************************************************************
*  optimise     - perform optimisation run                                     *
*  conp         - constant pressure calculation                                *
*  property     - calculate properties for final geometry                      *
********************************************************************************

  Job Started  at 14:13.16 31st October    2025                               

  Number of CPUs =     1


  Total number of configurations input =      1

********************************************************************************
*  Input for Configuration =   1 : c00779.vasp                                 *
********************************************************************************

  Formula = Ge20Si4O48                                                  

  Number of irreducible atoms/shells =     120


  Total number atoms/shells =     120

  Dimensionality = 3               :  Bulk   



  Cartesian lattice vectors (Angstroms) :

       17.182800    0.000000    0.000000
        0.000000    7.513760    0.000000
        0.000000    0.000000   10.447700

  Cell parameters (Angstroms/Degrees):

  a =      17.1828    alpha =  90.0000
  b =       7.5138    beta  =  90.0000
  c =      10.4477    gamma =  90.0000

  Initial cell volume =        1348.875752 Angs**3

  Temperature of configuration =   0.00     K 

  Pressure of configuration =         0.000 GPa 

  Fractional coordinates of asymmetric unit :

--------------------------------------------------------------------------------
   No.  Atomic       x           y          z         Charge      Occupancy
        Label      (Frac)      (Frac)     (Frac)        (e)         (Frac)  
--------------------------------------------------------------------------------
      1 Ge    c    0.052090    0.000000    0.372270     4.00000    1.000000    
      2 Ge    c    0.447910 *  0.000000 *  0.372270 *   4.00000    1.000000    
      3 Ge    c    0.947910 *  0.000000 *  0.627730 *   4.00000    1.000000    
      4 Ge    c    0.556730 *  0.000000 *  0.122130 *   4.00000    1.000000    
      5 Ge    c    0.943270 *  0.000000 *  0.122130 *   4.00000    1.000000    
      6 Ge    c    0.443270 *  0.000000 *  0.877870 *   4.00000    1.000000    
      7 Ge    c    0.056730 *  0.000000 *  0.877870 *   4.00000    1.000000    
      8 Ge    c    0.160190 *  0.293910 *  0.273440 *   4.00000    1.000000    
      9 Ge    c    0.339810 *  0.706090 *  0.273440 *   4.00000    1.000000    
     10 Ge    c    0.839810 *  0.293910 *  0.726560 *   4.00000    1.000000    
     11 Ge    c    0.660190 *  0.706090 *  0.726560 *   4.00000    1.000000    
     12 Ge    c    0.839810 *  0.706090 *  0.726560 *   4.00000    1.000000    
     13 Ge    c    0.339810 *  0.293910 *  0.273440 *   4.00000    1.000000    
     14 Ge    c    0.660660 *  0.294090 *  0.017440 *   4.00000    1.000000    
     15 Ge    c    0.839340 *  0.705910 *  0.017440 *   4.00000    1.000000    
     16 Ge    c    0.339340 *  0.294090 *  0.982560 *   4.00000    1.000000    
     17 Ge    c    0.160660 *  0.705910 *  0.982560 *   4.00000    1.000000    
     18 Ge    c    0.339340 *  0.705910 *  0.982560 *   4.00000    1.000000    
     19 Ge    c    0.160660 *  0.294090 *  0.982560 *   4.00000    1.000000    
     20 Ge    c    0.839340 *  0.294090 *  0.017440 *   4.00000    1.000000    
     21 Si    c    0.552090 *  0.000000 *  0.627730 *   4.00000    1.000000    
     22 Si    c    0.660190 *  0.293910 *  0.726560 *   4.00000    1.000000    
     23 Si    c    0.160190 *  0.706090 *  0.273440 *   4.00000    1.000000    
     24 Si    c    0.660660 *  0.705910 *  0.017440 *   4.00000    1.000000    
     25 O1    c    0.106570 *  0.174340 *  0.366200 *   1.73396    1.000000    
     26 O1    c    0.393430 *  0.825660 *  0.366200 *   1.73396    1.000000    
     27 O1    c    0.893430 *  0.174340 *  0.633800 *   1.73396    1.000000    
     28 O3    c    0.606570 *  0.825660 *  0.633800 *   1.33043    1.000000    
     29 O1    c    0.893430 *  0.825660 *  0.633800 *   1.73396    1.000000    
     30 O2    c    0.606570 *  0.174340 *  0.633800 *   0.87073    1.000000    
     31 O3    c    0.106570 *  0.825660 *  0.366200 *   1.33043    1.000000    
     32 O1    c    0.393430 *  0.174340 *  0.366200 *   1.73396    1.000000    
     33 O1    c    0.000000 *  0.000000 *  0.500000 *   1.73396    1.000000    
     34 O3    c    0.500000 *  0.000000 *  0.500000 *   1.33043    1.000000    
     35 O1    c    0.994520 *  0.000000 *  0.250840 *   1.73396    1.000000    
     36 O1    c    0.505480 *  0.000000 *  0.250840 *   1.73396    1.000000    
     37 O1    c    0.005480 *  0.000000 *  0.749160 *   1.73396    1.000000    
     38 O3    c    0.494520 *  0.000000 *  0.749160 *   1.33043    1.000000    
     39 O1    c    0.610230 *  0.175520 *  0.115390 *   1.73396    1.000000    
     40 O1    c    0.889770 *  0.824480 *  0.115390 *   1.73396    1.000000    
     41 O1    c    0.389770 *  0.175520 *  0.884610 *   1.73396    1.000000    
     42 O1    c    0.110230 *  0.824480 *  0.884610 *   1.73396    1.000000    
     43 O1    c    0.389770 *  0.824480 *  0.884610 *   1.73396    1.000000    
     44 O1    c    0.110230 *  0.175520 *  0.884610 *   1.73396    1.000000    
     45 O3    c    0.610230 *  0.824480 *  0.115390 *   1.33043    1.000000    
     46 O1    c    0.889770 *  0.175520 *  0.115390 *   1.73396    1.000000    
     47 O1    c    0.500000 *  0.000000 *  0.000000 *   1.73396    1.000000    
     48 O1    c    0.000000 *  0.000000 *  0.000000 *   1.73396    1.000000    
     49 O3    c    0.151750 *  0.500000 *  0.313330 *   1.33043    1.000000    
     50 O1    c    0.348250 *  0.500000 *  0.313330 *   1.73396    1.000000    
     51 O1    c    0.848250 *  0.500000 *  0.686670 *   1.73396    1.000000    
     52 O3    c    0.651750 *  0.500000 *  0.686670 *   1.33043    1.000000    
     53 O1    c    0.250000 *  0.234950 *  0.285720 *   1.73396    1.000000    
     54 O3    c    0.250000 *  0.765050 *  0.285720 *   1.33043    1.000000    
     55 O3    c    0.750000 *  0.234950 *  0.714280 *   1.33043    1.000000    
     56 O1    c    0.750000 *  0.765050 *  0.714280 *   1.73396    1.000000    
     57 O1    c    0.131410 *  0.268650 *  0.127790 *   1.73396    1.000000    
     58 O1    c    0.368590 *  0.731350 *  0.127790 *   1.73396    1.000000    
     59 O1    c    0.868590 *  0.268650 *  0.872210 *   1.73396    1.000000    
     60 O3    c    0.631410 *  0.731350 *  0.872210 *   1.33043    1.000000    
     61 O1    c    0.868590 *  0.731350 *  0.872210 *   1.73396    1.000000    
     62 O3    c    0.631410 *  0.268650 *  0.872210 *   1.33043    1.000000    
     63 O3    c    0.131410 *  0.731350 *  0.127790 *   1.33043    1.000000    
     64 O1    c    0.368590 *  0.268650 *  0.127790 *   1.73396    1.000000    
     65 O3    c    0.653920 *  0.500000 *  0.058200 *   1.33043    1.000000    
     66 O1    c    0.846080 *  0.500000 *  0.058200 *   1.73396    1.000000    
     67 O1    c    0.346080 *  0.500000 *  0.941800 *   1.73396    1.000000    
     68 O1    c    0.153920 *  0.500000 *  0.941800 *   1.73396    1.000000    
     69 O1    c    0.750000 *  0.231060 *  0.027050 *   1.73396    1.000000    
     70 O3    c    0.750000 *  0.768940 *  0.027050 *   1.33043    1.000000    
     71 O1    c    0.250000 *  0.231060 *  0.972950 *   1.73396    1.000000    
     72 O1    c    0.250000 *  0.768940 *  0.972950 *   1.73396    1.000000    
     73 O1    s    0.106570 *  0.174340 *  0.366200 *  -3.73396    1.000000    
     74 O1    s    0.393430 *  0.825660 *  0.366200 *  -3.73396    1.000000    
     75 O1    s    0.893430 *  0.174340 *  0.633800 *  -3.73396    1.000000    
     76 O3    s    0.606570 *  0.825660 *  0.633800 *  -3.33043    1.000000    
     77 O1    s    0.893430 *  0.825660 *  0.633800 *  -3.73396    1.000000    
     78 O2    s    0.606570 *  0.174340 *  0.633800 *  -2.87073    1.000000    
     79 O3    s    0.106570 *  0.825660 *  0.366200 *  -3.33043    1.000000    
     80 O1    s    0.393430 *  0.174340 *  0.366200 *  -3.73396    1.000000    
     81 O1    s    0.000000 *  0.000000 *  0.500000 *  -3.73396    1.000000    
     82 O3    s    0.500000 *  0.000000 *  0.500000 *  -3.33043    1.000000    
     83 O1    s    0.994520 *  0.000000 *  0.250840 *  -3.73396    1.000000    
     84 O1    s    0.505480 *  0.000000 *  0.250840 *  -3.73396    1.000000    
     85 O1    s    0.005480 *  0.000000 *  0.749160 *  -3.73396    1.000000    
     86 O3    s    0.494520 *  0.000000 *  0.749160 *  -3.33043    1.000000    
     87 O1    s    0.610230 *  0.175520 *  0.115390 *  -3.73396    1.000000    
     88 O1    s    0.889770 *  0.824480 *  0.115390 *  -3.73396    1.000000    
     89 O1    s    0.389770 *  0.175520 *  0.884610 *  -3.73396    1.000000    
     90 O1    s    0.110230 *  0.824480 *  0.884610 *  -3.73396    1.000000    
     91 O1    s    0.389770 *  0.824480 *  0.884610 *  -3.73396    1.000000    
     92 O1    s    0.110230 *  0.175520 *  0.884610 *  -3.73396    1.000000    
     93 O3    s    0.610230 *  0.824480 *  0.115390 *  -3.33043    1.000000    
     94 O1    s    0.889770 *  0.175520 *  0.115390 *  -3.73396    1.000000    
     95 O1    s    0.500000 *  0.000000 *  0.000000 *  -3.73396    1.000000    
     96 O1    s    0.000000 *  0.000000 *  0.000000 *  -3.73396    1.000000    
     97 O3    s    0.151750 *  0.500000 *  0.313330 *  -3.33043    1.000000    
     98 O1    s    0.348250 *  0.500000 *  0.313330 *  -3.73396    1.000000    
     99 O1    s    0.848250 *  0.500000 *  0.686670 *  -3.73396    1.000000    
    100 O3    s    0.651750 *  0.500000 *  0.686670 *  -3.33043    1.000000    
    101 O1    s    0.250000 *  0.234950 *  0.285720 *  -3.73396    1.000000    
    102 O3    s    0.250000 *  0.765050 *  0.285720 *  -3.33043    1.000000    
    103 O3    s    0.750000 *  0.234950 *  0.714280 *  -3.33043    1.000000    
    104 O1    s    0.750000 *  0.765050 *  0.714280 *  -3.73396    1.000000    
    105 O1    s    0.131410 *  0.268650 *  0.127790 *  -3.73396    1.000000    
    106 O1    s    0.368590 *  0.731350 *  0.127790 *  -3.73396    1.000000    
    107 O1    s    0.868590 *  0.268650 *  0.872210 *  -3.73396    1.000000    
    108 O3    s    0.631410 *  0.731350 *  0.872210 *  -3.33043    1.000000    
    109 O1    s    0.868590 *  0.731350 *  0.872210 *  -3.73396    1.000000    
    110 O3    s    0.631410 *  0.268650 *  0.872210 *  -3.33043    1.000000    
    111 O3    s    0.131410 *  0.731350 *  0.127790 *  -3.33043    1.000000    
    112 O1    s    0.368590 *  0.268650 *  0.127790 *  -3.73396    1.000000    
    113 O3    s    0.653920 *  0.500000 *  0.058200 *  -3.33043    1.000000    
    114 O1    s    0.846080 *  0.500000 *  0.058200 *  -3.73396    1.000000    
    115 O1    s    0.346080 *  0.500000 *  0.941800 *  -3.73396    1.000000    
    116 O1    s    0.153920 *  0.500000 *  0.941800 *  -3.73396    1.000000    
    117 O1    s    0.750000 *  0.231060 *  0.027050 *  -3.73396    1.000000    
    118 O3    s    0.750000 *  0.768940 *  0.027050 *  -3.33043    1.000000    
    119 O1    s    0.250000 *  0.231060 *  0.972950 *  -3.73396    1.000000    
    120 O1    s    0.250000 *  0.768940 *  0.972950 *  -3.73396    1.000000    
--------------------------------------------------------------------------------



********************************************************************************
*  General input information                                                   *
********************************************************************************

  Species output for all configurations : 

--------------------------------------------------------------------------------
  Species    Type    Atomic    Atomic    Charge       Radii (Angs)     Library
                     Number     Mass       (e)     Cova   Ionic  VDW   Symbol
--------------------------------------------------------------------------------
    Ge       Core       32      72.61   4.000000   1.170  0.000  1.750 Ge       
    Si       Core       14      28.09   4.000000   1.200  0.000  2.100 Si       
    O1       Core        8      16.00   1.733957   0.730  0.000  1.360 O1       
    O2       Core        8      16.00   0.870733   0.730  0.000  1.360 O2       
    O3       Core        8      16.00   1.330431   0.730  0.000  1.360 O3       
    O1       Shell       8       0.00  -3.733957   0.730  0.000  0.000 O1       
    O2       Shell       8       0.00  -2.870733   0.730  0.000  0.000 O2       
    O3       Shell       8       0.00  -3.330431   0.730  0.000  0.000 O3       
--------------------------------------------------------------------------------


  Lattice summation method               =    Ewald          (3-D)
                                         =    Parry          (2-D)
                                         =    Saunders et al (1-D)
  Accuracy factor for lattice sums       =   12.000


  Analytic derivatives to be used

  Time limit = Infinity

  Maximum range for interatomic potentials =    100000.000000 Angstroms

  General interatomic potentials :

--------------------------------------------------------------------------------
Atom  Types   Potential      Parameter       Value         Units   Cutoffs(Ang)
  1     2                                                            Min /  Max 
--------------------------------------------------------------------------------
Si   c O1   s Buckingham    Buckingham A     1315.2478    eV        0.000 16.000
                            Buckingham rho  0.31775900    Ang       
                            Buckingham C     10.141118    eV*Ang^6  
--------------------------------------------------------------------------------
Si   c O2   s Buckingham    Buckingham A     1315.2478    eV        0.000 16.000
                            Buckingham rho  0.31775900    Ang       
                            Buckingham C     10.141118    eV*Ang^6  
--------------------------------------------------------------------------------
Si   c O3   s Buckingham    Buckingham A     1315.2478    eV        0.000 16.000
                            Buckingham rho  0.31775900    Ang       
                            Buckingham C     10.141118    eV*Ang^6  
--------------------------------------------------------------------------------
Ge   c O1   s Buckingham    Buckingham A     1497.3996    eV        0.000 16.000
                            Buckingham rho  0.32564600    Ang       
                            Buckingham C     16.808599    eV*Ang^6  
--------------------------------------------------------------------------------
Ge   c O2   s Buckingham    Buckingham A     1497.3996    eV        0.000 16.000
                            Buckingham rho  0.32564600    Ang       
                            Buckingham C     16.808599    eV*Ang^6  
--------------------------------------------------------------------------------
Ge   c O3   s Buckingham    Buckingham A     1497.3996    eV        0.000 16.000
                            Buckingham rho  0.32564600    Ang       
                            Buckingham C     16.808599    eV*Ang^6  
--------------------------------------------------------------------------------
O1   s O1   s Buckingham    Buckingham A     22764.000    eV        0.000 16.000
                            Buckingham rho  0.14900000    Ang       
                            Buckingham C     10.937044    eV*Ang^6  
--------------------------------------------------------------------------------
O1   s O2   s Buckingham    Buckingham A     22764.000    eV        0.000 16.000
                            Buckingham rho  0.14900000    Ang       
                            Buckingham C     10.937044    eV*Ang^6  
--------------------------------------------------------------------------------
O1   s O3   s Buckingham    Buckingham A     22764.000    eV        0.000 16.000
                            Buckingham rho  0.14900000    Ang       
                            Buckingham C     10.937044    eV*Ang^6  
--------------------------------------------------------------------------------
O2   s O2   s Buckingham    Buckingham A     22764.000    eV        0.000 16.000
                            Buckingham rho  0.14900000    Ang       
                            Buckingham C     10.937044    eV*Ang^6  
--------------------------------------------------------------------------------
O2   s O3   s Buckingham    Buckingham A     22764.000    eV        0.000 16.000
                            Buckingham rho  0.14900000    Ang       
                            Buckingham C     10.937044    eV*Ang^6  
--------------------------------------------------------------------------------
O3   s O3   s Buckingham    Buckingham A     22764.000    eV        0.000 16.000
                            Buckingham rho  0.14900000    Ang       
                            Buckingham C     10.937044    eV*Ang^6  
--------------------------------------------------------------------------------
O1   c O1   s Spring (c-s)  Spring k 2       180.31577    eV*Ang^-2 0.000  0.800
                            Spring k 4       0.0000000    eV*Ang^-4 
--------------------------------------------------------------------------------
O2   c O2   s Spring (c-s)  Spring k 2       75.969800    eV*Ang^-2 0.000  0.800
                            Spring k 4       0.0000000    eV*Ang^-4 
--------------------------------------------------------------------------------
O3   c O3   s Spring (c-s)  Spring k 2       128.14270    eV*Ang^-2 0.000  0.800
                            Spring k 4       0.0000000    eV*Ang^-4 
--------------------------------------------------------------------------------

  General Three-body potentials :

--------------------------------------------------------------------------------
  Atoms       Potential      Parameter       Value         Units   Cutoffs(Ang)
  1 / 2 / 3                                                          Min /  Max 
--------------------------------------------------------------------------------
Si    core    Harmonic      Three-body cnst  1.2614000    eV*rad^-2 0.000  1.900
O1    shel                  Three-body angl  109.47000    degrees   0.000  1.900
O1    shel                  Three-body k4    0.0000000    eV*rad^-4 0.000  3.500
                            Three-body k3    0.0000000    eV*rad^-3 
--------------------------------------------------------------------------------
Si    core    Harmonic      Three-body cnst  1.2614000    eV*rad^-2 0.000  1.900
O1    shel                  Three-body angl  109.47000    degrees   0.000  1.900
õ(1   shel                  Three-body k4    0.0000000    eV*rad^-4 0.000  3.500
                            Three-body k3    0.0000000    eV*rad^-3 
--------------------------------------------------------------------------------
Si    core    Harmonic      Three-body cnst  1.2614000    eV*rad^-2 0.000  1.900
õ(1   shel                  Three-body angl  109.47000    degrees   0.000  1.900
õ(1   shel                  Three-body k4    0.0000000    eV*rad^-4 0.000  3.500
                            Three-body k3    0.0000000    eV*rad^-3 
--------------------------------------------------------------------------------
Si    core    Harmonic      Three-body cnst  1.2614000    eV*rad^-2 0.000  1.900
O1    shel                  Three-body angl  109.47000    degrees   0.000  1.900
O2    shel                  Three-body k4    0.0000000    eV*rad^-4 0.000  3.500
                            Three-body k3    0.0000000    eV*rad^-3 
--------------------------------------------------------------------------------
Si    core    Harmonic      Three-body cnst  1.2614000    eV*rad^-2 0.000  1.900
O1    shel                  Three-body angl  109.47000    degrees   0.000  1.900
õ(2   shel                  Three-body k4    0.0000000    eV*rad^-4 0.000  3.500
                            Three-body k3    0.0000000    eV*rad^-3 
--------------------------------------------------------------------------------
Si    core    Harmonic      Three-body cnst  1.2614000    eV*rad^-2 0.000  1.900
O2    shel                  Three-body angl  109.47000    degrees   0.000  1.900
õ(1   shel                  Three-body k4    0.0000000    eV*rad^-4 0.000  3.500
                            Three-body k3    0.0000000    eV*rad^-3 
--------------------------------------------------------------------------------
Si    core    Harmonic      Three-body cnst  1.2614000    eV*rad^-2 0.000  1.900
õ(1   shel                  Three-body angl  109.47000    degrees   0.000  1.900
õ(2   shel                  Three-body k4    0.0000000    eV*rad^-4 0.000  3.500
                            Three-body k3    0.0000000    eV*rad^-3 
--------------------------------------------------------------------------------
Si    core    Harmonic      Three-body cnst  1.2614000    eV*rad^-2 0.000  1.900
O2    shel                  Three-body angl  109.47000    degrees   0.000  1.900
O2    shel                  Three-body k4    0.0000000    eV*rad^-4 0.000  3.500
                            Three-body k3    0.0000000    eV*rad^-3 
--------------------------------------------------------------------------------
Si    core    Harmonic      Three-body cnst  1.2614000    eV*rad^-2 0.000  1.900
O2    shel                  Three-body angl  109.47000    degrees   0.000  1.900
õ(2   shel                  Three-body k4    0.0000000    eV*rad^-4 0.000  3.500
                            Three-body k3    0.0000000    eV*rad^-3 
--------------------------------------------------------------------------------
Si    core    Harmonic      Three-body cnst  1.2614000    eV*rad^-2 0.000  1.900
õ(2   shel                  Three-body angl  109.47000    degrees   0.000  1.900
õ(2   shel                  Three-body k4    0.0000000    eV*rad^-4 0.000  3.500
                            Three-body k3    0.0000000    eV*rad^-3 
--------------------------------------------------------------------------------

********************************************************************************
*  Output for configuration   1 : c00779.vasp                                  *
********************************************************************************


  Components of energy : 

--------------------------------------------------------------------------------
  Interatomic potentials     =         896.63474295 eV    
  Three-body potentials      =           0.00000000 eV    
  Monopole - monopole (real) =       -2676.00317478 eV    
  Monopole - monopole (recip)=       -1115.35404472 eV    
  Monopole - monopole (total)=       -3791.35721950 eV    
--------------------------------------------------------------------------------
  Total lattice energy       =       -2894.72247656 eV    
--------------------------------------------------------------------------------
  Total lattice energy       =         -279296.4691 kJ/(mole unit cells)
--------------------------------------------------------------------------------


  Number of variables =      363

  Maximum number of calculations  =          1000
  Maximum Hessian update interval =            10
  Maximum step size               =   0.100000000
  Maximum parameter tolerance     =   0.000010000
  Maximum function  tolerance     =   0.000010000
  Maximum gradient  tolerance     =   0.001000000
  Maximum gradient  component     =   0.010000000

  Symmetry not applied to optimisation

  Cell parameters to be optimised using strains

  Newton-Raphson optimiser to be used

  BFGS hessian update to be used

  Lower half triangular hessian to be used

  Minimiser to switch to RFO
  When gradient norm is less than     0.050000

  Dumpfile to be written after every cycle

  Start of bulk optimisation :

  Cycle:      0 Energy:     -2894.722477  Gnorm:      5.838296  CPU:    0.112
  ** Hessian calculated **
  Cycle:      1 Energy:     -2938.253982  Gnorm:      1.396701  CPU:    0.255
  ** Hessian calculated **
  Cycle:      2 Energy:     -2943.161593  Gnorm:      0.800528  CPU:    0.451
  Cycle:      3 Energy:     -2944.105311  Gnorm:      0.391877  CPU:    0.540
  Cycle:      4 Energy:     -2944.617566  Gnorm:      0.317541  CPU:    0.646
  Cycle:      5 Energy:     -2945.240516  Gnorm:      0.264916  CPU:    0.753
  Cycle:      6 Energy:     -2945.899263  Gnorm:      0.221213  CPU:    0.860
  Cycle:      7 Energy:     -2946.226065  Gnorm:      0.159526  CPU:    0.950
  Cycle:      8 Energy:     -2946.347214  Gnorm:      0.113891  CPU:    1.041
  Cycle:      9 Energy:     -2946.401877  Gnorm:      0.086630  CPU:    1.147
  Cycle:     10 Energy:     -2946.442577  Gnorm:      0.079544  CPU:    1.254
  Cycle:     11 Energy:     -2946.487357  Gnorm:      0.085586  CPU:    1.361
  ** Hessian calculated **
  Cycle:     12 Energy:     -2946.506393  Gnorm:      0.084096  CPU:    1.557
  Cycle:     13 Energy:     -2946.536552  Gnorm:      0.081624  CPU:    1.684
  Cycle:     14 Energy:     -2946.575256  Gnorm:      0.078158  CPU:    1.811
  Cycle:     15 Energy:     -2946.608217  Gnorm:      0.074773  CPU:    1.920
  Cycle:     16 Energy:     -2946.631594  Gnorm:      0.071790  CPU:    2.047
  ** Hessian calculated **
  Cycle:     17 Energy:     -2946.699872  Gnorm:      0.063985  CPU:    2.239
  ** Hessian calculated **
  Cycle:     18 Energy:     -2946.820032  Gnorm:      0.055951  CPU:    2.428
  Cycle:     19 Energy:     -2946.852431  Gnorm:      0.059530  CPU:    2.517
  ** Hessian calculated **
  Cycle:     20 Energy:     -2946.864221  Gnorm:      0.040534  CPU:    2.691
  ** Hessian has required structure
  Cycle:     21 Energy:     -2946.872765  Gnorm:      0.091685  CPU:    2.815
  ** Hessian has required structure
  Cycle:     22 Energy:     -2946.882697  Gnorm:      0.081263  CPU:    2.957
  ** Hessian has required structure
  Cycle:     23 Energy:     -2946.887736  Gnorm:      0.067367  CPU:    3.081
  ** Hessian has required structure
  Cycle:     24 Energy:     -2946.890642  Gnorm:      0.061150  CPU:    3.205
  ** Hessian has required structure
  Cycle:     25 Energy:     -2946.892879  Gnorm:      0.075575  CPU:    3.331
  ** Hessian has required structure
  Cycle:     26 Energy:     -2946.899186  Gnorm:      0.092584  CPU:    3.474
  ** Hessian has required structure
  Cycle:     27 Energy:     -2946.905665  Gnorm:      0.076774  CPU:    3.599
  ** Hessian has required structure
  Cycle:     28 Energy:     -2946.908525  Gnorm:      0.063347  CPU:    3.723
  ** Hessian has required structure
  Cycle:     29 Energy:     -2946.910227  Gnorm:      0.062991  CPU:    3.849
  ** Hessian has wrong structure
  ** Imaginary eigenvectors =   5
  Cycle:     30 Energy:     -2946.923782  Gnorm:      0.070102  CPU:    4.234
  ** Hessian has wrong structure
  ** Imaginary eigenvectors =   4
  Cycle:     31 Energy:     -2946.991154  Gnorm:      0.108174  CPU:    4.574
  ** Hessian has wrong structure
  ** Imaginary eigenvectors =   1
  ** Hessian has wrong structure
  ** Imaginary eigenvectors =   1
  Cycle:     32 Energy:     -2947.120728  Gnorm:      0.130341  CPU:    5.029
  ** Hessian has wrong structure
  ** Imaginary eigenvectors =   1
  Cycle:     33 Energy:     -2947.357047  Gnorm:      0.083412  CPU:    5.236
  ** Hessian has wrong structure
  ** Imaginary eigenvectors =   2
  ** Hessian has wrong structure
  ** Imaginary eigenvectors =   2
  Cycle:     34 Energy:     -2947.374577  Gnorm:      0.102896  CPU:    5.739
  ** Hessian calculated **
  Cycle:     35 Energy:     -2947.396092  Gnorm:      0.043231  CPU:    5.930
  ** Hessian has required structure
  Cycle:     36 Energy:     -2947.399809  Gnorm:      0.058243  CPU:    6.059
  ** Hessian has required structure
  Cycle:     37 Energy:     -2947.405265  Gnorm:      0.059652  CPU:    6.202
  ** Hessian has required structure
  Cycle:     38 Energy:     -2947.408051  Gnorm:      0.054467  CPU:    6.328
  ** Hessian has required structure
  Cycle:     39 Energy:     -2947.411409  Gnorm:      0.051582  CPU:    6.469
  ** Hessian has required structure
  Cycle:     40 Energy:     -2947.414234  Gnorm:      0.048418  CPU:    6.593
  ** Hessian has required structure
  Cycle:     41 Energy:     -2947.417447  Gnorm:      0.032431  CPU:    6.720
  ** Hessian has required structure
  Cycle:     42 Energy:     -2947.418330  Gnorm:      0.027753  CPU:    6.846
  ** Hessian has required structure
  Cycle:     43 Energy:     -2947.419239  Gnorm:      0.027648  CPU:    6.970
  ** Hessian has required structure
  Cycle:     44 Energy:     -2947.420157  Gnorm:      0.033138  CPU:    7.111
  ** Hessian has wrong structure
  ** Imaginary eigenvectors =   2
  ** Hessian has wrong structure
  ** Imaginary eigenvectors =   1
  Cycle:     45 Energy:     -2947.515849  Gnorm:      0.065163  CPU:    7.562
  ** Hessian has required structure
  Cycle:     46 Energy:     -2947.577105  Gnorm:      0.116531  CPU:    7.689
  ** Hessian has required structure
  Cycle:     47 Energy:     -2947.713545  Gnorm:      0.122099  CPU:    7.832
  ** Hessian has required structure
  Cycle:     48 Energy:     -2947.786076  Gnorm:      0.060475  CPU:    7.977
  ** Hessian has required structure
  Cycle:     49 Energy:     -2947.825174  Gnorm:      0.042949  CPU:    8.121
  ** Hessian has required structure
  Cycle:     50 Energy:     -2947.851797  Gnorm:      0.038964  CPU:    8.261
  ** Hessian has required structure
  Cycle:     51 Energy:     -2947.871195  Gnorm:      0.038759  CPU:    8.401
  ** Hessian has required structure
  Cycle:     52 Energy:     -2947.885640  Gnorm:      0.023306  CPU:    8.543
  ** Hessian has required structure
  Cycle:     53 Energy:     -2947.891962  Gnorm:      0.026514  CPU:    8.684
  ** Hessian has required structure
  Cycle:     54 Energy:     -2947.895928  Gnorm:      0.014299  CPU:    8.824
  ** Hessian has required structure
  Cycle:     55 Energy:     -2947.898979  Gnorm:      0.007350  CPU:    9.059
  ** Hessian has required structure
  Cycle:     56 Energy:     -2947.899753  Gnorm:      0.003835  CPU:    9.216
  ** Hessian has required structure
  Cycle:     57 Energy:     -2947.899957  Gnorm:      0.001930  CPU:    9.374
  ** Hessian has required structure
  Cycle:     58 Energy:     -2947.900004  Gnorm:      0.001165  CPU:    9.519
  ** Hessian has required structure
  Cycle:     59 Energy:     -2947.900022  Gnorm:      0.000700  CPU:    9.661
  ** Hessian has required structure
  Cycle:     60 Energy:     -2947.900033  Gnorm:      0.000303  CPU:    9.835
  ** Hessian has required structure
  Cycle:     61 Energy:     -2947.900034  Gnorm:      0.000212  CPU:    9.960
  ** Hessian has required structure
  Cycle:     62 Energy:     -2947.900035  Gnorm:      0.000149  CPU:   10.085
  ** Hessian has required structure
  Cycle:     63 Energy:     -2947.900036  Gnorm:      0.000104  CPU:   10.209
  ** Hessian has required structure


  **** Optimisation achieved ****


  Final energy =   -2947.90003578 eV      
  Final Gnorm  =       0.00007292

  Components of energy : 

--------------------------------------------------------------------------------
  Interatomic potentials     =         780.01372487 eV    
  Three-body potentials      =           0.00000000 eV    
  Monopole - monopole (real) =       -1554.26759880 eV    
  Monopole - monopole (recip)=       -2173.64616184 eV    
  Monopole - monopole (total)=       -3727.91376064 eV    
--------------------------------------------------------------------------------
  Total lattice energy       =       -2947.90003578 eV    
--------------------------------------------------------------------------------
  Total lattice energy       =         -284427.2907 kJ/(mole unit cells)
--------------------------------------------------------------------------------

  Final fractional coordinates of atoms :

--------------------------------------------------------------------------------
   No.  Atomic        x           y          z          Radius
        Label       (Frac)      (Frac)     (Frac)       (Angs) 
--------------------------------------------------------------------------------
     1  Ge    c     0.052090    0.000000    0.372270    0.000000
     2  Ge    c     0.445128    0.054375    0.338887    0.000000
     3  Ge    c     0.939298    0.033841    0.614309    0.000000
     4  Ge    c     0.545988    0.991464    0.077432    0.000000
     5  Ge    c     0.938661    0.049200    0.128484    0.000000
     6  Ge    c     0.439587    0.042134    0.820055    0.000000
     7  Ge    c     0.040671    0.978646    0.873761    0.000000
     8  Ge    c     0.168197    0.294507    0.262933    0.000000
     9  Ge    c     0.321367    0.771419    0.259068    0.000000
    10  Ge    c     0.837464    0.346499    0.683099    0.000000
    11  Ge    c     0.636396    0.680561    0.697621    0.000000
    12  Ge    c     0.817789    0.748331    0.684655    0.000000
    13  Ge    c     0.349583    0.369721    0.265348    0.000000
    14  Ge    c     0.665515    0.288550    0.011110    0.000000
    15  Ge    c     0.819460    0.760350    0.005050    0.000000
    16  Ge    c     0.346049    0.353723    0.944071    0.000000
    17  Ge    c     0.141199    0.669671    0.935525    0.000000
    18  Ge    c     0.318510    0.760567    0.936743    0.000000
    19  Ge    c     0.166273    0.266377    0.944437    0.000000
    20  Ge    c     0.845597    0.357629    0.007834    0.000000
    21  Si    c     0.547278    0.992272    0.582408    0.000000
    22  Si    c     0.659486    0.282093    0.696847    0.000000
    23  Si    c     0.145107    0.689766    0.251970    0.000000
    24  Si    c     0.642538    0.683936    0.008149    0.000000
    25  O1    c     0.120482    0.157379    0.364134    0.000000
    26  O1    c     0.367736    0.919218    0.358260    0.000000
    27  O1    c     0.898797    0.228695    0.591259    0.000000
    28  O3    c     0.572065    0.800288    0.611316    0.000000
    29  O1    c     0.867894    0.883770    0.586684    0.000000
    30  O2    c     0.613703    0.131821    0.616425    0.000000
    31  O3    c     0.083431    0.799122    0.329073    0.000000
    32  O1    c     0.414349    0.259149    0.356467    0.000000
    33  O1    c     0.021333    0.995931    0.533766    0.000000
    34  O3    c     0.525162    0.007378    0.428605    0.000000
    35  O1    c     0.969594    0.045550    0.289759    0.000000
    36  O1    c     0.470589    0.018957    0.175923    0.000000
    37  O1    c     0.964158    0.024759    0.780665    0.000000
    38  O3    c     0.469974    0.034738    0.657487    0.000000
    39  O1    c     0.612596    0.154315    0.104018    0.000000
    40  O1    c     0.860151    0.917787    0.102399    0.000000
    41  O1    c     0.411060    0.246564    0.852846    0.000000
    42  O1    c     0.072929    0.773539    0.850403    0.000000
    43  O1    c     0.364637    0.901099    0.837468    0.000000
    44  O1    c     0.115399    0.120607    0.850733    0.000000
    45  O3    c     0.588001    0.794578    0.099293    0.000000
    46  O1    c     0.914340    0.254809    0.092275    0.000000
    47  O1    c     0.515253    0.990562    0.915798    0.000000
    48  O1    c     0.014122    0.985909    0.037383    0.000000
    49  O3    c     0.156244    0.505649    0.316560    0.000000
    50  O1    c     0.340403    0.574044    0.322721    0.000000
    51  O1    c     0.830673    0.545263    0.621030    0.000000
    52  O3    c     0.642423    0.469383    0.640322    0.000000
    53  O1    c     0.263514    0.260140    0.267140    0.000000
    54  O3    c     0.224144    0.798373    0.256882    0.000000
    55  O3    c     0.748222    0.246553    0.686956    0.000000
    56  O1    c     0.722292    0.782399    0.682678    0.000000
    57  O1    c     0.134342    0.257836    0.105145    0.000000
    58  O1    c     0.350673    0.782676    0.097598    0.000000
    59  O1    c     0.869105    0.365363    0.843882    0.000000
    60  O3    c     0.608028    0.666452    0.859528    0.000000
    61  O1    c     0.851445    0.769035    0.845285    0.000000
    62  O3    c     0.633993    0.273562    0.848217    0.000000
    63  O3    c     0.118867    0.652102    0.101998    0.000000
    64  O1    c     0.378948    0.375884    0.103970    0.000000
    65  O3    c     0.654247    0.498689    0.067234    0.000000
    66  O1    c     0.838902    0.563392    0.067541    0.000000
    67  O1    c     0.331399    0.552205    0.882824    0.000000
    68  O1    c     0.151828    0.465958    0.878640    0.000000
    69  O1    c     0.759809    0.248692    0.021489    0.000000
    70  O3    c     0.722602    0.785689    0.995943    0.000000
    71  O1    c     0.261956    0.235652    0.945314    0.000000
    72  O1    c     0.223012    0.792919    0.928952    0.000000
    73  O1    s     0.118840    0.155684    0.356989    0.000000
    74  O1    s     0.369816    0.917673    0.349183    0.000000
    75  O1    s     0.897172    0.223208    0.599870    0.000000
    76  O3    s     0.574782    0.809259    0.615371    0.000000
    77  O1    s     0.869347    0.884480    0.596244    0.000000
    78  O2    s     0.611526    0.133002    0.621384    0.000000
    79  O3    s     0.087012    0.804436    0.324935    0.000000
    80  O1    s     0.411953    0.251787    0.348539    0.000000
    81  O1    s     0.017187    0.999134    0.528443    0.000000
    82  O3    s     0.520870    0.009697    0.436110    0.000000
    83  O1    s     0.973303    0.042472    0.283893    0.000000
    84  O1    s     0.474866    0.019317    0.179598    0.000000
    85  O1    s     0.968524    0.021756    0.776532    0.000000
    86  O3    s     0.474875    0.031329    0.662709    0.000000
    87  O1    s     0.611957    0.153169    0.094726    0.000000
    88  O1    s     0.862819    0.915182    0.096661    0.000000
    89  O1    s     0.408175    0.239425    0.857431    0.000000
    90  O1    s     0.075795    0.780245    0.858463    0.000000
    91  O1    s     0.366723    0.900796    0.843941    0.000000
    92  O1    s     0.113931    0.121656    0.859716    0.000000
    93  O3    s     0.590145    0.798581    0.088786    0.000000
    94  O1    s     0.910808    0.247558    0.088392    0.000000
    95  O1    s     0.511688    0.994668    0.920425    0.000000
    96  O1    s     0.010340    0.990198    0.032579    0.000000
    97  O3    s     0.156080    0.507300    0.306472    0.000000
    98  O1    s     0.339731    0.572454    0.313589    0.000000
    99  O1    s     0.830262    0.544373    0.630621    0.000000
   100  O3    s     0.643518    0.467968    0.649793    0.000000
   101  O1    s     0.262544    0.270607    0.266682    0.000000
   102  O3    s     0.224308    0.786335    0.256592    0.000000
   103  O3    s     0.746379    0.257522    0.687641    0.000000
   104  O1    s     0.722902    0.771894    0.683985    0.000000
   105  O1    s     0.139117    0.261124    0.105437    0.000000
   106  O1    s     0.346172    0.780234    0.097574    0.000000
   107  O1    s     0.864959    0.363373    0.844099    0.000000
   108  O3    s     0.613465    0.669199    0.860345    0.000000
   109  O1    s     0.846703    0.766926    0.845446    0.000000
   110  O3    s     0.638904    0.275531    0.846234    0.000000
   111  O3    s     0.123135    0.657073    0.103989    0.000000
   112  O1    s     0.374335    0.373768    0.103961    0.000000
   113  O3    s     0.653947    0.501185    0.057163    0.000000
   114  O1    s     0.837970    0.562563    0.058448    0.000000
   115  O1    s     0.331588    0.552048    0.891383    0.000000
   116  O1    s     0.152025    0.467799    0.887771    0.000000
   117  O1    s     0.758722    0.259584    0.019704    0.000000
   118  O3    s     0.722704    0.774230    0.997762    0.000000
   119  O1    s     0.260788    0.246320    0.945163    0.000000
   120  O1    s     0.224158    0.781521    0.930054    0.000000
--------------------------------------------------------------------------------

  Final Cartesian lattice vectors (Angstroms) :

       17.659644   -0.214065   -0.100420
       -0.095206    7.819369   -0.077894
       -0.061758   -0.113843   10.113761


  Final cell parameters and derivatives :

--------------------------------------------------------------------------------
       a           17.661227 Angstrom     dE/de1(xx)     0.003233 eV/strain
       b            7.820336 Angstrom     dE/de2(yy)     0.002949 eV/strain
       c           10.114590 Angstrom     dE/de3(zz)     0.001455 eV/strain
       alpha       91.211279 Degrees      dE/de4(yz)     0.000370 eV/strain
       beta        90.667757 Degrees      dE/de5(xz)    -0.001574 eV/strain
       gamma       91.388728 Degrees      dE/de6(xy)    -0.000529 eV/strain
--------------------------------------------------------------------------------

  Primitive cell volume =          1396.168244 Angs**3

  Density of cell =      2.774285 g/cm**3

  Non-primitive cell volume =          1396.168244 Angs**3


  Final internal derivatives :

--------------------------------------------------------------------------------
   No.  Atomic          a             b             c           Radius
        Label          (eV)          (eV)          (eV)        (eV/Angs)
--------------------------------------------------------------------------------
      1 Ge    c       0.000000      0.000000      0.000000      0.000000
      2 Ge    c      -0.001284     -0.000061     -0.000713      0.000000
      3 Ge    c       0.001079      0.000909     -0.000224      0.000000
      4 Ge    c      -0.001620     -0.000177     -0.004542      0.000000
      5 Ge    c      -0.000946     -0.000819      0.002410      0.000000
      6 Ge    c       0.002626     -0.000813      0.001570      0.000000
      7 Ge    c       0.003273     -0.000367     -0.000036      0.000000
      8 Ge    c       0.000347     -0.000687      0.000933      0.000000
      9 Ge    c      -0.000220      0.000292     -0.000121      0.000000
     10 Ge    c       0.001168     -0.000485      0.000927      0.000000
     11 Ge    c      -0.001052      0.000440     -0.000106      0.000000
     12 Ge    c       0.000684      0.000423     -0.000225      0.000000
     13 Ge    c      -0.000040     -0.000646     -0.000371      0.000000
     14 Ge    c      -0.000732     -0.000220     -0.000452      0.000000
     15 Ge    c       0.002629     -0.000190      0.000731      0.000000
     16 Ge    c      -0.001269     -0.000096      0.000154      0.000000
     17 Ge    c       0.000392      0.000565     -0.000357      0.000000
     18 Ge    c       0.000204     -0.000016     -0.000209      0.000000
     19 Ge    c      -0.000612     -0.000624     -0.000963      0.000000
     20 Ge    c       0.000030     -0.000787     -0.000626      0.000000
     21 Si    c      -0.000767      0.000150     -0.000202      0.000000
     22 Si    c      -0.003098     -0.000482     -0.000393      0.000000
     23 Si    c       0.002596     -0.000016      0.000004      0.000000
     24 Si    c      -0.003601     -0.000609     -0.001818      0.000000
     25 O1    c       0.000488      0.000278     -0.000912      0.000000
     26 O1    c       0.000253      0.000303     -0.000014      0.000000
     27 O1    c       0.001643     -0.000957     -0.001609      0.000000
     28 O3    c       0.000941     -0.000030      0.000211      0.000000
     29 O1    c      -0.004422     -0.001988     -0.000558      0.000000
     30 O2    c       0.001722      0.000888      0.001079      0.000000
     31 O3    c      -0.005467      0.002240      0.001504      0.000000
     32 O1    c      -0.000459     -0.000086     -0.000162      0.000000
     33 O1    c      -0.002088      0.000954     -0.000805      0.000000
     34 O3    c       0.003657     -0.000180      0.002943      0.000000
     35 O1    c      -0.002603     -0.000997     -0.002863      0.000000
     36 O1    c      -0.007789      0.000019      0.006615      0.000000
     37 O1    c      -0.001630     -0.000558      0.001681      0.000000
     38 O3    c       0.001762     -0.000136     -0.000507      0.000000
     39 O1    c       0.002499      0.002931      0.000323      0.000000
     40 O1    c       0.000562      0.000127     -0.000449      0.000000
     41 O1    c       0.000531      0.000353     -0.000367      0.000000
     42 O1    c      -0.001543      0.001650     -0.000107      0.000000
     43 O1    c      -0.000653     -0.000189      0.000513      0.000000
     44 O1    c       0.000347     -0.000844      0.001757      0.000000
     45 O3    c       0.002936     -0.000450      0.002940      0.000000
     46 O1    c       0.001690      0.000678      0.000652      0.000000
     47 O1    c       0.000418      0.002722      0.000084      0.000000
     48 O1    c       0.004332      0.000728     -0.001958      0.000000
     49 O3    c      -0.000189      0.000401      0.000217      0.000000
     50 O1    c      -0.000008      0.000301      0.000138      0.000000
     51 O1    c       0.000273      0.000286     -0.002114      0.000000
     52 O3    c       0.000745     -0.001351      0.000379      0.000000
     53 O1    c      -0.001309     -0.000061     -0.000008      0.000000
     54 O3    c      -0.001964      0.000251     -0.000075      0.000000
     55 O3    c      -0.001107     -0.000975      0.000384      0.000000
     56 O1    c       0.000522      0.000964     -0.000346      0.000000
     57 O1    c       0.000213      0.000108      0.000057      0.000000
     58 O1    c      -0.000102     -0.000057      0.000516      0.000000
     59 O1    c       0.001614      0.000152     -0.001559      0.000000
     60 O3    c       0.000240     -0.000169      0.002120      0.000000
     61 O1    c       0.001009     -0.000246      0.001085      0.000000
     62 O3    c       0.000520      0.000393     -0.001046      0.000000
     63 O3    c      -0.001617     -0.000516     -0.000969      0.000000
     64 O1    c      -0.001005      0.000398      0.000936      0.000000
     65 O3    c       0.000069      0.000333      0.000824      0.000000
     66 O1    c       0.000505      0.003578      0.001069      0.000000
     67 O1    c      -0.000390     -0.000060     -0.000140      0.000000
     68 O1    c       0.000231     -0.000697     -0.000041      0.000000
     69 O1    c      -0.001508     -0.001800      0.000039      0.000000
     70 O3    c       0.003942      0.002106     -0.000977      0.000000
     71 O1    c       0.002567      0.000229      0.000308      0.000000
     72 O1    c      -0.003081     -0.000033     -0.000358      0.000000
     73 O1    s       0.000136      0.000165      0.000051      0.000000
     74 O1    s       0.000303     -0.000386     -0.000108      0.000000
     75 O1    s      -0.000290      0.001308      0.000784      0.000000
     76 O3    s      -0.000992      0.000402     -0.001001      0.000000
     77 O1    s       0.002505      0.000543      0.000013      0.000000
     78 O2    s      -0.000546      0.000152     -0.000502      0.000000
     79 O3    s       0.002125     -0.001303      0.000424      0.000000
     80 O1    s       0.001074      0.000172      0.000083      0.000000
     81 O1    s       0.002056     -0.001210      0.001770      0.000000
     82 O3    s      -0.001968     -0.000173     -0.001337      0.000000
     83 O1    s       0.000649      0.001561      0.001954      0.000000
     84 O1    s       0.003413     -0.000153     -0.004124      0.000000
     85 O1    s       0.003425      0.000783     -0.000192      0.000000
     86 O3    s      -0.001706      0.000129     -0.000199      0.000000
     87 O1    s      -0.000960     -0.001114      0.000719      0.000000
     88 O1    s      -0.000497     -0.000388     -0.000374      0.000000
     89 O1    s      -0.000190     -0.000114      0.000314      0.000000
     90 O1    s       0.000024     -0.000534      0.000387      0.000000
     91 O1    s       0.001356      0.000229     -0.000213      0.000000
     92 O1    s      -0.000747      0.000826     -0.000779      0.000000
     93 O3    s      -0.003413     -0.000071     -0.000584      0.000000
     94 O1    s       0.000196     -0.000750      0.000857      0.000000
     95 O1    s      -0.002554     -0.002642     -0.000028      0.000000
     96 O1    s      -0.000898     -0.001610     -0.000210      0.000000
     97 O3    s       0.001156     -0.001010      0.000213      0.000000
     98 O1    s       0.000124     -0.000253     -0.000106      0.000000
     99 O1    s      -0.001166      0.000085      0.000584      0.000000
    100 O3    s      -0.000690     -0.000017     -0.000310      0.000000
    101 O1    s       0.000555      0.000343     -0.000185      0.000000
    102 O3    s       0.002900     -0.000158      0.000242      0.000000
    103 O3    s      -0.000831      0.000245     -0.000730      0.000000
    104 O1    s       0.000564     -0.000486      0.000217      0.000000
    105 O1    s      -0.000475      0.000065     -0.000512      0.000000
    106 O1    s       0.000191     -0.000037     -0.000037      0.000000
    107 O1    s       0.001241     -0.000066     -0.000186      0.000000
    108 O3    s      -0.002086      0.000206     -0.001529      0.000000
    109 O1    s      -0.000121      0.000257     -0.000577      0.000000
    110 O3    s      -0.000764     -0.000191     -0.000063      0.000000
    111 O3    s      -0.000641      0.000329     -0.001155      0.000000
    112 O1    s       0.000616     -0.000242     -0.000603      0.000000
    113 O3    s      -0.000047     -0.000743     -0.000509      0.000000
    114 O1    s      -0.001097     -0.001024      0.000610      0.000000
    115 O1    s       0.000458     -0.000164      0.000136      0.000000
    116 O1    s      -0.000077     -0.000034      0.000126      0.000000
    117 O1    s      -0.000363      0.000817      0.000592      0.000000
    118 O3    s       0.000128     -0.000647      0.000619      0.000000
    119 O1    s      -0.002021      0.000090     -0.000249      0.000000
    120 O1    s       0.001133      0.000050      0.000182      0.000000
--------------------------------------------------------------------------------
  Maximum abs         0.007789      0.003578      0.006615      0.000000
--------------------------------------------------------------------------------


  Born effective charge tensors : 

-------------------------------------------------------------------------------
  Atom             x           y             z
-------------------------------------------------------------------------------
    1 Ge    x       4.2130     -0.1622     -0.4663
            y       0.1632      3.9163      0.0996
            z      -0.2529     -0.0578      4.3663
-------------------------------------------------------------------------------
    2 Ge    x       4.0817     -0.2734     -0.1208
            y       0.1180      3.9141      0.0319
            z       0.7667     -0.1274      4.2343
-------------------------------------------------------------------------------
    3 Ge    x       4.2942     -0.2364      0.1097
            y       0.0565      3.8900     -0.0372
            z      -0.8128      0.1124      4.1348
-------------------------------------------------------------------------------
    4 Ge    x       4.2199     -0.1106      0.0002
            y       0.0905      3.9215      0.0202
            z      -0.7313      0.1486      3.8022
-------------------------------------------------------------------------------
    5 Ge    x       4.3215     -0.2581      0.4348
            y       0.1535      3.9252     -0.0868
            z       0.3413     -0.0193      3.9762
-------------------------------------------------------------------------------
    6 Ge    x       4.3042     -0.2073     -0.3900
            y       0.1271      3.9415      0.0440
            z      -0.3059     -0.0112      3.8292
-------------------------------------------------------------------------------
    7 Ge    x       4.3340     -0.2226     -0.0407
            y       0.1113      3.9187     -0.0289
            z       0.6490     -0.2075      3.7024
-------------------------------------------------------------------------------
    8 Ge    x       3.9949      0.2410     -0.2536
            y       0.2996      4.1660     -0.1372
            z       0.0159     -0.2193      3.5763
-------------------------------------------------------------------------------
    9 Ge    x       3.9418      0.2990      0.3154
            y       0.2981      4.1413      0.0521
            z       0.0588      0.1322      3.6188
-------------------------------------------------------------------------------
   10 Ge    x       3.9468     -0.1511     -0.2474
            y      -0.4778      4.1491      0.0891
            z      -0.0887      0.1631      3.5854
-------------------------------------------------------------------------------
   11 Ge    x       3.7900     -0.0584      0.1553
            y      -0.4317      4.2360     -0.1542
            z       0.0213     -0.2778      3.4406
-------------------------------------------------------------------------------
   12 Ge    x       4.0446      0.2623     -0.3000
            y       0.2870      4.1432     -0.0599
            z      -0.0586     -0.1214      3.5824
-------------------------------------------------------------------------------
   13 Ge    x       3.9608     -0.1134      0.2035
            y      -0.4739      4.2225     -0.1030
            z       0.0956     -0.1852      3.6006
-------------------------------------------------------------------------------
   14 Ge    x       4.0131      0.2181     -0.2897
            y       0.3135      4.1226     -0.1580
            z      -0.0460     -0.2415      3.4234
-------------------------------------------------------------------------------
   15 Ge    x       3.9025      0.2785      0.3607
            y       0.2534      4.1909      0.0775
            z       0.0401      0.1856      3.5358
-------------------------------------------------------------------------------
   16 Ge    x       4.0406     -0.0808     -0.3204
            y      -0.4589      4.1789      0.0864
            z      -0.1482      0.1870      3.5533
-------------------------------------------------------------------------------
   17 Ge    x       4.0002     -0.0661      0.3209
            y      -0.4347      4.2049     -0.0831
            z       0.1461     -0.1965      3.4073
-------------------------------------------------------------------------------
   18 Ge    x       4.0707      0.2387     -0.3486
            y       0.2611      4.1866     -0.1295
            z      -0.0689     -0.1969      3.5874
-------------------------------------------------------------------------------
   19 Ge    x       4.0932      0.2644      0.3133
            y       0.2783      4.1745      0.0581
            z       0.0246      0.1488      3.4760
-------------------------------------------------------------------------------
   20 Ge    x       4.0520     -0.0907      0.2767
            y      -0.4566      4.1705     -0.0874
            z       0.1865     -0.1760      3.5254
-------------------------------------------------------------------------------
   21 Si    x       3.6104     -0.3924      0.4416
            y      -0.0020      3.6097     -0.1175
            z       0.1417     -0.1346      4.0998
-------------------------------------------------------------------------------
   22 Si    x       3.5801      0.1191      0.0968
            y       0.1083      3.8245     -0.0663
            z      -0.1006      0.0877      3.2123
-------------------------------------------------------------------------------
   23 Si    x       3.6919     -0.0660     -0.1796
            y      -0.4378      3.9212      0.0869
            z      -0.0763      0.2555      3.3271
-------------------------------------------------------------------------------
   24 Si    x       3.6496     -0.1020     -0.3151
            y      -0.4104      3.9039      0.0670
            z      -0.0619      0.1804      3.2200
-------------------------------------------------------------------------------
   25 O1    x      -2.1166     -0.9119      0.4958
            y      -0.9626     -2.4122      0.5024
            z       0.4599      0.5367     -1.6776
-------------------------------------------------------------------------------
   26 O1    x      -2.2540     -0.8945     -0.3237
            y      -0.9664     -2.2577     -0.3745
            z      -0.4036     -0.3792     -1.6276
-------------------------------------------------------------------------------
   27 O1    x      -2.0447      0.9132      0.3414
            y       0.9070     -2.5006     -0.2911
            z       0.4315     -0.3229     -1.5848
-------------------------------------------------------------------------------
   28 O3    x      -1.7354      0.8134     -0.4515
            y       0.7362     -2.6215      0.5305
            z      -0.3845      0.5291     -1.5329
-------------------------------------------------------------------------------
   29 O1    x      -2.1838     -0.8866      0.3082
            y      -0.9638     -2.2763      0.3468
            z       0.3976      0.3581     -1.6217
-------------------------------------------------------------------------------
   30 O2    x      -1.6853     -0.6285     -0.3612
            y      -0.6467     -1.9116     -0.3518
            z      -0.3163     -0.3776     -1.3669
-------------------------------------------------------------------------------
   31 O3    x      -1.9498      0.8709      0.5455
            y       0.8055     -2.3262     -0.5495
            z       0.4832     -0.5548     -1.5638
-------------------------------------------------------------------------------
   32 O1    x      -1.9523      0.8680     -0.3666
            y       0.8285     -2.5573      0.3210
            z      -0.4697      0.3799     -1.6006
-------------------------------------------------------------------------------
   33 O1    x      -2.2177      0.1924      0.9238
            y       0.0755     -1.2676     -0.0648
            z       1.1860     -0.1217     -2.9823
-------------------------------------------------------------------------------
   34 O3    x      -1.8478      0.2241     -0.8030
            y       0.0779     -1.2172      0.1369
            z      -1.0132      0.2851     -2.9992
-------------------------------------------------------------------------------
   35 O1    x      -2.1864      0.2474     -0.7815
            y       0.1396     -1.3102      0.1426
            z      -0.7953      0.1705     -2.6888
-------------------------------------------------------------------------------
   36 O1    x      -2.1519      0.2071      0.8633
            y       0.0896     -1.3460     -0.1755
            z       0.8676     -0.2415     -2.7313
-------------------------------------------------------------------------------
   37 O1    x      -2.1572      0.2322     -0.8092
            y       0.1072     -1.3390      0.1641
            z      -0.7853      0.2185     -2.6044
-------------------------------------------------------------------------------
   38 O3    x      -2.1331      0.2172      0.7386
            y       0.0905     -1.2355     -0.1093
            z       0.7387     -0.1320     -2.4144
-------------------------------------------------------------------------------
   39 O1    x      -2.1365     -0.9150      0.3228
            y      -0.9884     -2.4082      0.3482
            z       0.4082      0.3838     -1.5509
-------------------------------------------------------------------------------
   40 O1    x      -2.2427     -0.8950     -0.5497
            y      -0.9084     -2.3161     -0.5423
            z      -0.4579     -0.5231     -1.5924
-------------------------------------------------------------------------------
   41 O1    x      -2.0460      0.8619      0.5871
            y       0.7878     -2.5159     -0.5622
            z       0.5126     -0.5450     -1.5911
-------------------------------------------------------------------------------
   42 O1    x      -2.1004      0.8708     -0.3625
            y       0.8178     -2.4794      0.2525
            z      -0.4159      0.3022     -1.4734
-------------------------------------------------------------------------------
   43 O1    x      -2.2723     -0.9229      0.5853
            y      -0.9240     -2.2655      0.5300
            z       0.5115      0.5357     -1.6379
-------------------------------------------------------------------------------
   44 O1    x      -2.2626     -0.9067     -0.2974
            y      -0.9627     -2.2879     -0.3259
            z      -0.3610     -0.3381     -1.4963
-------------------------------------------------------------------------------
   45 O3    x      -1.9198      0.8424      0.3985
            y       0.8117     -2.2983     -0.3483
            z       0.4311     -0.3947     -1.4676
-------------------------------------------------------------------------------
   46 O1    x      -2.0523      0.8269     -0.5536
            y       0.7610     -2.5262      0.5630
            z      -0.4968      0.5297     -1.5598
-------------------------------------------------------------------------------
   47 O1    x      -2.1339      0.2205     -0.7384
            y       0.1526     -1.3705      0.1864
            z      -0.5257      0.1481     -2.3478
-------------------------------------------------------------------------------
   48 O1    x      -2.1581      0.2575      0.7031
            y       0.1495     -1.3802     -0.1780
            z       0.4855     -0.1510     -2.3021
-------------------------------------------------------------------------------
   49 O3    x      -1.2791      0.1727      0.0347
            y       0.2599     -2.9949      0.1783
            z      -0.0122      0.1823     -1.3270
-------------------------------------------------------------------------------
   50 O1    x      -1.3754      0.2175     -0.0990
            y       0.3238     -3.1397      0.0372
            z      -0.0600      0.0205     -1.3862
-------------------------------------------------------------------------------
   51 O1    x      -1.3420      0.1166      0.0917
            y       0.2161     -3.1521      0.0196
            z       0.0422      0.0338     -1.3945
-------------------------------------------------------------------------------
   52 O3    x      -1.2598      0.1687     -0.0895
            y       0.2747     -3.1185      0.0834
            z      -0.0486      0.0808     -1.3080
-------------------------------------------------------------------------------
   53 O1    x      -3.0731     -0.2389      0.0012
            y      -0.1373     -1.5923      0.0200
            z      -0.0394      0.0524     -1.2197
-------------------------------------------------------------------------------
   54 O3    x      -2.8415     -0.3574     -0.0248
            y      -0.2853     -1.5271     -0.0172
            z      -0.0045     -0.0509     -1.1553
-------------------------------------------------------------------------------
   55 O3    x      -2.9731     -0.1590      0.0795
            y      -0.0846     -1.4383     -0.0124
            z       0.0891     -0.0452     -1.1499
-------------------------------------------------------------------------------
   56 O1    x      -3.0520     -0.2430      0.0862
            y      -0.1382     -1.5639      0.0497
            z       0.0641      0.0809     -1.2224
-------------------------------------------------------------------------------
   57 O1    x      -1.4952     -0.1235     -0.0326
            y      -0.1358     -1.4592     -0.1005
            z      -0.0339     -0.0965     -2.6955
-------------------------------------------------------------------------------
   58 O1    x      -1.5076     -0.1071      0.0448
            y      -0.1211     -1.4165     -0.0097
            z       0.0156     -0.0187     -2.7626
-------------------------------------------------------------------------------
   59 O1    x      -1.4725      0.0244     -0.1197
            y       0.0909     -1.4242     -0.0309
            z      -0.0869     -0.0361     -2.7748
-------------------------------------------------------------------------------
   60 O3    x      -1.3694      0.0321     -0.1203
            y       0.1008     -1.3793     -0.0282
            z      -0.0803     -0.0179     -2.5430
-------------------------------------------------------------------------------
   61 O1    x      -1.5364     -0.1145      0.0117
            y      -0.1298     -1.4150      0.0100
            z      -0.0065     -0.0228     -2.7114
-------------------------------------------------------------------------------
   62 O3    x      -1.3449     -0.1027      0.0556
            y      -0.1120     -1.3723     -0.0308
            z       0.0524     -0.0127     -2.6297
-------------------------------------------------------------------------------
   63 O3    x      -1.3492      0.0010     -0.1305
            y       0.0733     -1.3760     -0.0812
            z      -0.1147     -0.0892     -2.6153
-------------------------------------------------------------------------------
   64 O1    x      -1.4679      0.0255      0.0290
            y       0.0952     -1.4241     -0.0367
            z       0.0062     -0.0326     -2.7679
-------------------------------------------------------------------------------
   65 O3    x      -1.2789      0.1773      0.0568
            y       0.2583     -2.9975      0.1279
            z       0.0002      0.1062     -1.2873
-------------------------------------------------------------------------------
   66 O1    x      -1.4078      0.2116     -0.1143
            y       0.2936     -3.1380      0.0180
            z      -0.0697      0.0192     -1.3498
-------------------------------------------------------------------------------
   67 O1    x      -1.4040      0.2292      0.0739
            y       0.3085     -3.1774      0.0711
            z       0.0283      0.0447     -1.3512
-------------------------------------------------------------------------------
   68 O1    x      -1.3790      0.1841     -0.0906
            y       0.2815     -3.1483      0.0293
            z      -0.0290     -0.0153     -1.3810
-------------------------------------------------------------------------------
   69 O1    x      -3.0519     -0.2101     -0.0003
            y      -0.1110     -1.5785      0.0416
            z      -0.0566      0.0715     -1.2110
-------------------------------------------------------------------------------
   70 O3    x      -2.8466     -0.3328      0.0378
            y      -0.2740     -1.5050      0.0160
            z       0.0257     -0.0228     -1.1395
-------------------------------------------------------------------------------
   71 O1    x      -3.0606     -0.2953      0.0286
            y      -0.1938     -1.6034     -0.0061
            z       0.0592     -0.0338     -1.2005
-------------------------------------------------------------------------------
   72 O1    x      -3.0428     -0.3105      0.0183
            y      -0.2043     -1.6049      0.0363
            z       0.0357      0.0773     -1.2181
-------------------------------------------------------------------------------




  Elastic Constant Matrix: (Units=GPa)

-------------------------------------------------------------------------------
  Indices      1         2         3         4         5         6    
-------------------------------------------------------------------------------
       1     30.2729   12.8166    8.8670    0.0055   -0.9952   -7.1451
       2     12.8166   34.4849    6.5367   -0.1339    0.2267   -6.7392
       3      8.8670    6.5367   12.1716   -0.6496    0.0523   -1.6277
       4      0.0055   -0.1339   -0.6496    8.7145   -1.6819    0.6047
       5     -0.9952    0.2267    0.0523   -1.6819   16.9436   -1.9176
       6     -7.1451   -6.7392   -1.6277    0.6047   -1.9176   20.3877
-------------------------------------------------------------------------------


  Elastic Compliance Matrix: (Units=1/GPa)

-------------------------------------------------------------------------------
  Indices      1         2         3         4         5         6    
-------------------------------------------------------------------------------
       1    0.048710 -0.010441 -0.028440 -0.002321  0.004195  0.011812
       2   -0.010441  0.036428 -0.010997 -0.000832 -0.000300  0.007501
       3   -0.028440 -0.010997  0.108504  0.007985 -0.001669 -0.005334
       4   -0.002321 -0.000832  0.007985  0.117698  0.011206 -0.002888
       5    0.004195 -0.000300 -0.001669  0.011206  0.061141  0.006656
       6    0.011812  0.007501 -0.005334 -0.002888  0.006656  0.055954
-------------------------------------------------------------------------------

  Mechanical properties :

-------------------------------------------------------------------------------
  Convention :                    Reuss         Voigt         Hill
-------------------------------------------------------------------------------
  Bulk  Modulus (GPa)     =      10.65138      14.81889      12.73513
  Shear Modulus (GPa)     =       8.93680      12.45644      10.69662
-------------------------------------------------------------------------------
  Velocity S-wave (km/s)  =       1.79480       2.11895       1.96358
  Velocity P-wave (km/s)  =       2.85208       3.36573       3.11950
-------------------------------------------------------------------------------
  Compressibility (1/GPa) =    0.09388458
-------------------------------------------------------------------------------
  Stress axis :                     x             y             z
-------------------------------------------------------------------------------
  Youngs Moduli (GPa)     =      20.52987      27.45168       9.21629
-------------------------------------------------------------------------------
  Poissons Ratio (x)      =                     0.28661       0.26211
  Poissons Ratio (y)      =       0.21434                     0.10136
  Poissons Ratio (z)      =       0.58387       0.30190
-------------------------------------------------------------------------------


  Piezoelectric Strain Matrix: (Units=C/m**2)

-------------------------------------------------------------------------------
  Indices      1         2         3         4         5         6    
-------------------------------------------------------------------------------
       x    -0.35614  -0.11946  -0.36599  -0.03880   0.03559  -0.35710
       y    -0.87472  -0.64786  -0.22801  -0.33733   0.36429  -0.14732
       z    -0.06513   0.14581   0.13035  -0.31659   0.42576   0.15173
-------------------------------------------------------------------------------


  Piezoelectric Stress Matrix: (Units=10**-11 C/N)

-------------------------------------------------------------------------------
  Indices      1         2         3         4         5         6    
-------------------------------------------------------------------------------
       x    -0.96702   0.07348  -2.67334  -0.51334  -0.14832  -2.27832
       y    -2.87877  -1.28936   0.47461  -3.44471   1.44176  -1.88202
       z    -0.40886   0.58317   1.03443  -3.18585   2.29589   1.18675
-------------------------------------------------------------------------------


  Static dielectric constant tensor : 

-------------------------------------------------------------------------------
              x         y         z
-------------------------------------------------------------------------------
       x     5.31097   0.00440  -0.09154
       y     0.00440   6.35940  -0.14257
       z    -0.09154  -0.14257   4.18725
--------------------------------------------------------------------------------

  High frequency dielectric constant tensor : 

-------------------------------------------------------------------------------
              x         y         z
-------------------------------------------------------------------------------
       x     1.55530  -0.00352  -0.00026
       y    -0.00352   1.56191  -0.00084
       z    -0.00026  -0.00084   1.51680
-------------------------------------------------------------------------------

  Static refractive indices : 

-------------------------------------------------------------------------------
    1 =    2.04222      2 =    2.30611      3 =    2.52365
-------------------------------------------------------------------------------

  High frequency refractive indices : 

-------------------------------------------------------------------------------
    1 =    1.23158      2 =    1.24651      3 =    1.25038
-------------------------------------------------------------------------------


  Time to end of optimisation =      10.5066 seconds


  Peak dynamic memory used =       5.01 MB 


  Timing analysis for GULP :

--------------------------------------------------------------------------------
  Task / Subroutine                                          Time (Seconds)
--------------------------------------------------------------------------------
  Calculation of reciprocal space energy and derivatives          0.6961
  Calculation of real space energy and derivatives                7.1648
  Calculation of three-body energy and derivatives                0.1062
  Calculation and manipulation of Hessian matrix                  2.9390
  Calculation of matrix inversion                                 0.0496
  Global summation overhead                                       0.0002
--------------------------------------------------------------------------------
  Total CPU time                                                 10.5067
--------------------------------------------------------------------------------


  Dump file written as c00779.vasp.grs
  CIF file written as c00779.vasp.cif


  Job Finished at 14:13.26 31st October    2025                               

