********************************************************************************
*                       GENERAL UTILITY LATTICE PROGRAM                        *
*                                 Julian Gale                                  *
*                       Curtin Institute for Computation                       *
*                    School of Molecular and Life Sciences                     *
*                    Curtin University, Western Australia                      *
********************************************************************************
* Version = 6.1.2 * Last modified =   3rd November 2022                        *
********************************************************************************
*  optimise     - perform optimisation run                                     *
*  conp         - constant pressure calculation                                *
*  property     - calculate properties for final geometry                      *
********************************************************************************

  Job Started  at 14:22.40 31st October    2025                               

  Number of CPUs =     1


  Total number of configurations input =      1

********************************************************************************
*  Input for Configuration =   1 : c00832.vasp                                 *
********************************************************************************

  Formula = Ge20Si4O48                                                  

  Number of irreducible atoms/shells =     120


  Total number atoms/shells =     120

  Dimensionality = 3               :  Bulk   



  Cartesian lattice vectors (Angstroms) :

       17.182800    0.000000    0.000000
        0.000000    7.513760    0.000000
        0.000000    0.000000   10.447700

  Cell parameters (Angstroms/Degrees):

  a =      17.1828    alpha =  90.0000
  b =       7.5138    beta  =  90.0000
  c =      10.4477    gamma =  90.0000

  Initial cell volume =        1348.875752 Angs**3

  Temperature of configuration =   0.00     K 

  Pressure of configuration =         0.000 GPa 

  Fractional coordinates of asymmetric unit :

--------------------------------------------------------------------------------
   No.  Atomic       x           y          z         Charge      Occupancy
        Label      (Frac)      (Frac)     (Frac)        (e)         (Frac)  
--------------------------------------------------------------------------------
      1 Ge    c    0.052090    0.000000    0.372270     4.00000    1.000000    
      2 Ge    c    0.447910 *  0.000000 *  0.372270 *   4.00000    1.000000    
      3 Ge    c    0.947910 *  0.000000 *  0.627730 *   4.00000    1.000000    
      4 Ge    c    0.556730 *  0.000000 *  0.122130 *   4.00000    1.000000    
      5 Ge    c    0.943270 *  0.000000 *  0.122130 *   4.00000    1.000000    
      6 Ge    c    0.443270 *  0.000000 *  0.877870 *   4.00000    1.000000    
      7 Ge    c    0.056730 *  0.000000 *  0.877870 *   4.00000    1.000000    
      8 Ge    c    0.160190 *  0.293910 *  0.273440 *   4.00000    1.000000    
      9 Ge    c    0.339810 *  0.706090 *  0.273440 *   4.00000    1.000000    
     10 Ge    c    0.839810 *  0.293910 *  0.726560 *   4.00000    1.000000    
     11 Ge    c    0.660190 *  0.706090 *  0.726560 *   4.00000    1.000000    
     12 Ge    c    0.160190 *  0.706090 *  0.273440 *   4.00000    1.000000    
     13 Ge    c    0.339810 *  0.293910 *  0.273440 *   4.00000    1.000000    
     14 Ge    c    0.660660 *  0.294090 *  0.017440 *   4.00000    1.000000    
     15 Ge    c    0.839340 *  0.705910 *  0.017440 *   4.00000    1.000000    
     16 Ge    c    0.339340 *  0.294090 *  0.982560 *   4.00000    1.000000    
     17 Ge    c    0.160660 *  0.705910 *  0.982560 *   4.00000    1.000000    
     18 Ge    c    0.339340 *  0.705910 *  0.982560 *   4.00000    1.000000    
     19 Ge    c    0.160660 *  0.294090 *  0.982560 *   4.00000    1.000000    
     20 Ge    c    0.660660 *  0.705910 *  0.017440 *   4.00000    1.000000    
     21 Si    c    0.552090 *  0.000000 *  0.627730 *   4.00000    1.000000    
     22 Si    c    0.839810 *  0.706090 *  0.726560 *   4.00000    1.000000    
     23 Si    c    0.660190 *  0.293910 *  0.726560 *   4.00000    1.000000    
     24 Si    c    0.839340 *  0.294090 *  0.017440 *   4.00000    1.000000    
     25 O1    c    0.106570 *  0.174340 *  0.366200 *   1.73396    1.000000    
     26 O1    c    0.393430 *  0.825660 *  0.366200 *   1.73396    1.000000    
     27 O1    c    0.893430 *  0.174340 *  0.633800 *   1.73396    1.000000    
     28 O3    c    0.606570 *  0.825660 *  0.633800 *   1.33043    1.000000    
     29 O3    c    0.893430 *  0.825660 *  0.633800 *   1.33043    1.000000    
     30 O2    c    0.606570 *  0.174340 *  0.633800 *   0.87073    1.000000    
     31 O1    c    0.106570 *  0.825660 *  0.366200 *   1.73396    1.000000    
     32 O1    c    0.393430 *  0.174340 *  0.366200 *   1.73396    1.000000    
     33 O1    c    0.000000 *  0.000000 *  0.500000 *   1.73396    1.000000    
     34 O3    c    0.500000 *  0.000000 *  0.500000 *   1.33043    1.000000    
     35 O1    c    0.994520 *  0.000000 *  0.250840 *   1.73396    1.000000    
     36 O1    c    0.505480 *  0.000000 *  0.250840 *   1.73396    1.000000    
     37 O1    c    0.005480 *  0.000000 *  0.749160 *   1.73396    1.000000    
     38 O3    c    0.494520 *  0.000000 *  0.749160 *   1.33043    1.000000    
     39 O1    c    0.610230 *  0.175520 *  0.115390 *   1.73396    1.000000    
     40 O1    c    0.889770 *  0.824480 *  0.115390 *   1.73396    1.000000    
     41 O1    c    0.389770 *  0.175520 *  0.884610 *   1.73396    1.000000    
     42 O1    c    0.110230 *  0.824480 *  0.884610 *   1.73396    1.000000    
     43 O1    c    0.389770 *  0.824480 *  0.884610 *   1.73396    1.000000    
     44 O1    c    0.110230 *  0.175520 *  0.884610 *   1.73396    1.000000    
     45 O1    c    0.610230 *  0.824480 *  0.115390 *   1.73396    1.000000    
     46 O3    c    0.889770 *  0.175520 *  0.115390 *   1.33043    1.000000    
     47 O1    c    0.500000 *  0.000000 *  0.000000 *   1.73396    1.000000    
     48 O1    c    0.000000 *  0.000000 *  0.000000 *   1.73396    1.000000    
     49 O1    c    0.151750 *  0.500000 *  0.313330 *   1.73396    1.000000    
     50 O1    c    0.348250 *  0.500000 *  0.313330 *   1.73396    1.000000    
     51 O3    c    0.848250 *  0.500000 *  0.686670 *   1.33043    1.000000    
     52 O3    c    0.651750 *  0.500000 *  0.686670 *   1.33043    1.000000    
     53 O1    c    0.250000 *  0.234950 *  0.285720 *   1.73396    1.000000    
     54 O1    c    0.250000 *  0.765050 *  0.285720 *   1.73396    1.000000    
     55 O3    c    0.750000 *  0.234950 *  0.714280 *   1.33043    1.000000    
     56 O3    c    0.750000 *  0.765050 *  0.714280 *   1.33043    1.000000    
     57 O1    c    0.131410 *  0.268650 *  0.127790 *   1.73396    1.000000    
     58 O1    c    0.368590 *  0.731350 *  0.127790 *   1.73396    1.000000    
     59 O3    c    0.868590 *  0.268650 *  0.872210 *   1.33043    1.000000    
     60 O1    c    0.631410 *  0.731350 *  0.872210 *   1.73396    1.000000    
     61 O3    c    0.868590 *  0.731350 *  0.872210 *   1.33043    1.000000    
     62 O3    c    0.631410 *  0.268650 *  0.872210 *   1.33043    1.000000    
     63 O1    c    0.131410 *  0.731350 *  0.127790 *   1.73396    1.000000    
     64 O1    c    0.368590 *  0.268650 *  0.127790 *   1.73396    1.000000    
     65 O1    c    0.653920 *  0.500000 *  0.058200 *   1.73396    1.000000    
     66 O3    c    0.846080 *  0.500000 *  0.058200 *   1.33043    1.000000    
     67 O1    c    0.346080 *  0.500000 *  0.941800 *   1.73396    1.000000    
     68 O1    c    0.153920 *  0.500000 *  0.941800 *   1.73396    1.000000    
     69 O3    c    0.750000 *  0.231060 *  0.027050 *   1.33043    1.000000    
     70 O1    c    0.750000 *  0.768940 *  0.027050 *   1.73396    1.000000    
     71 O1    c    0.250000 *  0.231060 *  0.972950 *   1.73396    1.000000    
     72 O1    c    0.250000 *  0.768940 *  0.972950 *   1.73396    1.000000    
     73 O1    s    0.106570 *  0.174340 *  0.366200 *  -3.73396    1.000000    
     74 O1    s    0.393430 *  0.825660 *  0.366200 *  -3.73396    1.000000    
     75 O1    s    0.893430 *  0.174340 *  0.633800 *  -3.73396    1.000000    
     76 O3    s    0.606570 *  0.825660 *  0.633800 *  -3.33043    1.000000    
     77 O3    s    0.893430 *  0.825660 *  0.633800 *  -3.33043    1.000000    
     78 O2    s    0.606570 *  0.174340 *  0.633800 *  -2.87073    1.000000    
     79 O1    s    0.106570 *  0.825660 *  0.366200 *  -3.73396    1.000000    
     80 O1    s    0.393430 *  0.174340 *  0.366200 *  -3.73396    1.000000    
     81 O1    s    0.000000 *  0.000000 *  0.500000 *  -3.73396    1.000000    
     82 O3    s    0.500000 *  0.000000 *  0.500000 *  -3.33043    1.000000    
     83 O1    s    0.994520 *  0.000000 *  0.250840 *  -3.73396    1.000000    
     84 O1    s    0.505480 *  0.000000 *  0.250840 *  -3.73396    1.000000    
     85 O1    s    0.005480 *  0.000000 *  0.749160 *  -3.73396    1.000000    
     86 O3    s    0.494520 *  0.000000 *  0.749160 *  -3.33043    1.000000    
     87 O1    s    0.610230 *  0.175520 *  0.115390 *  -3.73396    1.000000    
     88 O1    s    0.889770 *  0.824480 *  0.115390 *  -3.73396    1.000000    
     89 O1    s    0.389770 *  0.175520 *  0.884610 *  -3.73396    1.000000    
     90 O1    s    0.110230 *  0.824480 *  0.884610 *  -3.73396    1.000000    
     91 O1    s    0.389770 *  0.824480 *  0.884610 *  -3.73396    1.000000    
     92 O1    s    0.110230 *  0.175520 *  0.884610 *  -3.73396    1.000000    
     93 O1    s    0.610230 *  0.824480 *  0.115390 *  -3.73396    1.000000    
     94 O3    s    0.889770 *  0.175520 *  0.115390 *  -3.33043    1.000000    
     95 O1    s    0.500000 *  0.000000 *  0.000000 *  -3.73396    1.000000    
     96 O1    s    0.000000 *  0.000000 *  0.000000 *  -3.73396    1.000000    
     97 O1    s    0.151750 *  0.500000 *  0.313330 *  -3.73396    1.000000    
     98 O1    s    0.348250 *  0.500000 *  0.313330 *  -3.73396    1.000000    
     99 O3    s    0.848250 *  0.500000 *  0.686670 *  -3.33043    1.000000    
    100 O3    s    0.651750 *  0.500000 *  0.686670 *  -3.33043    1.000000    
    101 O1    s    0.250000 *  0.234950 *  0.285720 *  -3.73396    1.000000    
    102 O1    s    0.250000 *  0.765050 *  0.285720 *  -3.73396    1.000000    
    103 O3    s    0.750000 *  0.234950 *  0.714280 *  -3.33043    1.000000    
    104 O3    s    0.750000 *  0.765050 *  0.714280 *  -3.33043    1.000000    
    105 O1    s    0.131410 *  0.268650 *  0.127790 *  -3.73396    1.000000    
    106 O1    s    0.368590 *  0.731350 *  0.127790 *  -3.73396    1.000000    
    107 O3    s    0.868590 *  0.268650 *  0.872210 *  -3.33043    1.000000    
    108 O1    s    0.631410 *  0.731350 *  0.872210 *  -3.73396    1.000000    
    109 O3    s    0.868590 *  0.731350 *  0.872210 *  -3.33043    1.000000    
    110 O3    s    0.631410 *  0.268650 *  0.872210 *  -3.33043    1.000000    
    111 O1    s    0.131410 *  0.731350 *  0.127790 *  -3.73396    1.000000    
    112 O1    s    0.368590 *  0.268650 *  0.127790 *  -3.73396    1.000000    
    113 O1    s    0.653920 *  0.500000 *  0.058200 *  -3.73396    1.000000    
    114 O3    s    0.846080 *  0.500000 *  0.058200 *  -3.33043    1.000000    
    115 O1    s    0.346080 *  0.500000 *  0.941800 *  -3.73396    1.000000    
    116 O1    s    0.153920 *  0.500000 *  0.941800 *  -3.73396    1.000000    
    117 O3    s    0.750000 *  0.231060 *  0.027050 *  -3.33043    1.000000    
    118 O1    s    0.750000 *  0.768940 *  0.027050 *  -3.73396    1.000000    
    119 O1    s    0.250000 *  0.231060 *  0.972950 *  -3.73396    1.000000    
    120 O1    s    0.250000 *  0.768940 *  0.972950 *  -3.73396    1.000000    
--------------------------------------------------------------------------------



********************************************************************************
*  General input information                                                   *
********************************************************************************

  Species output for all configurations : 

--------------------------------------------------------------------------------
  Species    Type    Atomic    Atomic    Charge       Radii (Angs)     Library
                     Number     Mass       (e)     Cova   Ionic  VDW   Symbol
--------------------------------------------------------------------------------
    Ge       Core       32      72.61   4.000000   1.170  0.000  1.750 Ge       
    Si       Core       14      28.09   4.000000   1.200  0.000  2.100 Si       
    O1       Core        8      16.00   1.733957   0.730  0.000  1.360 O1       
    O2       Core        8      16.00   0.870733   0.730  0.000  1.360 O2       
    O3       Core        8      16.00   1.330431   0.730  0.000  1.360 O3       
    O1       Shell       8       0.00  -3.733957   0.730  0.000  0.000 O1       
    O2       Shell       8       0.00  -2.870733   0.730  0.000  0.000 O2       
    O3       Shell       8       0.00  -3.330431   0.730  0.000  0.000 O3       
--------------------------------------------------------------------------------


  Lattice summation method               =    Ewald          (3-D)
                                         =    Parry          (2-D)
                                         =    Saunders et al (1-D)
  Accuracy factor for lattice sums       =   12.000


  Analytic derivatives to be used

  Time limit = Infinity

  Maximum range for interatomic potentials =    100000.000000 Angstroms

  General interatomic potentials :

--------------------------------------------------------------------------------
Atom  Types   Potential      Parameter       Value         Units   Cutoffs(Ang)
  1     2                                                            Min /  Max 
--------------------------------------------------------------------------------
Si   c O1   s Buckingham    Buckingham A     1315.2478    eV        0.000 16.000
                            Buckingham rho  0.31775900    Ang       
                            Buckingham C     10.141118    eV*Ang^6  
--------------------------------------------------------------------------------
Si   c O2   s Buckingham    Buckingham A     1315.2478    eV        0.000 16.000
                            Buckingham rho  0.31775900    Ang       
                            Buckingham C     10.141118    eV*Ang^6  
--------------------------------------------------------------------------------
Si   c O3   s Buckingham    Buckingham A     1315.2478    eV        0.000 16.000
                            Buckingham rho  0.31775900    Ang       
                            Buckingham C     10.141118    eV*Ang^6  
--------------------------------------------------------------------------------
Ge   c O1   s Buckingham    Buckingham A     1497.3996    eV        0.000 16.000
                            Buckingham rho  0.32564600    Ang       
                            Buckingham C     16.808599    eV*Ang^6  
--------------------------------------------------------------------------------
Ge   c O2   s Buckingham    Buckingham A     1497.3996    eV        0.000 16.000
                            Buckingham rho  0.32564600    Ang       
                            Buckingham C     16.808599    eV*Ang^6  
--------------------------------------------------------------------------------
Ge   c O3   s Buckingham    Buckingham A     1497.3996    eV        0.000 16.000
                            Buckingham rho  0.32564600    Ang       
                            Buckingham C     16.808599    eV*Ang^6  
--------------------------------------------------------------------------------
O1   s O1   s Buckingham    Buckingham A     22764.000    eV        0.000 16.000
                            Buckingham rho  0.14900000    Ang       
                            Buckingham C     10.937044    eV*Ang^6  
--------------------------------------------------------------------------------
O1   s O2   s Buckingham    Buckingham A     22764.000    eV        0.000 16.000
                            Buckingham rho  0.14900000    Ang       
                            Buckingham C     10.937044    eV*Ang^6  
--------------------------------------------------------------------------------
O1   s O3   s Buckingham    Buckingham A     22764.000    eV        0.000 16.000
                            Buckingham rho  0.14900000    Ang       
                            Buckingham C     10.937044    eV*Ang^6  
--------------------------------------------------------------------------------
O2   s O2   s Buckingham    Buckingham A     22764.000    eV        0.000 16.000
                            Buckingham rho  0.14900000    Ang       
                            Buckingham C     10.937044    eV*Ang^6  
--------------------------------------------------------------------------------
O2   s O3   s Buckingham    Buckingham A     22764.000    eV        0.000 16.000
                            Buckingham rho  0.14900000    Ang       
                            Buckingham C     10.937044    eV*Ang^6  
--------------------------------------------------------------------------------
O3   s O3   s Buckingham    Buckingham A     22764.000    eV        0.000 16.000
                            Buckingham rho  0.14900000    Ang       
                            Buckingham C     10.937044    eV*Ang^6  
--------------------------------------------------------------------------------
O1   c O1   s Spring (c-s)  Spring k 2       180.31577    eV*Ang^-2 0.000  0.800
                            Spring k 4       0.0000000    eV*Ang^-4 
--------------------------------------------------------------------------------
O2   c O2   s Spring (c-s)  Spring k 2       75.969800    eV*Ang^-2 0.000  0.800
                            Spring k 4       0.0000000    eV*Ang^-4 
--------------------------------------------------------------------------------
O3   c O3   s Spring (c-s)  Spring k 2       128.14270    eV*Ang^-2 0.000  0.800
                            Spring k 4       0.0000000    eV*Ang^-4 
--------------------------------------------------------------------------------

  General Three-body potentials :

--------------------------------------------------------------------------------
  Atoms       Potential      Parameter       Value         Units   Cutoffs(Ang)
  1 / 2 / 3                                                          Min /  Max 
--------------------------------------------------------------------------------
Si    core    Harmonic      Three-body cnst  1.2614000    eV*rad^-2 0.000  1.900
O1    shel                  Three-body angl  109.47000    degrees   0.000  1.900
O1    shel                  Three-body k4    0.0000000    eV*rad^-4 0.000  3.500
                            Three-body k3    0.0000000    eV*rad^-3 
--------------------------------------------------------------------------------
Si    core    Harmonic      Three-body cnst  1.2614000    eV*rad^-2 0.000  1.900
O1    shel                  Three-body angl  109.47000    degrees   0.000  1.900
õ(1   shel                  Three-body k4    0.0000000    eV*rad^-4 0.000  3.500
                            Three-body k3    0.0000000    eV*rad^-3 
--------------------------------------------------------------------------------
Si    core    Harmonic      Three-body cnst  1.2614000    eV*rad^-2 0.000  1.900
õ(1   shel                  Three-body angl  109.47000    degrees   0.000  1.900
õ(1   shel                  Three-body k4    0.0000000    eV*rad^-4 0.000  3.500
                            Three-body k3    0.0000000    eV*rad^-3 
--------------------------------------------------------------------------------
Si    core    Harmonic      Three-body cnst  1.2614000    eV*rad^-2 0.000  1.900
O1    shel                  Three-body angl  109.47000    degrees   0.000  1.900
O2    shel                  Three-body k4    0.0000000    eV*rad^-4 0.000  3.500
                            Three-body k3    0.0000000    eV*rad^-3 
--------------------------------------------------------------------------------
Si    core    Harmonic      Three-body cnst  1.2614000    eV*rad^-2 0.000  1.900
O1    shel                  Three-body angl  109.47000    degrees   0.000  1.900
õ(2   shel                  Three-body k4    0.0000000    eV*rad^-4 0.000  3.500
                            Three-body k3    0.0000000    eV*rad^-3 
--------------------------------------------------------------------------------
Si    core    Harmonic      Three-body cnst  1.2614000    eV*rad^-2 0.000  1.900
O2    shel                  Three-body angl  109.47000    degrees   0.000  1.900
õ(1   shel                  Three-body k4    0.0000000    eV*rad^-4 0.000  3.500
                            Three-body k3    0.0000000    eV*rad^-3 
--------------------------------------------------------------------------------
Si    core    Harmonic      Three-body cnst  1.2614000    eV*rad^-2 0.000  1.900
õ(1   shel                  Three-body angl  109.47000    degrees   0.000  1.900
õ(2   shel                  Three-body k4    0.0000000    eV*rad^-4 0.000  3.500
                            Three-body k3    0.0000000    eV*rad^-3 
--------------------------------------------------------------------------------
Si    core    Harmonic      Three-body cnst  1.2614000    eV*rad^-2 0.000  1.900
O2    shel                  Three-body angl  109.47000    degrees   0.000  1.900
O2    shel                  Three-body k4    0.0000000    eV*rad^-4 0.000  3.500
                            Three-body k3    0.0000000    eV*rad^-3 
--------------------------------------------------------------------------------
Si    core    Harmonic      Three-body cnst  1.2614000    eV*rad^-2 0.000  1.900
O2    shel                  Three-body angl  109.47000    degrees   0.000  1.900
õ(2   shel                  Three-body k4    0.0000000    eV*rad^-4 0.000  3.500
                            Three-body k3    0.0000000    eV*rad^-3 
--------------------------------------------------------------------------------
Si    core    Harmonic      Three-body cnst  1.2614000    eV*rad^-2 0.000  1.900
õ(2   shel                  Three-body angl  109.47000    degrees   0.000  1.900
õ(2   shel                  Three-body k4    0.0000000    eV*rad^-4 0.000  3.500
                            Three-body k3    0.0000000    eV*rad^-3 
--------------------------------------------------------------------------------

********************************************************************************
*  Output for configuration   1 : c00832.vasp                                  *
********************************************************************************


  Components of energy : 

--------------------------------------------------------------------------------
  Interatomic potentials     =         896.63474295 eV    
  Three-body potentials      =           0.00000000 eV    
  Monopole - monopole (real) =       -2676.00317478 eV    
  Monopole - monopole (recip)=       -1115.35404472 eV    
  Monopole - monopole (total)=       -3791.35721950 eV    
--------------------------------------------------------------------------------
  Total lattice energy       =       -2894.72247656 eV    
--------------------------------------------------------------------------------
  Total lattice energy       =         -279296.4691 kJ/(mole unit cells)
--------------------------------------------------------------------------------


  Number of variables =      363

  Maximum number of calculations  =          1000
  Maximum Hessian update interval =            10
  Maximum step size               =   0.100000000
  Maximum parameter tolerance     =   0.000010000
  Maximum function  tolerance     =   0.000010000
  Maximum gradient  tolerance     =   0.001000000
  Maximum gradient  component     =   0.010000000

  Symmetry not applied to optimisation

  Cell parameters to be optimised using strains

  Newton-Raphson optimiser to be used

  BFGS hessian update to be used

  Lower half triangular hessian to be used

  Minimiser to switch to RFO
  When gradient norm is less than     0.050000

  Dumpfile to be written after every cycle

  Start of bulk optimisation :

  Cycle:      0 Energy:     -2894.722477  Gnorm:      5.838189  CPU:    0.098
  ** Hessian calculated **
  Cycle:      1 Energy:     -2938.250605  Gnorm:      1.394440  CPU:    0.217
  ** Hessian calculated **
  Cycle:      2 Energy:     -2943.070996  Gnorm:      0.675291  CPU:    0.382
  Cycle:      3 Energy:     -2944.049675  Gnorm:      0.374144  CPU:    0.464
  Cycle:      4 Energy:     -2944.584479  Gnorm:      0.311197  CPU:    0.562
  Cycle:      5 Energy:     -2945.247183  Gnorm:      0.251050  CPU:    0.660
  Cycle:      6 Energy:     -2945.897684  Gnorm:      0.224730  CPU:    0.757
  Cycle:      7 Energy:     -2946.153768  Gnorm:      0.141605  CPU:    0.839
  Cycle:      8 Energy:     -2946.256757  Gnorm:      0.114124  CPU:    0.922
  Cycle:      9 Energy:     -2946.325786  Gnorm:      0.100494  CPU:    1.019
  Cycle:     10 Energy:     -2946.387729  Gnorm:      0.098190  CPU:    1.117
  Cycle:     11 Energy:     -2946.456773  Gnorm:      0.108330  CPU:    1.214
  ** Hessian calculated **
  Cycle:     12 Energy:     -2946.477416  Gnorm:      0.086869  CPU:    1.378
  Cycle:     13 Energy:     -2946.510245  Gnorm:      0.078069  CPU:    1.473
  Cycle:     14 Energy:     -2946.556272  Gnorm:      0.071661  CPU:    1.570
  Cycle:     15 Energy:     -2946.601459  Gnorm:      0.067675  CPU:    1.668
  Cycle:     16 Energy:     -2946.625522  Gnorm:      0.066243  CPU:    1.751
  Cycle:     17 Energy:     -2946.642723  Gnorm:      0.055769  CPU:    1.832
  Cycle:     18 Energy:     -2946.661881  Gnorm:      0.057498  CPU:    1.928
  Cycle:     19 Energy:     -2946.686285  Gnorm:      0.060249  CPU:    2.025
  Cycle:     20 Energy:     -2946.714607  Gnorm:      0.068182  CPU:    2.121
  Cycle:     21 Energy:     -2946.737891  Gnorm:      0.059305  CPU:    2.204
  ** Hessian calculated **
  Cycle:     22 Energy:     -2946.755633  Gnorm:      0.057853  CPU:    2.380
  Cycle:     23 Energy:     -2946.779055  Gnorm:      0.055669  CPU:    2.493
  Cycle:     24 Energy:     -2946.794769  Gnorm:      0.053794  CPU:    2.603
  ** Hessian calculated **
  Cycle:     25 Energy:     -2946.835378  Gnorm:      0.049466  CPU:    2.781
  ** Hessian has wrong structure
  ** Imaginary eigenvectors =   6
  Cycle:     26 Energy:     -2946.888623  Gnorm:      0.075532  CPU:    3.037
  ** Hessian has wrong structure
  ** Imaginary eigenvectors =   5
  ** Hessian has wrong structure
  ** Imaginary eigenvectors =   4
  Cycle:     27 Energy:     -2946.927015  Gnorm:      0.090588  CPU:    3.481
  ** Hessian has wrong structure
  ** Imaginary eigenvectors =   3
  ** Hessian has wrong structure
  ** Imaginary eigenvectors =   2
  Cycle:     28 Energy:     -2947.040643  Gnorm:      0.114078  CPU:    3.817
  ** Hessian has wrong structure
  ** Imaginary eigenvectors =   1
  ** Hessian has wrong structure
  ** Imaginary eigenvectors =   1
  Cycle:     29 Energy:     -2947.297234  Gnorm:      0.107731  CPU:    4.186
  ** Hessian has wrong structure
  ** Imaginary eigenvectors =   1
  Cycle:     30 Energy:     -2947.549874  Gnorm:      0.101617  CPU:    4.412
  ** Hessian has wrong structure
  ** Imaginary eigenvectors =   1
  ** Hessian has required structure
  Cycle:     31 Energy:     -2947.701582  Gnorm:      0.058885  CPU:    4.856
  ** Hessian has required structure
  Cycle:     32 Energy:     -2947.754101  Gnorm:      0.036573  CPU:    5.027
  ** Hessian has required structure
  Cycle:     33 Energy:     -2947.777773  Gnorm:      0.016782  CPU:    5.197
  ** Hessian has required structure
  Cycle:     34 Energy:     -2947.785586  Gnorm:      0.019179  CPU:    5.351
  ** Hessian has required structure
  Cycle:     35 Energy:     -2947.791110  Gnorm:      0.009161  CPU:    5.507
  ** Hessian has required structure
  Cycle:     36 Energy:     -2947.793356  Gnorm:      0.006317  CPU:    5.676
  ** Hessian has required structure
  Cycle:     37 Energy:     -2947.794839  Gnorm:      0.004408  CPU:    5.848
  ** Hessian has required structure
  Cycle:     38 Energy:     -2947.796157  Gnorm:      0.005699  CPU:    6.019
  ** Hessian has required structure
  Cycle:     39 Energy:     -2947.797474  Gnorm:      0.010154  CPU:    6.187
  ** Hessian has required structure
  Cycle:     40 Energy:     -2947.798874  Gnorm:      0.014092  CPU:    6.358
  ** Hessian has required structure
  Cycle:     41 Energy:     -2947.804410  Gnorm:      0.018413  CPU:    6.615
  ** Hessian has required structure
  Cycle:     42 Energy:     -2947.809459  Gnorm:      0.030104  CPU:    6.769
  ** Hessian has required structure
  Cycle:     43 Energy:     -2947.816755  Gnorm:      0.022464  CPU:    6.938
  ** Hessian has required structure
  Cycle:     44 Energy:     -2947.822814  Gnorm:      0.019271  CPU:    7.108
  ** Hessian has required structure
  Cycle:     45 Energy:     -2947.831598  Gnorm:      0.013392  CPU:    7.279
  ** Hessian has required structure
  Cycle:     46 Energy:     -2947.836922  Gnorm:      0.012760  CPU:    7.431
  ** Hessian has required structure
  Cycle:     47 Energy:     -2947.839539  Gnorm:      0.004587  CPU:    7.584
  ** Hessian has required structure
  Cycle:     48 Energy:     -2947.841027  Gnorm:      0.004777  CPU:    7.739
  ** Hessian has required structure
  Cycle:     49 Energy:     -2947.841524  Gnorm:      0.002964  CPU:    7.876
  ** Hessian has required structure
  Cycle:     50 Energy:     -2947.841637  Gnorm:      0.002152  CPU:    8.044
  ** Hessian has required structure
  Cycle:     51 Energy:     -2947.841732  Gnorm:      0.001087  CPU:    8.300
  ** Hessian has required structure
  Cycle:     52 Energy:     -2947.841757  Gnorm:      0.000552  CPU:    8.469
  ** Hessian has required structure
  Cycle:     53 Energy:     -2947.841764  Gnorm:      0.000279  CPU:    8.638
  ** Hessian has required structure
  Cycle:     54 Energy:     -2947.841765  Gnorm:      0.000195  CPU:    8.773
  ** Hessian has required structure
  Cycle:     55 Energy:     -2947.841766  Gnorm:      0.000137  CPU:    8.905
  ** Hessian has required structure
  Cycle:     56 Energy:     -2947.841766  Gnorm:      0.000096  CPU:    9.039
  ** Hessian has required structure
  Cycle:     57 Energy:     -2947.841766  Gnorm:      0.000086  CPU:    9.175
  ** Hessian has required structure
  Cycle:     58 Energy:     -2947.841766  Gnorm:      0.000084  CPU:    9.313
  ** Hessian has required structure
  Cycle:     59 Energy:     -2947.841766  Gnorm:      0.000083  CPU:    9.446
  ** Hessian has required structure
  Cycle:     60 Energy:     -2947.841766  Gnorm:      0.000082  CPU:    9.579
  ** Hessian has required structure
  Cycle:     61 Energy:     -2947.841766  Gnorm:      0.000082  CPU:    9.919
  ** Hessian calculated **


  **** Optimisation achieved ****


  Final energy =   -2947.84176622 eV      
  Final Gnorm  =       0.00008210

  Components of energy : 

--------------------------------------------------------------------------------
  Interatomic potentials     =         779.85689073 eV    
  Three-body potentials      =           0.00000000 eV    
  Monopole - monopole (real) =       -1554.38946804 eV    
  Monopole - monopole (recip)=       -2173.30918891 eV    
  Monopole - monopole (total)=       -3727.69865695 eV    
--------------------------------------------------------------------------------
  Total lattice energy       =       -2947.84176622 eV    
--------------------------------------------------------------------------------
  Total lattice energy       =         -284421.6686 kJ/(mole unit cells)
--------------------------------------------------------------------------------

  Final fractional coordinates of atoms :

--------------------------------------------------------------------------------
   No.  Atomic        x           y          z          Radius
        Label       (Frac)      (Frac)     (Frac)       (Angs) 
--------------------------------------------------------------------------------
     1  Ge    c     0.052090    0.000000    0.372270    0.000000
     2  Ge    c     0.451180    0.952346    0.389718    0.000000
     3  Ge    c     0.942165    0.945116    0.614400    0.000000
     4  Ge    c     0.554419    0.000734    0.131365    0.000000
     5  Ge    c     0.954156    0.950161    0.107506    0.000000
     6  Ge    c     0.452241    0.948718    0.869582    0.000000
     7  Ge    c     0.059581    0.998216    0.854008    0.000000
     8  Ge    c     0.149458    0.313400    0.302231    0.000000
     9  Ge    c     0.355546    0.637145    0.310970    0.000000
    10  Ge    c     0.828370    0.244300    0.734243    0.000000
    11  Ge    c     0.668871    0.694051    0.737189    0.000000
    12  Ge    c     0.175709    0.716924    0.300696    0.000000
    13  Ge    c     0.329351    0.233521    0.305814    0.000000
    14  Ge    c     0.659075    0.304769    0.062048    0.000000
    15  Ge    c     0.853226    0.637182    0.046942    0.000000
    16  Ge    c     0.330900    0.231211    0.984287    0.000000
    17  Ge    c     0.179319    0.715834    0.979161    0.000000
    18  Ge    c     0.359914    0.635131    0.989222    0.000000
    19  Ge    c     0.150294    0.312465    0.980293    0.000000
    20  Ge    c     0.673580    0.707676    0.056632    0.000000
    21  Si    c     0.560275    0.992399    0.628355    0.000000
    22  Si    c     0.848827    0.638280    0.732849    0.000000
    23  Si    c     0.650476    0.300568    0.745342    0.000000
    24  Si    c     0.834371    0.238101    0.047760    0.000000
    25  O1    c     0.086713    0.201086    0.395738    0.000000
    26  O1    c     0.417605    0.750612    0.408206    0.000000
    27  O1    c     0.873584    0.099227    0.637323    0.000000
    28  O3    c     0.624024    0.845197    0.639489    0.000000
    29  O3    c     0.905905    0.746856    0.645701    0.000000
    30  O2    c     0.590396    0.177042    0.673620    0.000000
    31  O1    c     0.124470    0.853592    0.398375    0.000000
    32  O1    c     0.378191    0.097089    0.409162    0.000000
    33  O1    c     0.970175    0.954167    0.451152    0.000000
    34  O3    c     0.532830    0.999817    0.476180    0.000000
    35  O1    c     0.030444    0.988536    0.203848    0.000000
    36  O1    c     0.477305    0.970265    0.224946    0.000000
    37  O1    c     0.026588    0.985715    0.693184    0.000000
    38  O3    c     0.484379    0.948031    0.707286    0.000000
    39  O1    c     0.598219    0.193397    0.155638    0.000000
    40  O1    c     0.916654    0.751645    0.136431    0.000000
    41  O1    c     0.375299    0.083642    0.885594    0.000000
    42  O1    c     0.135753    0.862978    0.878235    0.000000
    43  O1    c     0.426674    0.743097    0.903557    0.000000
    44  O1    c     0.085520    0.204116    0.887251    0.000000
    45  O1    c     0.622554    0.843503    0.153681    0.000000
    46  O3    c     0.884446    0.107224    0.132628    0.000000
    47  O1    c     0.525899    0.009114    0.967664    0.000000
    48  O1    c     0.982486    0.943748    0.945275    0.000000
    49  O1    c     0.162789    0.513688    0.361847    0.000000
    50  O1    c     0.341645    0.436801    0.368592    0.000000
    51  O3    c     0.843976    0.447683    0.675308    0.000000
    52  O3    c     0.650666    0.488388    0.681012    0.000000
    53  O1    c     0.234007    0.197815    0.301637    0.000000
    54  O1    c     0.271202    0.752863    0.304951    0.000000
    55  O3    c     0.732282    0.209742    0.731906    0.000000
    56  O3    c     0.765430    0.725693    0.731692    0.000000
    57  O1    c     0.118773    0.331463    0.140333    0.000000
    58  O1    c     0.388958    0.618647    0.151902    0.000000
    59  O3    c     0.861551    0.224684    0.895201    0.000000
    60  O1    c     0.638588    0.721962    0.895988    0.000000
    61  O3    c     0.880306    0.628391    0.882136    0.000000
    62  O3    c     0.629311    0.326925    0.897855    0.000000
    63  O1    c     0.145059    0.730675    0.138023    0.000000
    64  O1    c     0.362807    0.217403    0.145953    0.000000
    65  O1    c     0.665111    0.506108    0.121647    0.000000
    66  O3    c     0.845202    0.430612    0.101838    0.000000
    67  O1    c     0.347923    0.434021    0.927126    0.000000
    68  O1    c     0.163266    0.513336    0.919266    0.000000
    69  O3    c     0.745929    0.196992    0.056945    0.000000
    70  O1    c     0.768420    0.746759    0.053814    0.000000
    71  O1    c     0.235068    0.200036    0.981442    0.000000
    72  O1    c     0.275121    0.747387    0.983612    0.000000
    73  O1    s     0.088745    0.194557    0.387224    0.000000
    74  O1    s     0.415630    0.757477    0.399814    0.000000
    75  O1    s     0.875202    0.099159    0.643514    0.000000
    76  O3    s     0.621409    0.847304    0.646412    0.000000
    77  O3    s     0.903224    0.752242    0.651743    0.000000
    78  O2    s     0.593554    0.170744    0.676416    0.000000
    79  O1    s     0.123057    0.853921    0.389032    0.000000
    80  O1    s     0.379992    0.096494    0.399941    0.000000
    81  O1    s     0.974465    0.957028    0.456842    0.000000
    82  O3    s     0.528969    0.995341    0.483840    0.000000
    83  O1    s     0.025807    0.986279    0.207667    0.000000
    84  O1    s     0.481718    0.971415    0.228936    0.000000
    85  O1    s     0.022822    0.983662    0.699019    0.000000
    86  O3    s     0.489016    0.952268    0.712092    0.000000
    87  O1    s     0.599856    0.188303    0.146497    0.000000
    88  O1    s     0.914420    0.756828    0.127494    0.000000
    89  O1    s     0.377719    0.084776    0.891969    0.000000
    90  O1    s     0.133307    0.861923    0.884177    0.000000
    91  O1    s     0.423423    0.750037    0.907649    0.000000
    92  O1    s     0.088538    0.197088    0.891871    0.000000
    93  O1    s     0.621538    0.844411    0.144384    0.000000
    94  O3    s     0.884642    0.108635    0.122155    0.000000
    95  O1    s     0.522272    0.003784    0.971973    0.000000
    96  O1    s     0.986134    0.948320    0.950405    0.000000
    97  O1    s     0.162679    0.512590    0.352841    0.000000
    98  O1    s     0.341848    0.437959    0.359611    0.000000
    99  O3    s     0.843230    0.450076    0.685411    0.000000
   100  O3    s     0.651994    0.486242    0.691247    0.000000
   101  O1    s     0.235172    0.208596    0.301973    0.000000
   102  O1    s     0.270104    0.742035    0.305044    0.000000
   103  O3    s     0.732138    0.221321    0.733405    0.000000
   104  O3    s     0.765665    0.714941    0.732236    0.000000
   105  O1    s     0.123352    0.328738    0.140360    0.000000
   106  O1    s     0.384364    0.621223    0.151635    0.000000
   107  O3    s     0.856468    0.227405    0.896534    0.000000
   108  O1    s     0.643367    0.718858    0.895261    0.000000
   109  O3    s     0.875147    0.630025    0.880406    0.000000
   110  O3    s     0.633676    0.322681    0.895365    0.000000
   111  O1    s     0.149758    0.728614    0.138117    0.000000
   112  O1    s     0.358097    0.219551    0.145726    0.000000
   113  O1    s     0.665263    0.504823    0.112127    0.000000
   114  O3    s     0.844842    0.429447    0.092457    0.000000
   115  O1    s     0.347597    0.434490    0.935918    0.000000
   116  O1    s     0.163452    0.512927    0.928156    0.000000
   117  O3    s     0.747805    0.209139    0.056420    0.000000
   118  O1    s     0.767514    0.735553    0.053502    0.000000
   119  O1    s     0.236057    0.210547    0.981584    0.000000
   120  O1    s     0.274135    0.736869    0.983697    0.000000
--------------------------------------------------------------------------------

  Final Cartesian lattice vectors (Angstroms) :

       17.652070    0.161018   -0.077500
        0.071985    7.846273   -0.010404
       -0.048340   -0.010628   10.086157


  Final cell parameters and derivatives :

--------------------------------------------------------------------------------
       a           17.652975 Angstrom     dE/de1(xx)     0.002614 eV/strain
       b            7.846610 Angstrom     dE/de2(yy)     0.003980 eV/strain
       c           10.086278 Angstrom     dE/de3(zz)     0.001940 eV/strain
       alpha       90.138857 Degrees      dE/de4(yz)    -0.000120 eV/strain
       beta        90.526677 Degrees      dE/de5(xz)    -0.000771 eV/strain
       gamma       88.951414 Degrees      dE/de6(xy)    -0.001353 eV/strain
--------------------------------------------------------------------------------

  Primitive cell volume =          1396.814527 Angs**3

  Density of cell =      2.773001 g/cm**3

  Non-primitive cell volume =          1396.814527 Angs**3


  Final internal derivatives :

--------------------------------------------------------------------------------
   No.  Atomic          a             b             c           Radius
        Label          (eV)          (eV)          (eV)        (eV/Angs)
--------------------------------------------------------------------------------
      1 Ge    c       0.000000      0.000000      0.000000      0.000000
      2 Ge    c      -0.000064     -0.000213      0.000613      0.000000
      3 Ge    c      -0.003868     -0.001737      0.001035      0.000000
      4 Ge    c      -0.001628      0.002442     -0.003991      0.000000
      5 Ge    c       0.001571      0.000255     -0.001004      0.000000
      6 Ge    c       0.000023     -0.000347     -0.000055      0.000000
      7 Ge    c      -0.000019      0.000072     -0.000070      0.000000
      8 Ge    c      -0.000165     -0.000268     -0.000091      0.000000
      9 Ge    c      -0.000100      0.000209      0.000162      0.000000
     10 Ge    c      -0.000685     -0.001368     -0.000189      0.000000
     11 Ge    c      -0.001243      0.000830     -0.001131      0.000000
     12 Ge    c       0.000359     -0.000007      0.000070      0.000000
     13 Ge    c      -0.000186     -0.000153      0.000183      0.000000
     14 Ge    c      -0.001188     -0.000779     -0.000207      0.000000
     15 Ge    c       0.002687      0.001630      0.000066      0.000000
     16 Ge    c      -0.000379      0.000009     -0.000114      0.000000
     17 Ge    c       0.000261      0.000090     -0.000159      0.000000
     18 Ge    c       0.000192      0.000412     -0.000151      0.000000
     19 Ge    c      -0.000208     -0.000184      0.000092      0.000000
     20 Ge    c      -0.000838      0.000744     -0.002483      0.000000
     21 Si    c       0.003311      0.000007     -0.000549      0.000000
     22 Si    c       0.000023      0.000604     -0.001509      0.000000
     23 Si    c       0.000728     -0.000490     -0.001422      0.000000
     24 Si    c       0.003567     -0.001326     -0.001059      0.000000
     25 O1    c      -0.000189     -0.000129     -0.000046      0.000000
     26 O1    c       0.000408      0.000282      0.000074      0.000000
     27 O1    c      -0.000879      0.000552      0.000429      0.000000
     28 O3    c       0.000347      0.001257      0.000878      0.000000
     29 O3    c       0.003500      0.002217      0.000483      0.000000
     30 O2    c      -0.002514     -0.001364     -0.000348      0.000000
     31 O1    c       0.000139     -0.000049      0.000136      0.000000
     32 O1    c      -0.000464      0.000217     -0.000020      0.000000
     33 O1    c      -0.000229      0.000035     -0.000870      0.000000
     34 O3    c       0.001038     -0.000083      0.001192      0.000000
     35 O1    c       0.003463      0.000053      0.001483      0.000000
     36 O1    c      -0.014006      0.000306      0.006049      0.000000
     37 O1    c      -0.000253     -0.000479      0.000195      0.000000
     38 O3    c      -0.002249      0.000131      0.000599      0.000000
     39 O1    c       0.006293      0.004688      0.002515      0.000000
     40 O1    c      -0.002388     -0.003125      0.000020      0.000000
     41 O1    c      -0.000839      0.000113     -0.000033      0.000000
     42 O1    c       0.000622     -0.000230      0.000119      0.000000
     43 O1    c       0.000098      0.000078      0.000172      0.000000
     44 O1    c      -0.000197     -0.000049     -0.000051      0.000000
     45 O1    c       0.006136     -0.008562      0.005363      0.000000
     46 O3    c      -0.002926      0.001510      0.000737      0.000000
     47 O1    c       0.000902     -0.000417     -0.000702      0.000000
     48 O1    c      -0.000002      0.000354      0.000215      0.000000
     49 O1    c       0.000040      0.000606      0.000261      0.000000
     50 O1    c       0.000046     -0.000179      0.000261      0.000000
     51 O3    c       0.000220      0.002575     -0.000100      0.000000
     52 O3    c      -0.000196     -0.000578     -0.000078      0.000000
     53 O1    c       0.000568     -0.000061     -0.000014      0.000000
     54 O1    c      -0.000695      0.000102     -0.000015      0.000000
     55 O3    c      -0.000815      0.000531      0.000272      0.000000
     56 O3    c       0.004747     -0.000625      0.000141      0.000000
     57 O1    c       0.000213      0.000007     -0.000006      0.000000
     58 O1    c      -0.000279      0.000098     -0.000100      0.000000
     59 O3    c       0.000191      0.000109      0.000472      0.000000
     60 O1    c      -0.001304      0.000628      0.000876      0.000000
     61 O3    c       0.000682      0.000029      0.000465      0.000000
     62 O3    c      -0.000597     -0.000436      0.000721      0.000000
     63 O1    c      -0.000075      0.000050      0.000132      0.000000
     64 O1    c       0.000201     -0.000083     -0.000019      0.000000
     65 O1    c      -0.003323     -0.002740      0.002804      0.000000
     66 O3    c       0.002688      0.000135      0.001327      0.000000
     67 O1    c      -0.000122     -0.000580     -0.000290      0.000000
     68 O1    c      -0.000136      0.000262     -0.000251      0.000000
     69 O3    c      -0.002300     -0.001546     -0.000084      0.000000
     70 O1    c       0.002662      0.002880      0.000196      0.000000
     71 O1    c       0.000535     -0.000105      0.000024      0.000000
     72 O1    c      -0.000496      0.000046      0.000009      0.000000
     73 O1    s      -0.000036     -0.000001     -0.000110      0.000000
     74 O1    s      -0.000233     -0.000190     -0.000307      0.000000
     75 O1    s       0.001832     -0.000913     -0.000034      0.000000
     76 O3    s      -0.000127      0.000291     -0.000362      0.000000
     77 O3    s      -0.003010     -0.000915      0.000320      0.000000
     78 O2    s       0.000760     -0.000078      0.000029      0.000000
     79 O1    s      -0.000003      0.000061     -0.000164      0.000000
     80 O1    s      -0.000078     -0.000124     -0.000111      0.000000
     81 O1    s      -0.000098     -0.000092      0.001118      0.000000
     82 O3    s       0.000383      0.000024      0.000027      0.000000
     83 O1    s      -0.000266      0.000169     -0.000549      0.000000
     84 O1    s       0.001731     -0.000200     -0.002595      0.000000
     85 O1    s      -0.001149      0.000339     -0.000382      0.000000
     86 O3    s       0.002334     -0.000255     -0.000411      0.000000
     87 O1    s      -0.001066      0.000234     -0.000497      0.000000
     88 O1    s       0.001578      0.001314      0.000052      0.000000
     89 O1    s       0.000263      0.000008      0.000218      0.000000
     90 O1    s      -0.000181      0.000093      0.000044      0.000000
     91 O1    s      -0.000249     -0.000125     -0.000003      0.000000
     92 O1    s       0.000051      0.000027      0.000009      0.000000
     93 O1    s      -0.000837      0.002708     -0.000938      0.000000
     94 O3    s      -0.000196     -0.001135     -0.000010      0.000000
     95 O1    s      -0.003479      0.001254     -0.002038      0.000000
     96 O1    s       0.000221     -0.000325     -0.000898      0.000000
     97 O1    s       0.000034     -0.000228     -0.000207      0.000000
     98 O1    s       0.000040      0.000037     -0.000292      0.000000
     99 O3    s      -0.000233     -0.000533     -0.000241      0.000000
    100 O3    s      -0.000116      0.000236      0.000178      0.000000
    101 O1    s      -0.000159      0.000020      0.000030      0.000000
    102 O1    s       0.000176     -0.000095      0.000049      0.000000
    103 O3    s       0.000059     -0.000186     -0.000212      0.000000
    104 O3    s      -0.000498      0.000287     -0.000231      0.000000
    105 O1    s      -0.000240      0.000002      0.000051      0.000000
    106 O1    s       0.000626     -0.000164      0.000099      0.000000
    107 O3    s      -0.000047     -0.000313     -0.000537      0.000000
    108 O1    s       0.000944     -0.001118     -0.001116      0.000000
    109 O3    s      -0.001317      0.000079     -0.000944      0.000000
    110 O3    s       0.000274      0.000887      0.000041      0.000000
    111 O1    s       0.000062     -0.000069     -0.000060      0.000000
    112 O1    s      -0.000200      0.000118     -0.000053      0.000000
    113 O1    s       0.004942      0.000666     -0.002642      0.000000
    114 O3    s      -0.003270      0.000235     -0.000245      0.000000
    115 O1    s       0.000155      0.000216      0.000283      0.000000
    116 O1    s       0.000187     -0.000061      0.000202      0.000000
    117 O3    s      -0.000889      0.001522      0.000463      0.000000
    118 O1    s       0.000274     -0.002796     -0.000307      0.000000
    119 O1    s      -0.000026      0.000070     -0.000030      0.000000
    120 O1    s       0.000108     -0.000006     -0.000039      0.000000
--------------------------------------------------------------------------------
  Maximum abs         0.014006      0.008562      0.006049      0.000000
--------------------------------------------------------------------------------


  Born effective charge tensors : 

-------------------------------------------------------------------------------
  Atom             x           y             z
-------------------------------------------------------------------------------
    1 Ge    x       4.2184      0.2380      0.1270
            y      -0.0749      3.9126     -0.0311
            z      -0.7971     -0.1866      4.1760
-------------------------------------------------------------------------------
    2 Ge    x       4.0892      0.2203     -0.1023
            y      -0.1215      3.9047     -0.0189
            z       0.7744      0.1476      4.1778
-------------------------------------------------------------------------------
    3 Ge    x       4.2375      0.1794     -0.4847
            y      -0.1305      3.9318     -0.0635
            z      -0.2891     -0.0080      4.3759
-------------------------------------------------------------------------------
    4 Ge    x       4.2883      0.1532      0.0164
            y      -0.0476      3.9317     -0.0186
            z      -0.7111     -0.1692      3.7990
-------------------------------------------------------------------------------
    5 Ge    x       4.2350      0.1886     -0.0424
            y      -0.0412      3.9676     -0.0029
            z       0.6890      0.1458      3.7086
-------------------------------------------------------------------------------
    6 Ge    x       4.2934      0.2120     -0.3959
            y      -0.1618      3.9346     -0.0925
            z      -0.2970      0.0149      3.8417
-------------------------------------------------------------------------------
    7 Ge    x       4.3479      0.2338      0.3963
            y      -0.1617      3.9248      0.0867
            z       0.3317      0.0500      3.9461
-------------------------------------------------------------------------------
    8 Ge    x       3.9548      0.0997     -0.2206
            y       0.4511      4.2114     -0.1038
            z      -0.0444     -0.1923      3.5951
-------------------------------------------------------------------------------
    9 Ge    x       3.9394      0.0933      0.2380
            y       0.4531      4.2228      0.1212
            z       0.0714      0.2073      3.6216
-------------------------------------------------------------------------------
   10 Ge    x       3.8279     -0.2708     -0.3038
            y      -0.2977      4.1434      0.1551
            z      -0.0422      0.2452      3.5096
-------------------------------------------------------------------------------
   11 Ge    x       3.8012     -0.2786      0.2092
            y      -0.2873      4.1844     -0.0931
            z      -0.0474     -0.1806      3.4963
-------------------------------------------------------------------------------
   12 Ge    x       4.0813     -0.2496     -0.2894
            y      -0.2946      4.1475      0.0588
            z      -0.0124      0.1345      3.5976
-------------------------------------------------------------------------------
   13 Ge    x       4.0614     -0.2495      0.3260
            y      -0.2897      4.1491     -0.0728
            z       0.0406     -0.1451      3.6296
-------------------------------------------------------------------------------
   14 Ge    x       3.8844      0.1251     -0.3845
            y       0.4711      4.1243     -0.0919
            z      -0.1720     -0.1918      3.4720
-------------------------------------------------------------------------------
   15 Ge    x       3.9275      0.1141      0.3283
            y       0.4323      4.1610      0.1470
            z       0.1140      0.2384      3.3564
-------------------------------------------------------------------------------
   16 Ge    x       4.0838     -0.2383     -0.3487
            y      -0.2204      4.1952      0.0952
            z      -0.0352      0.1923      3.5786
-------------------------------------------------------------------------------
   17 Ge    x       4.0769     -0.2230      0.3367
            y      -0.2182      4.1956     -0.0952
            z       0.0219     -0.1878      3.5644
-------------------------------------------------------------------------------
   18 Ge    x       4.0725      0.0846     -0.2877
            y       0.4500      4.1928     -0.0790
            z      -0.1383     -0.1982      3.5468
-------------------------------------------------------------------------------
   19 Ge    x       4.0575      0.0649      0.2827
            y       0.4342      4.1847      0.0999
            z       0.1105      0.1944      3.5356
-------------------------------------------------------------------------------
   20 Ge    x       4.0163     -0.2600     -0.3266
            y      -0.3522      4.1646      0.0691
            z      -0.0907      0.1544      3.5178
-------------------------------------------------------------------------------
   21 Si    x       3.7961      0.0305      0.4287
            y      -0.2483      3.5011      0.0859
            z       0.2100     -0.1272      4.0543
-------------------------------------------------------------------------------
   22 Si    x       3.6999      0.1149     -0.2093
            y       0.4080      3.9213     -0.1337
            z      -0.0741     -0.2249      3.3389
-------------------------------------------------------------------------------
   23 Si    x       3.4668     -0.0157      0.0630
            y       0.2803      3.8634     -0.0266
            z      -0.0086      0.1564      3.2155
-------------------------------------------------------------------------------
   24 Si    x       3.7442     -0.2430      0.2905
            y      -0.3057      3.8934     -0.0913
            z       0.0388     -0.1583      3.1943
-------------------------------------------------------------------------------
   25 O1    x      -1.9749     -0.8749      0.3414
            y      -0.8274     -2.5030      0.2917
            z       0.4142      0.3196     -1.6040
-------------------------------------------------------------------------------
   26 O1    x      -1.9487     -0.8777     -0.3778
            y      -0.8228     -2.5211     -0.3291
            z      -0.4599     -0.3785     -1.6280
-------------------------------------------------------------------------------
   27 O1    x      -2.1138      0.9381      0.5437
            y       0.9894     -2.4735     -0.5827
            z       0.4972     -0.5963     -1.6976
-------------------------------------------------------------------------------
   28 O3    x      -1.9890      0.9176     -0.4269
            y       0.9363     -2.3878      0.4317
            z      -0.3765      0.4694     -1.4991
-------------------------------------------------------------------------------
   29 O3    x      -1.8893     -0.8468      0.5508
            y      -0.8225     -2.3558      0.5744
            z       0.5080      0.5734     -1.6119
-------------------------------------------------------------------------------
   30 O2    x      -1.5778     -0.6340     -0.3558
            y      -0.5782     -2.0333     -0.4036
            z      -0.3025     -0.3899     -1.3555
-------------------------------------------------------------------------------
   31 O1    x      -2.2227      0.9051      0.3028
            y       0.9649     -2.2595     -0.3286
            z       0.3841     -0.3382     -1.6193
-------------------------------------------------------------------------------
   32 O1    x      -2.2079      0.8958     -0.3492
            y       0.9562     -2.2506      0.3798
            z      -0.4326      0.3892     -1.6543
-------------------------------------------------------------------------------
   33 O1    x      -2.1715     -0.2527      0.8808
            y      -0.1270     -1.2893      0.1442
            z       1.1411      0.2536     -3.0033
-------------------------------------------------------------------------------
   34 O3    x      -1.9232     -0.1798     -0.8411
            y      -0.0586     -1.2050     -0.0638
            z      -1.0732     -0.1380     -2.9383
-------------------------------------------------------------------------------
   35 O1    x      -2.1579     -0.1906     -0.8310
            y      -0.0723     -1.3423     -0.1203
            z      -0.8059     -0.1695     -2.6428
-------------------------------------------------------------------------------
   36 O1    x      -2.1598     -0.1840      0.8174
            y      -0.0789     -1.3195      0.1354
            z       0.8371      0.1757     -2.6836
-------------------------------------------------------------------------------
   37 O1    x      -2.2258     -0.2391     -0.7599
            y      -0.1243     -1.2986     -0.1350
            z      -0.7988     -0.1697     -2.6592
-------------------------------------------------------------------------------
   38 O3    x      -2.1274     -0.2432      0.7589
            y      -0.1437     -1.2586      0.1270
            z       0.7510      0.1419     -2.4285
-------------------------------------------------------------------------------
   39 O1    x      -2.0910     -0.9022      0.3763
            y      -0.9093     -2.4460      0.3056
            z       0.4326      0.3411     -1.5464
-------------------------------------------------------------------------------
   40 O1    x      -2.0470     -0.9027     -0.3403
            y      -0.8774     -2.5724     -0.2572
            z      -0.3986     -0.3062     -1.4888
-------------------------------------------------------------------------------
   41 O1    x      -2.2876      0.9237      0.5563
            y       0.9224     -2.2708     -0.5062
            z       0.4739     -0.5120     -1.6076
-------------------------------------------------------------------------------
   42 O1    x      -2.2447      0.8917     -0.5581
            y       0.9100     -2.2817      0.5436
            z      -0.4751      0.5283     -1.6256
-------------------------------------------------------------------------------
   43 O1    x      -2.0546     -0.8632      0.5701
            y      -0.7656     -2.5385      0.5624
            z       0.4959      0.5483     -1.5746
-------------------------------------------------------------------------------
   44 O1    x      -2.0121     -0.8286     -0.5529
            y      -0.7409     -2.5297     -0.5674
            z      -0.4679     -0.5369     -1.5842
-------------------------------------------------------------------------------
   45 O1    x      -2.1500      0.8933      0.3349
            y       0.9664     -2.3363     -0.3599
            z       0.4078     -0.3745     -1.5492
-------------------------------------------------------------------------------
   46 O3    x      -2.0650      0.8921     -0.3426
            y       0.9228     -2.2158      0.3544
            z      -0.4139      0.3984     -1.4297
-------------------------------------------------------------------------------
   47 O1    x      -2.0965     -0.2129     -0.7053
            y      -0.1338     -1.3718     -0.1401
            z      -0.5068     -0.1149     -2.3713
-------------------------------------------------------------------------------
   48 O1    x      -2.1853     -0.2032      0.7376
            y      -0.1136     -1.3663      0.1123
            z       0.5093      0.0861     -2.2887
-------------------------------------------------------------------------------
   49 O1    x      -1.3670     -0.1937      0.0659
            y      -0.2907     -3.1610     -0.0019
            z       0.0167     -0.0182     -1.3886
-------------------------------------------------------------------------------
   50 O1    x      -1.3594     -0.1926     -0.0702
            y      -0.2902     -3.1664     -0.0120
            z      -0.0213      0.0104     -1.3933
-------------------------------------------------------------------------------
   51 O3    x      -1.2638     -0.1573      0.0731
            y      -0.2253     -3.0202     -0.0755
            z       0.0258     -0.0765     -1.3085
-------------------------------------------------------------------------------
   52 O3    x      -1.2539     -0.1105     -0.0837
            y      -0.2092     -3.0838      0.1586
            z      -0.0398      0.1677     -1.3056
-------------------------------------------------------------------------------
   53 O1    x      -3.0640      0.2695     -0.0226
            y       0.1787     -1.5924      0.0080
            z      -0.0029      0.0412     -1.2236
-------------------------------------------------------------------------------
   54 O1    x      -3.0593      0.2695     -0.0485
            y       0.1744     -1.5935     -0.0024
            z      -0.0723     -0.0326     -1.2266
-------------------------------------------------------------------------------
   55 O3    x      -2.8888      0.2465      0.0493
            y       0.1586     -1.4636     -0.0379
            z       0.0052     -0.0725     -1.1492
-------------------------------------------------------------------------------
   56 O3    x      -2.9177      0.2647      0.0193
            y       0.2292     -1.4826      0.0267
            z       0.0211      0.0546     -1.1479
-------------------------------------------------------------------------------
   57 O1    x      -1.4801     -0.0170     -0.0165
            y      -0.0843     -1.4274     -0.0028
            z      -0.0116      0.0074     -2.7503
-------------------------------------------------------------------------------
   58 O1    x      -1.4716     -0.0182      0.0735
            y      -0.0866     -1.4280     -0.0024
            z       0.0644     -0.0177     -2.7746
-------------------------------------------------------------------------------
   59 O3    x      -1.3942      0.1084     -0.0142
            y       0.1225     -1.3631      0.0344
            z      -0.0075      0.0239     -2.5472
-------------------------------------------------------------------------------
   60 O1    x      -1.4879      0.1317      0.0026
            y       0.1524     -1.4530     -0.0630
            z       0.0133     -0.0580     -2.7080
-------------------------------------------------------------------------------
   61 O3    x      -1.3636     -0.0439     -0.1624
            y      -0.1034     -1.3680      0.0463
            z      -0.1312      0.0265     -2.5707
-------------------------------------------------------------------------------
   62 O3    x      -1.3406     -0.0204      0.0163
            y      -0.0931     -1.3703     -0.0700
            z       0.0125     -0.0539     -2.6340
-------------------------------------------------------------------------------
   63 O1    x      -1.5135      0.1062      0.0197
            y       0.1177     -1.4248     -0.0134
            z       0.0172     -0.0006     -2.7400
-------------------------------------------------------------------------------
   64 O1    x      -1.5069      0.1073      0.0332
            y       0.1199     -1.4243      0.0139
            z       0.0309     -0.0038     -2.7555
-------------------------------------------------------------------------------
   65 O1    x      -1.3390     -0.0891      0.0946
            y      -0.1517     -3.1634     -0.0002
            z       0.0357     -0.0423     -1.3907
-------------------------------------------------------------------------------
   66 O3    x      -1.2889     -0.1494     -0.0900
            y      -0.2042     -3.0148     -0.0633
            z      -0.0398     -0.0545     -1.2624
-------------------------------------------------------------------------------
   67 O1    x      -1.4054     -0.2145      0.0870
            y      -0.3158     -3.1726     -0.0384
            z       0.0395     -0.0171     -1.3572
-------------------------------------------------------------------------------
   68 O1    x      -1.4034     -0.2150     -0.0806
            y      -0.3173     -3.1651      0.0223
            z      -0.0281      0.0137     -1.3597
-------------------------------------------------------------------------------
   69 O3    x      -2.8798      0.1417      0.0733
            y       0.0426     -1.4426      0.0147
            z       0.0636      0.0484     -1.1435
-------------------------------------------------------------------------------
   70 O1    x      -3.0045      0.2504      0.0652
            y       0.1715     -1.5968     -0.0230
            z       0.0694     -0.0668     -1.1991
-------------------------------------------------------------------------------
   71 O1    x      -3.1141      0.2934     -0.0170
            y       0.2052     -1.5791     -0.0155
            z      -0.0334     -0.0430     -1.2103
-------------------------------------------------------------------------------
   72 O1    x      -3.1109      0.2866     -0.0441
            y       0.2003     -1.5798      0.0242
            z      -0.0102      0.0524     -1.2118
-------------------------------------------------------------------------------




  Elastic Constant Matrix: (Units=GPa)

-------------------------------------------------------------------------------
  Indices      1         2         3         4         5         6    
-------------------------------------------------------------------------------
       1     28.2803   10.7593    8.0790   -0.4163    0.0549    7.8149
       2     10.7593   33.6967    6.2313   -0.7251    0.1877    7.8436
       3      8.0790    6.2313   11.7654   -0.1664   -0.1303    2.2920
       4     -0.4163   -0.7251   -0.1664    8.7171    1.7416   -0.4331
       5      0.0549    0.1877   -0.1303    1.7416   17.3162   -0.7902
       6      7.8149    7.8436    2.2920   -0.4331   -0.7902   20.2793
-------------------------------------------------------------------------------


  Elastic Compliance Matrix: (Units=1/GPa)

-------------------------------------------------------------------------------
  Indices      1         2         3         4         5         6    
-------------------------------------------------------------------------------
       1    0.049810 -0.007736 -0.027552  0.000749 -0.000955 -0.013110
       2   -0.007736  0.036752 -0.012215  0.002192 -0.001136 -0.009850
       3   -0.027552 -0.012215  0.109814 -0.000331  0.001215  0.002971
       4    0.000749  0.002192 -0.000331  0.117331 -0.011786  0.000947
       5   -0.000955 -0.001136  0.001215 -0.011786  0.059084  0.002721
       6   -0.013110 -0.009850  0.002971  0.000947  0.002721  0.057964
-------------------------------------------------------------------------------

  Mechanical properties :

-------------------------------------------------------------------------------
  Convention :                    Reuss         Voigt         Hill
-------------------------------------------------------------------------------
  Bulk  Modulus (GPa)     =       9.86494      13.76460      11.81477
  Shear Modulus (GPa)     =       8.93573      12.50737      10.72155
-------------------------------------------------------------------------------
  Velocity S-wave (km/s)  =       1.79511       2.12377       1.96632
  Velocity P-wave (km/s)  =       2.80250       3.31326       3.06853
-------------------------------------------------------------------------------
  Compressibility (1/GPa) =    0.10136913
-------------------------------------------------------------------------------
  Stress axis :                     x             y             z
-------------------------------------------------------------------------------
  Youngs Moduli (GPa)     =      20.07622      27.20945       9.10629
-------------------------------------------------------------------------------
  Poissons Ratio (x)      =                     0.21050       0.25090
  Poissons Ratio (y)      =       0.15531                     0.11124
  Poissons Ratio (z)      =       0.55314       0.33237
-------------------------------------------------------------------------------


  Piezoelectric Strain Matrix: (Units=C/m**2)

-------------------------------------------------------------------------------
  Indices      1         2         3         4         5         6    
-------------------------------------------------------------------------------
       x     0.01043  -0.34548   0.05776  -0.10673   0.51276   0.06869
       y    -0.27671  -0.29889   0.00404   0.82485   0.43711   0.17463
       z     0.21968  -0.55919  -1.54128   0.10852   0.09702   0.25368
-------------------------------------------------------------------------------


  Piezoelectric Stress Matrix: (Units=10**-11 C/N)

-------------------------------------------------------------------------------
  Indices      1         2         3         4         5         6    
-------------------------------------------------------------------------------
       x     0.01306  -1.49764   1.11386  -1.92691   3.21928   0.87134
       y    -1.36713  -0.93021   1.24961   9.09305   1.71876   1.86768
       z     5.43968  -0.57948 -16.76412   1.12788   0.36956   1.31198
-------------------------------------------------------------------------------


  Static dielectric constant tensor : 

-------------------------------------------------------------------------------
              x         y         z
-------------------------------------------------------------------------------
       x     5.31988  -0.02459  -0.05900
       y    -0.02459   6.29669  -0.01184
       z    -0.05900  -0.01184   4.19125
--------------------------------------------------------------------------------

  High frequency dielectric constant tensor : 

-------------------------------------------------------------------------------
              x         y         z
-------------------------------------------------------------------------------
       x     1.55521   0.00247   0.00039
       y     0.00247   1.56153  -0.00059
       z     0.00039  -0.00059   1.51678
-------------------------------------------------------------------------------

  Static refractive indices : 

-------------------------------------------------------------------------------
    1 =    2.04648      2 =    2.30703      3 =    2.50945
-------------------------------------------------------------------------------

  High frequency refractive indices : 

-------------------------------------------------------------------------------
    1 =    1.23157      2 =    1.24674      3 =    1.24995
-------------------------------------------------------------------------------


  Time to end of optimisation =      10.3241 seconds


  Peak dynamic memory used =       5.01 MB 


  Timing analysis for GULP :

--------------------------------------------------------------------------------
  Task / Subroutine                                          Time (Seconds)
--------------------------------------------------------------------------------
  Calculation of reciprocal space energy and derivatives          0.6771
  Calculation of real space energy and derivatives                7.1279
  Calculation of three-body energy and derivatives                0.1060
  Calculation and manipulation of Hessian matrix                  2.8649
  Calculation of matrix inversion                                 0.0393
  Global summation overhead                                       0.0001
--------------------------------------------------------------------------------
  Total CPU time                                                 10.3241
--------------------------------------------------------------------------------


  Dump file written as c00832.vasp.grs
  CIF file written as c00832.vasp.cif


  Job Finished at 14:22.50 31st October    2025                               

