********************************************************************************
*                       GENERAL UTILITY LATTICE PROGRAM                        *
*                                 Julian Gale                                  *
*                       Curtin Institute for Computation                       *
*                    School of Molecular and Life Sciences                     *
*                    Curtin University, Western Australia                      *
********************************************************************************
* Version = 6.1.2 * Last modified =   3rd November 2022                        *
********************************************************************************
*  optimise     - perform optimisation run                                     *
*  conp         - constant pressure calculation                                *
*  property     - calculate properties for final geometry                      *
********************************************************************************

  Job Started  at 14:41.10 31st October    2025                               

  Number of CPUs =     1


  Total number of configurations input =      1

********************************************************************************
*  Input for Configuration =   1 : c00944.vasp                                 *
********************************************************************************

  Formula = Ge20Si4O48                                                  

  Number of irreducible atoms/shells =     120


  Total number atoms/shells =     120

  Dimensionality = 3               :  Bulk   



  Cartesian lattice vectors (Angstroms) :

       17.182800    0.000000    0.000000
        0.000000    7.513760    0.000000
        0.000000    0.000000   10.447700

  Cell parameters (Angstroms/Degrees):

  a =      17.1828    alpha =  90.0000
  b =       7.5138    beta  =  90.0000
  c =      10.4477    gamma =  90.0000

  Initial cell volume =        1348.875752 Angs**3

  Temperature of configuration =   0.00     K 

  Pressure of configuration =         0.000 GPa 

  Fractional coordinates of asymmetric unit :

--------------------------------------------------------------------------------
   No.  Atomic       x           y          z         Charge      Occupancy
        Label      (Frac)      (Frac)     (Frac)        (e)         (Frac)  
--------------------------------------------------------------------------------
      1 Ge    c    0.052090    0.000000    0.372270     4.00000    1.000000    
      2 Ge    c    0.447910 *  0.000000 *  0.372270 *   4.00000    1.000000    
      3 Ge    c    0.947910 *  0.000000 *  0.627730 *   4.00000    1.000000    
      4 Ge    c    0.556730 *  0.000000 *  0.122130 *   4.00000    1.000000    
      5 Ge    c    0.943270 *  0.000000 *  0.122130 *   4.00000    1.000000    
      6 Ge    c    0.443270 *  0.000000 *  0.877870 *   4.00000    1.000000    
      7 Ge    c    0.160190 *  0.293910 *  0.273440 *   4.00000    1.000000    
      8 Ge    c    0.339810 *  0.706090 *  0.273440 *   4.00000    1.000000    
      9 Ge    c    0.839810 *  0.293910 *  0.726560 *   4.00000    1.000000    
     10 Ge    c    0.660190 *  0.706090 *  0.726560 *   4.00000    1.000000    
     11 Ge    c    0.839810 *  0.706090 *  0.726560 *   4.00000    1.000000    
     12 Ge    c    0.660190 *  0.293910 *  0.726560 *   4.00000    1.000000    
     13 Ge    c    0.160190 *  0.706090 *  0.273440 *   4.00000    1.000000    
     14 Ge    c    0.339810 *  0.293910 *  0.273440 *   4.00000    1.000000    
     15 Ge    c    0.660660 *  0.294090 *  0.017440 *   4.00000    1.000000    
     16 Ge    c    0.339340 *  0.294090 *  0.982560 *   4.00000    1.000000    
     17 Ge    c    0.160660 *  0.705910 *  0.982560 *   4.00000    1.000000    
     18 Ge    c    0.339340 *  0.705910 *  0.982560 *   4.00000    1.000000    
     19 Ge    c    0.160660 *  0.294090 *  0.982560 *   4.00000    1.000000    
     20 Ge    c    0.839340 *  0.294090 *  0.017440 *   4.00000    1.000000    
     21 Si    c    0.552090 *  0.000000 *  0.627730 *   4.00000    1.000000    
     22 Si    c    0.056730 *  0.000000 *  0.877870 *   4.00000    1.000000    
     23 Si    c    0.839340 *  0.705910 *  0.017440 *   4.00000    1.000000    
     24 Si    c    0.660660 *  0.705910 *  0.017440 *   4.00000    1.000000    
     25 O1    c    0.106570 *  0.174340 *  0.366200 *   1.73396    1.000000    
     26 O1    c    0.393430 *  0.825660 *  0.366200 *   1.73396    1.000000    
     27 O1    c    0.893430 *  0.174340 *  0.633800 *   1.73396    1.000000    
     28 O3    c    0.606570 *  0.825660 *  0.633800 *   1.33043    1.000000    
     29 O1    c    0.893430 *  0.825660 *  0.633800 *   1.73396    1.000000    
     30 O3    c    0.606570 *  0.174340 *  0.633800 *   1.33043    1.000000    
     31 O1    c    0.106570 *  0.825660 *  0.366200 *   1.73396    1.000000    
     32 O1    c    0.393430 *  0.174340 *  0.366200 *   1.73396    1.000000    
     33 O1    c    0.000000 *  0.000000 *  0.500000 *   1.73396    1.000000    
     34 O3    c    0.500000 *  0.000000 *  0.500000 *   1.33043    1.000000    
     35 O1    c    0.994520 *  0.000000 *  0.250840 *   1.73396    1.000000    
     36 O1    c    0.505480 *  0.000000 *  0.250840 *   1.73396    1.000000    
     37 O3    c    0.005480 *  0.000000 *  0.749160 *   1.33043    1.000000    
     38 O3    c    0.494520 *  0.000000 *  0.749160 *   1.33043    1.000000    
     39 O1    c    0.610230 *  0.175520 *  0.115390 *   1.73396    1.000000    
     40 O3    c    0.889770 *  0.824480 *  0.115390 *   1.33043    1.000000    
     41 O1    c    0.389770 *  0.175520 *  0.884610 *   1.73396    1.000000    
     42 O3    c    0.110230 *  0.824480 *  0.884610 *   1.33043    1.000000    
     43 O1    c    0.389770 *  0.824480 *  0.884610 *   1.73396    1.000000    
     44 O3    c    0.110230 *  0.175520 *  0.884610 *   1.33043    1.000000    
     45 O3    c    0.610230 *  0.824480 *  0.115390 *   1.33043    1.000000    
     46 O1    c    0.889770 *  0.175520 *  0.115390 *   1.73396    1.000000    
     47 O1    c    0.500000 *  0.000000 *  0.000000 *   1.73396    1.000000    
     48 O3    c    0.000000 *  0.000000 *  0.000000 *   1.33043    1.000000    
     49 O1    c    0.151750 *  0.500000 *  0.313330 *   1.73396    1.000000    
     50 O1    c    0.348250 *  0.500000 *  0.313330 *   1.73396    1.000000    
     51 O1    c    0.848250 *  0.500000 *  0.686670 *   1.73396    1.000000    
     52 O1    c    0.651750 *  0.500000 *  0.686670 *   1.73396    1.000000    
     53 O1    c    0.250000 *  0.234950 *  0.285720 *   1.73396    1.000000    
     54 O1    c    0.250000 *  0.765050 *  0.285720 *   1.73396    1.000000    
     55 O1    c    0.750000 *  0.234950 *  0.714280 *   1.73396    1.000000    
     56 O1    c    0.750000 *  0.765050 *  0.714280 *   1.73396    1.000000    
     57 O1    c    0.131410 *  0.268650 *  0.127790 *   1.73396    1.000000    
     58 O1    c    0.368590 *  0.731350 *  0.127790 *   1.73396    1.000000    
     59 O1    c    0.868590 *  0.268650 *  0.872210 *   1.73396    1.000000    
     60 O3    c    0.631410 *  0.731350 *  0.872210 *   1.33043    1.000000    
     61 O3    c    0.868590 *  0.731350 *  0.872210 *   1.33043    1.000000    
     62 O1    c    0.631410 *  0.268650 *  0.872210 *   1.73396    1.000000    
     63 O1    c    0.131410 *  0.731350 *  0.127790 *   1.73396    1.000000    
     64 O1    c    0.368590 *  0.268650 *  0.127790 *   1.73396    1.000000    
     65 O3    c    0.653920 *  0.500000 *  0.058200 *   1.33043    1.000000    
     66 O3    c    0.846080 *  0.500000 *  0.058200 *   1.33043    1.000000    
     67 O1    c    0.346080 *  0.500000 *  0.941800 *   1.73396    1.000000    
     68 O1    c    0.153920 *  0.500000 *  0.941800 *   1.73396    1.000000    
     69 O1    c    0.750000 *  0.231060 *  0.027050 *   1.73396    1.000000    
     70 O2    c    0.750000 *  0.768940 *  0.027050 *   0.87073    1.000000    
     71 O1    c    0.250000 *  0.231060 *  0.972950 *   1.73396    1.000000    
     72 O1    c    0.250000 *  0.768940 *  0.972950 *   1.73396    1.000000    
     73 O1    s    0.106570 *  0.174340 *  0.366200 *  -3.73396    1.000000    
     74 O1    s    0.393430 *  0.825660 *  0.366200 *  -3.73396    1.000000    
     75 O1    s    0.893430 *  0.174340 *  0.633800 *  -3.73396    1.000000    
     76 O3    s    0.606570 *  0.825660 *  0.633800 *  -3.33043    1.000000    
     77 O1    s    0.893430 *  0.825660 *  0.633800 *  -3.73396    1.000000    
     78 O3    s    0.606570 *  0.174340 *  0.633800 *  -3.33043    1.000000    
     79 O1    s    0.106570 *  0.825660 *  0.366200 *  -3.73396    1.000000    
     80 O1    s    0.393430 *  0.174340 *  0.366200 *  -3.73396    1.000000    
     81 O1    s    0.000000 *  0.000000 *  0.500000 *  -3.73396    1.000000    
     82 O3    s    0.500000 *  0.000000 *  0.500000 *  -3.33043    1.000000    
     83 O1    s    0.994520 *  0.000000 *  0.250840 *  -3.73396    1.000000    
     84 O1    s    0.505480 *  0.000000 *  0.250840 *  -3.73396    1.000000    
     85 O3    s    0.005480 *  0.000000 *  0.749160 *  -3.33043    1.000000    
     86 O3    s    0.494520 *  0.000000 *  0.749160 *  -3.33043    1.000000    
     87 O1    s    0.610230 *  0.175520 *  0.115390 *  -3.73396    1.000000    
     88 O3    s    0.889770 *  0.824480 *  0.115390 *  -3.33043    1.000000    
     89 O1    s    0.389770 *  0.175520 *  0.884610 *  -3.73396    1.000000    
     90 O3    s    0.110230 *  0.824480 *  0.884610 *  -3.33043    1.000000    
     91 O1    s    0.389770 *  0.824480 *  0.884610 *  -3.73396    1.000000    
     92 O3    s    0.110230 *  0.175520 *  0.884610 *  -3.33043    1.000000    
     93 O3    s    0.610230 *  0.824480 *  0.115390 *  -3.33043    1.000000    
     94 O1    s    0.889770 *  0.175520 *  0.115390 *  -3.73396    1.000000    
     95 O1    s    0.500000 *  0.000000 *  0.000000 *  -3.73396    1.000000    
     96 O3    s    0.000000 *  0.000000 *  0.000000 *  -3.33043    1.000000    
     97 O1    s    0.151750 *  0.500000 *  0.313330 *  -3.73396    1.000000    
     98 O1    s    0.348250 *  0.500000 *  0.313330 *  -3.73396    1.000000    
     99 O1    s    0.848250 *  0.500000 *  0.686670 *  -3.73396    1.000000    
    100 O1    s    0.651750 *  0.500000 *  0.686670 *  -3.73396    1.000000    
    101 O1    s    0.250000 *  0.234950 *  0.285720 *  -3.73396    1.000000    
    102 O1    s    0.250000 *  0.765050 *  0.285720 *  -3.73396    1.000000    
    103 O1    s    0.750000 *  0.234950 *  0.714280 *  -3.73396    1.000000    
    104 O1    s    0.750000 *  0.765050 *  0.714280 *  -3.73396    1.000000    
    105 O1    s    0.131410 *  0.268650 *  0.127790 *  -3.73396    1.000000    
    106 O1    s    0.368590 *  0.731350 *  0.127790 *  -3.73396    1.000000    
    107 O1    s    0.868590 *  0.268650 *  0.872210 *  -3.73396    1.000000    
    108 O3    s    0.631410 *  0.731350 *  0.872210 *  -3.33043    1.000000    
    109 O3    s    0.868590 *  0.731350 *  0.872210 *  -3.33043    1.000000    
    110 O1    s    0.631410 *  0.268650 *  0.872210 *  -3.73396    1.000000    
    111 O1    s    0.131410 *  0.731350 *  0.127790 *  -3.73396    1.000000    
    112 O1    s    0.368590 *  0.268650 *  0.127790 *  -3.73396    1.000000    
    113 O3    s    0.653920 *  0.500000 *  0.058200 *  -3.33043    1.000000    
    114 O3    s    0.846080 *  0.500000 *  0.058200 *  -3.33043    1.000000    
    115 O1    s    0.346080 *  0.500000 *  0.941800 *  -3.73396    1.000000    
    116 O1    s    0.153920 *  0.500000 *  0.941800 *  -3.73396    1.000000    
    117 O1    s    0.750000 *  0.231060 *  0.027050 *  -3.73396    1.000000    
    118 O2    s    0.750000 *  0.768940 *  0.027050 *  -2.87073    1.000000    
    119 O1    s    0.250000 *  0.231060 *  0.972950 *  -3.73396    1.000000    
    120 O1    s    0.250000 *  0.768940 *  0.972950 *  -3.73396    1.000000    
--------------------------------------------------------------------------------



********************************************************************************
*  General input information                                                   *
********************************************************************************

  Species output for all configurations : 

--------------------------------------------------------------------------------
  Species    Type    Atomic    Atomic    Charge       Radii (Angs)     Library
                     Number     Mass       (e)     Cova   Ionic  VDW   Symbol
--------------------------------------------------------------------------------
    Ge       Core       32      72.61   4.000000   1.170  0.000  1.750 Ge       
    Si       Core       14      28.09   4.000000   1.200  0.000  2.100 Si       
    O1       Core        8      16.00   1.733957   0.730  0.000  1.360 O1       
    O2       Core        8      16.00   0.870733   0.730  0.000  1.360 O2       
    O3       Core        8      16.00   1.330431   0.730  0.000  1.360 O3       
    O1       Shell       8       0.00  -3.733957   0.730  0.000  0.000 O1       
    O2       Shell       8       0.00  -2.870733   0.730  0.000  0.000 O2       
    O3       Shell       8       0.00  -3.330431   0.730  0.000  0.000 O3       
--------------------------------------------------------------------------------


  Lattice summation method               =    Ewald          (3-D)
                                         =    Parry          (2-D)
                                         =    Saunders et al (1-D)
  Accuracy factor for lattice sums       =   12.000


  Analytic derivatives to be used

  Time limit = Infinity

  Maximum range for interatomic potentials =    100000.000000 Angstroms

  General interatomic potentials :

--------------------------------------------------------------------------------
Atom  Types   Potential      Parameter       Value         Units   Cutoffs(Ang)
  1     2                                                            Min /  Max 
--------------------------------------------------------------------------------
Si   c O1   s Buckingham    Buckingham A     1315.2478    eV        0.000 16.000
                            Buckingham rho  0.31775900    Ang       
                            Buckingham C     10.141118    eV*Ang^6  
--------------------------------------------------------------------------------
Si   c O2   s Buckingham    Buckingham A     1315.2478    eV        0.000 16.000
                            Buckingham rho  0.31775900    Ang       
                            Buckingham C     10.141118    eV*Ang^6  
--------------------------------------------------------------------------------
Si   c O3   s Buckingham    Buckingham A     1315.2478    eV        0.000 16.000
                            Buckingham rho  0.31775900    Ang       
                            Buckingham C     10.141118    eV*Ang^6  
--------------------------------------------------------------------------------
Ge   c O1   s Buckingham    Buckingham A     1497.3996    eV        0.000 16.000
                            Buckingham rho  0.32564600    Ang       
                            Buckingham C     16.808599    eV*Ang^6  
--------------------------------------------------------------------------------
Ge   c O2   s Buckingham    Buckingham A     1497.3996    eV        0.000 16.000
                            Buckingham rho  0.32564600    Ang       
                            Buckingham C     16.808599    eV*Ang^6  
--------------------------------------------------------------------------------
Ge   c O3   s Buckingham    Buckingham A     1497.3996    eV        0.000 16.000
                            Buckingham rho  0.32564600    Ang       
                            Buckingham C     16.808599    eV*Ang^6  
--------------------------------------------------------------------------------
O1   s O1   s Buckingham    Buckingham A     22764.000    eV        0.000 16.000
                            Buckingham rho  0.14900000    Ang       
                            Buckingham C     10.937044    eV*Ang^6  
--------------------------------------------------------------------------------
O1   s O2   s Buckingham    Buckingham A     22764.000    eV        0.000 16.000
                            Buckingham rho  0.14900000    Ang       
                            Buckingham C     10.937044    eV*Ang^6  
--------------------------------------------------------------------------------
O1   s O3   s Buckingham    Buckingham A     22764.000    eV        0.000 16.000
                            Buckingham rho  0.14900000    Ang       
                            Buckingham C     10.937044    eV*Ang^6  
--------------------------------------------------------------------------------
O2   s O2   s Buckingham    Buckingham A     22764.000    eV        0.000 16.000
                            Buckingham rho  0.14900000    Ang       
                            Buckingham C     10.937044    eV*Ang^6  
--------------------------------------------------------------------------------
O2   s O3   s Buckingham    Buckingham A     22764.000    eV        0.000 16.000
                            Buckingham rho  0.14900000    Ang       
                            Buckingham C     10.937044    eV*Ang^6  
--------------------------------------------------------------------------------
O3   s O3   s Buckingham    Buckingham A     22764.000    eV        0.000 16.000
                            Buckingham rho  0.14900000    Ang       
                            Buckingham C     10.937044    eV*Ang^6  
--------------------------------------------------------------------------------
O1   c O1   s Spring (c-s)  Spring k 2       180.31577    eV*Ang^-2 0.000  0.800
                            Spring k 4       0.0000000    eV*Ang^-4 
--------------------------------------------------------------------------------
O2   c O2   s Spring (c-s)  Spring k 2       75.969800    eV*Ang^-2 0.000  0.800
                            Spring k 4       0.0000000    eV*Ang^-4 
--------------------------------------------------------------------------------
O3   c O3   s Spring (c-s)  Spring k 2       128.14270    eV*Ang^-2 0.000  0.800
                            Spring k 4       0.0000000    eV*Ang^-4 
--------------------------------------------------------------------------------

  General Three-body potentials :

--------------------------------------------------------------------------------
  Atoms       Potential      Parameter       Value         Units   Cutoffs(Ang)
  1 / 2 / 3                                                          Min /  Max 
--------------------------------------------------------------------------------
Si    core    Harmonic      Three-body cnst  1.2614000    eV*rad^-2 0.000  1.900
O1    shel                  Three-body angl  109.47000    degrees   0.000  1.900
O1    shel                  Three-body k4    0.0000000    eV*rad^-4 0.000  3.500
                            Three-body k3    0.0000000    eV*rad^-3 
--------------------------------------------------------------------------------
Si    core    Harmonic      Three-body cnst  1.2614000    eV*rad^-2 0.000  1.900
O1    shel                  Three-body angl  109.47000    degrees   0.000  1.900
õ(1   shel                  Three-body k4    0.0000000    eV*rad^-4 0.000  3.500
                            Three-body k3    0.0000000    eV*rad^-3 
--------------------------------------------------------------------------------
Si    core    Harmonic      Three-body cnst  1.2614000    eV*rad^-2 0.000  1.900
õ(1   shel                  Three-body angl  109.47000    degrees   0.000  1.900
õ(1   shel                  Three-body k4    0.0000000    eV*rad^-4 0.000  3.500
                            Three-body k3    0.0000000    eV*rad^-3 
--------------------------------------------------------------------------------
Si    core    Harmonic      Three-body cnst  1.2614000    eV*rad^-2 0.000  1.900
O1    shel                  Three-body angl  109.47000    degrees   0.000  1.900
O2    shel                  Three-body k4    0.0000000    eV*rad^-4 0.000  3.500
                            Three-body k3    0.0000000    eV*rad^-3 
--------------------------------------------------------------------------------
Si    core    Harmonic      Three-body cnst  1.2614000    eV*rad^-2 0.000  1.900
O1    shel                  Three-body angl  109.47000    degrees   0.000  1.900
õ(2   shel                  Three-body k4    0.0000000    eV*rad^-4 0.000  3.500
                            Three-body k3    0.0000000    eV*rad^-3 
--------------------------------------------------------------------------------
Si    core    Harmonic      Three-body cnst  1.2614000    eV*rad^-2 0.000  1.900
O2    shel                  Three-body angl  109.47000    degrees   0.000  1.900
õ(1   shel                  Three-body k4    0.0000000    eV*rad^-4 0.000  3.500
                            Three-body k3    0.0000000    eV*rad^-3 
--------------------------------------------------------------------------------
Si    core    Harmonic      Three-body cnst  1.2614000    eV*rad^-2 0.000  1.900
õ(1   shel                  Three-body angl  109.47000    degrees   0.000  1.900
õ(2   shel                  Three-body k4    0.0000000    eV*rad^-4 0.000  3.500
                            Three-body k3    0.0000000    eV*rad^-3 
--------------------------------------------------------------------------------
Si    core    Harmonic      Three-body cnst  1.2614000    eV*rad^-2 0.000  1.900
O2    shel                  Three-body angl  109.47000    degrees   0.000  1.900
O2    shel                  Three-body k4    0.0000000    eV*rad^-4 0.000  3.500
                            Three-body k3    0.0000000    eV*rad^-3 
--------------------------------------------------------------------------------
Si    core    Harmonic      Three-body cnst  1.2614000    eV*rad^-2 0.000  1.900
O2    shel                  Three-body angl  109.47000    degrees   0.000  1.900
õ(2   shel                  Three-body k4    0.0000000    eV*rad^-4 0.000  3.500
                            Three-body k3    0.0000000    eV*rad^-3 
--------------------------------------------------------------------------------
Si    core    Harmonic      Three-body cnst  1.2614000    eV*rad^-2 0.000  1.900
õ(2   shel                  Three-body angl  109.47000    degrees   0.000  1.900
õ(2   shel                  Three-body k4    0.0000000    eV*rad^-4 0.000  3.500
                            Three-body k3    0.0000000    eV*rad^-3 
--------------------------------------------------------------------------------

********************************************************************************
*  Output for configuration   1 : c00944.vasp                                  *
********************************************************************************


  Components of energy : 

--------------------------------------------------------------------------------
  Interatomic potentials     =         896.55019375 eV    
  Three-body potentials      =           0.00000000 eV    
  Monopole - monopole (real) =       -2676.00317478 eV    
  Monopole - monopole (recip)=       -1115.35404472 eV    
  Monopole - monopole (total)=       -3791.35721950 eV    
--------------------------------------------------------------------------------
  Total lattice energy       =       -2894.80702575 eV    
--------------------------------------------------------------------------------
  Total lattice energy       =         -279304.6268 kJ/(mole unit cells)
--------------------------------------------------------------------------------


  Number of variables =      363

  Maximum number of calculations  =          1000
  Maximum Hessian update interval =            10
  Maximum step size               =   0.100000000
  Maximum parameter tolerance     =   0.000010000
  Maximum function  tolerance     =   0.000010000
  Maximum gradient  tolerance     =   0.001000000
  Maximum gradient  component     =   0.010000000

  Symmetry not applied to optimisation

  Cell parameters to be optimised using strains

  Newton-Raphson optimiser to be used

  BFGS hessian update to be used

  Lower half triangular hessian to be used

  Minimiser to switch to RFO
  When gradient norm is less than     0.050000

  Dumpfile to be written after every cycle

  Start of bulk optimisation :

  Cycle:      0 Energy:     -2894.807026  Gnorm:      5.882914  CPU:    0.093
  ** Hessian calculated **
  Cycle:      1 Energy:     -2938.363233  Gnorm:      1.411372  CPU:    0.212
  ** Hessian calculated **
  Cycle:      2 Energy:     -2943.335636  Gnorm:      0.805374  CPU:    0.393
  Cycle:      3 Energy:     -2944.306215  Gnorm:      0.370172  CPU:    0.475
  Cycle:      4 Energy:     -2944.844359  Gnorm:      0.299213  CPU:    0.574
  Cycle:      5 Energy:     -2945.489066  Gnorm:      0.257554  CPU:    0.671
  Cycle:      6 Energy:     -2946.182389  Gnorm:      0.224528  CPU:    0.776
  Cycle:      7 Energy:     -2946.556264  Gnorm:      0.170727  CPU:    0.863
  Cycle:      8 Energy:     -2946.689956  Gnorm:      0.116497  CPU:    0.946
  Cycle:      9 Energy:     -2946.735977  Gnorm:      0.087678  CPU:    1.029
  Cycle:     10 Energy:     -2946.778171  Gnorm:      0.077396  CPU:    1.127
  Cycle:     11 Energy:     -2946.816450  Gnorm:      0.078780  CPU:    1.226
  ** Hessian calculated **
  Cycle:     12 Energy:     -2946.826903  Gnorm:      0.064506  CPU:    1.390
  Cycle:     13 Energy:     -2946.848969  Gnorm:      0.060538  CPU:    1.503
  Cycle:     14 Energy:     -2946.875682  Gnorm:      0.055691  CPU:    1.600
  Cycle:     15 Energy:     -2946.906420  Gnorm:      0.049765  CPU:    1.699
  ** Hessian has required structure
  Cycle:     16 Energy:     -2946.912033  Gnorm:      0.079949  CPU:    1.818
  ** Hessian has required structure
  Cycle:     17 Energy:     -2946.926142  Gnorm:      0.106066  CPU:    1.952
  ** Hessian has required structure
  Cycle:     18 Energy:     -2946.944865  Gnorm:      0.138294  CPU:    2.084
  ** Hessian has required structure
  Cycle:     19 Energy:     -2946.949530  Gnorm:      0.131355  CPU:    2.201
  ** Hessian has required structure
  Cycle:     20 Energy:     -2946.959446  Gnorm:      0.166352  CPU:    2.320
  ** Hessian has required structure
  Cycle:     21 Energy:     -2946.970266  Gnorm:      0.129193  CPU:    2.437
  ** Hessian has wrong structure
  ** Imaginary eigenvectors =   5
  Cycle:     22 Energy:     -2947.003909  Gnorm:      0.129355  CPU:    2.832
  ** Hessian has wrong structure
  ** Imaginary eigenvectors =   5
  Cycle:     23 Energy:     -2947.058381  Gnorm:      0.137276  CPU:    3.208
  ** Hessian has wrong structure
  ** Imaginary eigenvectors =   2
  ** Hessian has wrong structure
  ** Imaginary eigenvectors =   2
  Cycle:     24 Energy:     -2947.158288  Gnorm:      0.155710  CPU:    3.674
  ** Hessian has wrong structure
  ** Imaginary eigenvectors =   1
  ** Hessian has required structure
  Cycle:     25 Energy:     -2947.579398  Gnorm:      0.108919  CPU:    4.061
  ** Hessian has required structure
  Cycle:     26 Energy:     -2947.769537  Gnorm:      0.067887  CPU:    4.216
  ** Hessian has required structure
  Cycle:     27 Energy:     -2947.872940  Gnorm:      0.044364  CPU:    4.372
  ** Hessian has required structure
  Cycle:     28 Energy:     -2947.920886  Gnorm:      0.030654  CPU:    4.527
  ** Hessian has required structure
  Cycle:     29 Energy:     -2947.945557  Gnorm:      0.029666  CPU:    4.681
  ** Hessian has required structure
  Cycle:     30 Energy:     -2947.962623  Gnorm:      0.021838  CPU:    4.836
  ** Hessian has required structure
  Cycle:     31 Energy:     -2947.972867  Gnorm:      0.019150  CPU:    4.991
  ** Hessian has required structure
  Cycle:     32 Energy:     -2947.978207  Gnorm:      0.013661  CPU:    5.147
  ** Hessian has required structure
  Cycle:     33 Energy:     -2947.980747  Gnorm:      0.017573  CPU:    5.301
  ** Hessian has required structure
  Cycle:     34 Energy:     -2947.984607  Gnorm:      0.011934  CPU:    5.456
  ** Hessian has wrong structure
  ** Imaginary eigenvectors =   1
  Cycle:     35 Energy:     -2947.987410  Gnorm:      0.013149  CPU:    5.819
  ** Hessian has required structure
  Cycle:     36 Energy:     -2947.994200  Gnorm:      0.008306  CPU:    6.076
  ** Hessian has required structure
  Cycle:     37 Energy:     -2947.996267  Gnorm:      0.005094  CPU:    6.249
  ** Hessian has required structure
  Cycle:     38 Energy:     -2947.996976  Gnorm:      0.002910  CPU:    6.421
  ** Hessian has required structure
  Cycle:     39 Energy:     -2947.997170  Gnorm:      0.001789  CPU:    6.574
  ** Hessian has required structure
  Cycle:     40 Energy:     -2947.997272  Gnorm:      0.001058  CPU:    6.746
  ** Hessian has required structure
  Cycle:     41 Energy:     -2947.997300  Gnorm:      0.000296  CPU:    6.917
  ** Hessian has required structure
  Cycle:     42 Energy:     -2947.997309  Gnorm:      0.000235  CPU:    7.070
  ** Hessian has required structure
  Cycle:     43 Energy:     -2947.997310  Gnorm:      0.000156  CPU:    7.207
  ** Hessian has required structure
  Cycle:     44 Energy:     -2947.997310  Gnorm:      0.000125  CPU:    7.343
  ** Hessian has required structure
  Cycle:     45 Energy:     -2947.997311  Gnorm:      0.000109  CPU:    7.480
  ** Hessian has required structure


  **** Optimisation achieved ****


  Final energy =   -2947.99731141 eV      
  Final Gnorm  =       0.00007632

  Components of energy : 

--------------------------------------------------------------------------------
  Interatomic potentials     =         778.74408940 eV    
  Three-body potentials      =           0.00000000 eV    
  Monopole - monopole (real) =       -1564.35431230 eV    
  Monopole - monopole (recip)=       -2162.38708851 eV    
  Monopole - monopole (total)=       -3726.74140081 eV    
--------------------------------------------------------------------------------
  Total lattice energy       =       -2947.99731141 eV    
--------------------------------------------------------------------------------
  Total lattice energy       =         -284436.6763 kJ/(mole unit cells)
--------------------------------------------------------------------------------

  Final fractional coordinates of atoms :

--------------------------------------------------------------------------------
   No.  Atomic        x           y          z          Radius
        Label       (Frac)      (Frac)     (Frac)       (Angs) 
--------------------------------------------------------------------------------
     1  Ge    c     0.052090    0.000000    0.372270    0.000000
     2  Ge    c     0.451202    0.943399    0.365191    0.000000
     3  Ge    c     0.947818    0.951281    0.625059    0.000000
     4  Ge    c     0.555924    0.008349    0.118214    0.000000
     5  Ge    c     0.939898    0.959284    0.124796    0.000000
     6  Ge    c     0.446822    0.943610    0.866997    0.000000
     7  Ge    c     0.144164    0.313200    0.257477    0.000000
     8  Ge    c     0.355985    0.631193    0.252399    0.000000
     9  Ge    c     0.824819    0.238562    0.701582    0.000000
    10  Ge    c     0.665394    0.715412    0.693821    0.000000
    11  Ge    c     0.847206    0.643245    0.694644    0.000000
    12  Ge    c     0.640934    0.312131    0.696996    0.000000
    13  Ge    c     0.173369    0.712033    0.262210    0.000000
    14  Ge    c     0.326623    0.230311    0.251974    0.000000
    15  Ge    c     0.640802    0.331417    0.008803    0.000000
    16  Ge    c     0.323362    0.234219    0.938111    0.000000
    17  Ge    c     0.163839    0.715540    0.948492    0.000000
    18  Ge    c     0.346553    0.635552    0.937303    0.000000
    19  Ge    c     0.141006    0.314702    0.942913    0.000000
    20  Ge    c     0.826419    0.258259    0.013620    0.000000
    21  Si    c     0.547720    0.001045    0.619912    0.000000
    22  Si    c     0.044389    0.005486    0.880827    0.000000
    23  Si    c     0.846606    0.649981    0.001229    0.000000
    24  Si    c     0.667970    0.720470    0.000322    0.000000
    25  O1    c     0.077250    0.204320    0.340136    0.000000
    26  O1    c     0.424517    0.738027    0.337934    0.000000
    27  O1    c     0.873525    0.097137    0.604241    0.000000
    28  O3    c     0.614896    0.858756    0.598509    0.000000
    29  O1    c     0.912718    0.750335    0.607742    0.000000
    30  O3    c     0.580028    0.188670    0.603485    0.000000
    31  O1    c     0.129616    0.864239    0.356998    0.000000
    32  O1    c     0.373938    0.077685    0.340079    0.000000
    33  O1    c     0.023675    0.989210    0.531251    0.000000
    34  O3    c     0.476348    0.967587    0.527621    0.000000
    35  O1    c     0.974460    0.942015    0.279955    0.000000
    36  O1    c     0.529780    0.990381    0.276516    0.000000
    37  O3    c     0.973875    0.970285    0.788005    0.000000
    38  O3    c     0.522355    0.981530    0.769102    0.000000
    39  O1    c     0.579357    0.217321    0.098281    0.000000
    40  O3    c     0.900451    0.765893    0.087089    0.000000
    41  O1    c     0.373675    0.092192    0.844284    0.000000
    42  O3    c     0.112283    0.864452    0.859746    0.000000
    43  O1    c     0.408911    0.745977    0.845898    0.000000
    44  O3    c     0.076521    0.192696    0.856993    0.000000
    45  O3    c     0.634997    0.876500    0.083955    0.000000
    46  O1    c     0.872142    0.120326    0.117089    0.000000
    47  O1    c     0.478834    0.953933    0.025443    0.000000
    48  O3    c     0.017844    0.998783    0.030036    0.000000
    49  O1    c     0.157910    0.512087    0.322268    0.000000
    50  O1    c     0.344627    0.431244    0.312170    0.000000
    51  O1    c     0.837564    0.439768    0.641105    0.000000
    52  O1    c     0.649384    0.511876    0.636351    0.000000
    53  O1    c     0.229961    0.199272    0.256689    0.000000
    54  O1    c     0.269798    0.743233    0.258995    0.000000
    55  O1    c     0.728370    0.206117    0.702735    0.000000
    56  O1    c     0.760683    0.753595    0.683931    0.000000
    57  O1    c     0.113319    0.340648    0.100784    0.000000
    58  O1    c     0.381686    0.615173    0.092880    0.000000
    59  O1    c     0.858104    0.223795    0.858958    0.000000
    60  O3    c     0.635517    0.726911    0.853897    0.000000
    61  O3    c     0.877014    0.634325    0.855745    0.000000
    62  O1    c     0.607396    0.330475    0.852041    0.000000
    63  O1    c     0.136205    0.724956    0.107440    0.000000
    64  O1    c     0.357760    0.220098    0.094830    0.000000
    65  O3    c     0.645284    0.541759    0.062121    0.000000
    66  O3    c     0.845049    0.465137    0.063614    0.000000
    67  O1    c     0.333975    0.435557    0.876857    0.000000
    68  O1    c     0.148458    0.515083    0.882815    0.000000
    69  O1    c     0.729647    0.234081    0.016886    0.000000
    70  O2    c     0.760090    0.730614    0.991900    0.000000
    71  O1    c     0.226985    0.202055    0.940875    0.000000
    72  O1    c     0.260268    0.748425    0.942951    0.000000
    73  O1    s     0.080441    0.197202    0.336282    0.000000
    74  O1    s     0.421358    0.745513    0.333547    0.000000
    75  O1    s     0.875272    0.097238    0.613230    0.000000
    76  O3    s     0.612620    0.860600    0.608130    0.000000
    77  O1    s     0.910392    0.757105    0.615519    0.000000
    78  O3    s     0.581589    0.180267    0.612137    0.000000
    79  O1    s     0.127010    0.862897    0.350769    0.000000
    80  O1    s     0.376225    0.079295    0.335046    0.000000
    81  O1    s     0.019553    0.986921    0.527212    0.000000
    82  O3    s     0.481686    0.969093    0.524590    0.000000
    83  O1    s     0.977597    0.947638    0.275101    0.000000
    84  O1    s     0.525811    0.988159    0.271232    0.000000
    85  O3    s     0.979184    0.972476    0.785373    0.000000
    86  O3    s     0.518422    0.980194    0.763555    0.000000
    87  O1    s     0.582354    0.210673    0.092863    0.000000
    88  O3    s     0.898036    0.769569    0.081162    0.000000
    89  O1    s     0.375129    0.092339    0.853255    0.000000
    90  O3    s     0.110082    0.865644    0.868809    0.000000
    91  O1    s     0.407069    0.752306    0.854233    0.000000
    92  O3    s     0.078535    0.184848    0.865810    0.000000
    93  O3    s     0.632234    0.870792    0.078068    0.000000
    94  O1    s     0.873812    0.118640    0.109645    0.000000
    95  O1    s     0.482389    0.957331    0.021086    0.000000
    96  O3    s     0.014182    0.996320    0.023812    0.000000
    97  O1    s     0.157992    0.511669    0.313152    0.000000
    98  O1    s     0.344184    0.431706    0.303360    0.000000
    99  O1    s     0.837401    0.441297    0.649689    0.000000
   100  O1    s     0.649883    0.511272    0.645101    0.000000
   101  O1    s     0.230906    0.209849    0.256383    0.000000
   102  O1    s     0.268801    0.732729    0.258751    0.000000
   103  O1    s     0.729185    0.216389    0.702242    0.000000
   104  O1    s     0.759681    0.742650    0.685496    0.000000
   105  O1    s     0.117724    0.336646    0.100715    0.000000
   106  O1    s     0.377179    0.617863    0.093365    0.000000
   107  O1    s     0.853305    0.227417    0.859130    0.000000
   108  O3    s     0.640821    0.725427    0.855600    0.000000
   109  O3    s     0.871787    0.636503    0.857552    0.000000
   110  O1    s     0.612392    0.329162    0.852167    0.000000
   111  O1    s     0.140968    0.723325    0.107006    0.000000
   112  O1    s     0.352987    0.221855    0.095030    0.000000
   113  O3    s     0.647039    0.542486    0.052326    0.000000
   114  O3    s     0.843775    0.467451    0.053657    0.000000
   115  O1    s     0.334177    0.436507    0.885926    0.000000
   116  O1    s     0.148967    0.514002    0.891958    0.000000
   117  O1    s     0.730343    0.243412    0.016016    0.000000
   118  O2    s     0.759329    0.721483    0.993676    0.000000
   119  O1    s     0.227973    0.212721    0.940842    0.000000
   120  O1    s     0.259272    0.737925    0.942976    0.000000
--------------------------------------------------------------------------------

  Final Cartesian lattice vectors (Angstroms) :

       17.477524    0.259486   -0.102395
        0.113697    7.857859   -0.046286
       -0.063547   -0.066811   10.328630


  Final cell parameters and derivatives :

--------------------------------------------------------------------------------
       a           17.479750 Angstrom     dE/de1(xx)     0.008060 eV/strain
       b            7.858817 Angstrom     dE/de2(yy)     0.008319 eV/strain
       c           10.329042 Angstrom     dE/de3(zz)     0.003644 eV/strain
       alpha       90.713122 Degrees      dE/de4(yz)     0.000248 eV/strain
       beta        90.693597 Degrees      dE/de5(xz)     0.000562 eV/strain
       gamma       88.318513 Degrees      dE/de6(xy)    -0.000171 eV/strain
--------------------------------------------------------------------------------

  Primitive cell volume =          1418.083472 Angs**3

  Density of cell =      2.731411 g/cm**3

  Non-primitive cell volume =          1418.083472 Angs**3


  Final internal derivatives :

--------------------------------------------------------------------------------
   No.  Atomic          a             b             c           Radius
        Label          (eV)          (eV)          (eV)        (eV/Angs)
--------------------------------------------------------------------------------
      1 Ge    c       0.000000      0.000000      0.000000      0.000000
      2 Ge    c       0.000297     -0.000063     -0.000065      0.000000
      3 Ge    c       0.001207      0.000336      0.000235      0.000000
      4 Ge    c       0.000085     -0.000988      0.001565      0.000000
      5 Ge    c       0.005451      0.000552      0.002637      0.000000
      6 Ge    c      -0.000773     -0.000125     -0.000057      0.000000
      7 Ge    c       0.000861     -0.000297      0.000339      0.000000
      8 Ge    c      -0.000589      0.000155      0.000163      0.000000
      9 Ge    c       0.001781     -0.000527      0.000480      0.000000
     10 Ge    c      -0.000866      0.000647      0.000288      0.000000
     11 Ge    c       0.001978      0.000939      0.000225      0.000000
     12 Ge    c      -0.001821     -0.000704      0.000080      0.000000
     13 Ge    c       0.000314      0.000074      0.000133      0.000000
     14 Ge    c      -0.000320     -0.000027      0.000219      0.000000
     15 Ge    c      -0.001913     -0.000891     -0.000461      0.000000
     16 Ge    c       0.000089     -0.000149     -0.000409      0.000000
     17 Ge    c      -0.000023      0.000283     -0.000157      0.000000
     18 Ge    c       0.000822      0.000330     -0.000060      0.000000
     19 Ge    c      -0.000400     -0.000232     -0.000232      0.000000
     20 Ge    c       0.001461      0.000380     -0.002315      0.000000
     21 Si    c      -0.000759      0.000109      0.000826      0.000000
     22 Si    c      -0.000085      0.000287      0.000097      0.000000
     23 Si    c       0.000280     -0.001278     -0.002111      0.000000
     24 Si    c      -0.002374      0.001122     -0.000842      0.000000
     25 O1    c      -0.000858     -0.000525      0.000119      0.000000
     26 O1    c       0.000826      0.000153      0.000149      0.000000
     27 O1    c      -0.003919      0.001726     -0.000618      0.000000
     28 O3    c       0.003888     -0.001881     -0.000739      0.000000
     29 O1    c      -0.003054     -0.002750     -0.000435      0.000000
     30 O3    c       0.002416      0.001909     -0.000503      0.000000
     31 O1    c      -0.000128      0.000141     -0.000063      0.000000
     32 O1    c      -0.000025     -0.000014     -0.000106      0.000000
     33 O1    c       0.002406      0.000050     -0.001060      0.000000
     34 O3    c      -0.002989     -0.000105     -0.001539      0.000000
     35 O1    c      -0.001808     -0.000263      0.000065      0.000000
     36 O1    c       0.001212      0.000189     -0.000247      0.000000
     37 O3    c      -0.001090      0.000054      0.001147      0.000000
     38 O3    c       0.000824     -0.000101      0.000484      0.000000
     39 O1    c       0.003316      0.003769     -0.000279      0.000000
     40 O3    c      -0.003693     -0.004413      0.000652      0.000000
     41 O1    c       0.000652     -0.000200      0.000390      0.000000
     42 O3    c       0.000190     -0.000026      0.000124      0.000000
     43 O1    c       0.000510      0.000562      0.000003      0.000000
     44 O3    c      -0.000699     -0.000423     -0.000040      0.000000
     45 O3    c       0.001748     -0.001033     -0.000131      0.000000
     46 O1    c      -0.007632      0.005245      0.002548      0.000000
     47 O1    c      -0.006242     -0.000596     -0.002438      0.000000
     48 O3    c       0.008325      0.000649     -0.003898      0.000000
     49 O1    c      -0.000220      0.000288     -0.000024      0.000000
     50 O1    c       0.000164     -0.000043      0.000198      0.000000
     51 O1    c       0.001007     -0.001072     -0.000975      0.000000
     52 O1    c      -0.000947      0.000509     -0.001176      0.000000
     53 O1    c      -0.000856      0.000089     -0.000021      0.000000
     54 O1    c      -0.000083     -0.000180      0.000028      0.000000
     55 O1    c       0.000638     -0.001269      0.000145      0.000000
     56 O1    c      -0.001706      0.001653     -0.000168      0.000000
     57 O1    c      -0.000340      0.000020     -0.000279      0.000000
     58 O1    c       0.000687     -0.000037     -0.000383      0.000000
     59 O1    c      -0.000123     -0.000212      0.000216      0.000000
     60 O3    c      -0.000481     -0.000216      0.000502      0.000000
     61 O3    c       0.000282      0.000325      0.000210      0.000000
     62 O1    c      -0.000707      0.000062      0.000463      0.000000
     63 O1    c       0.000287     -0.000040      0.000277      0.000000
     64 O1    c       0.000392     -0.000043     -0.000054      0.000000
     65 O3    c      -0.001193     -0.000016      0.001501      0.000000
     66 O3    c       0.000748      0.000826      0.001714      0.000000
     67 O1    c      -0.000148     -0.000659     -0.000431      0.000000
     68 O1    c       0.000029      0.000084     -0.000385      0.000000
     69 O1    c      -0.002130     -0.001507      0.000485      0.000000
     70 O2    c      -0.003436      0.001425     -0.001094      0.000000
     71 O1    c       0.001263     -0.000426      0.000075      0.000000
     72 O1    c      -0.001265      0.000458      0.000054      0.000000
     73 O1    s       0.000568      0.000461     -0.000167      0.000000
     74 O1    s      -0.000518     -0.000200     -0.000005      0.000000
     75 O1    s       0.000790     -0.000532     -0.000092      0.000000
     76 O3    s      -0.000596      0.000199      0.000055      0.000000
     77 O1    s       0.002256      0.000938     -0.000342      0.000000
     78 O3    s      -0.001208      0.000018      0.000002      0.000000
     79 O1    s       0.000598     -0.000133     -0.000242      0.000000
     80 O1    s      -0.000252      0.000025     -0.000034      0.000000
     81 O1    s       0.000469      0.000232      0.000702      0.000000
     82 O3    s      -0.000816     -0.000088      0.000749      0.000000
     83 O1    s       0.004058      0.000049      0.001682      0.000000
     84 O1    s      -0.001274     -0.000286      0.000980      0.000000
     85 O3    s       0.002004     -0.000341     -0.000003      0.000000
     86 O3    s      -0.002043      0.000264      0.000609      0.000000
     87 O1    s      -0.001765     -0.001500      0.000718      0.000000
     88 O3    s       0.002644      0.000388      0.000912      0.000000
     89 O1    s      -0.000581      0.000136     -0.000353      0.000000
     90 O3    s       0.000181     -0.000090     -0.000123      0.000000
     91 O1    s       0.000021     -0.000299     -0.000198      0.000000
     92 O3    s       0.000168      0.000310     -0.000048      0.000000
     93 O3    s       0.000490      0.000545      0.000301      0.000000
     94 O1    s       0.000647     -0.001148      0.000234      0.000000
     95 O1    s       0.000738      0.000151      0.001175      0.000000
     96 O3    s       0.002595     -0.000294      0.001432      0.000000
     97 O1    s       0.000180     -0.000020     -0.000192      0.000000
     98 O1    s      -0.000174     -0.000000     -0.000042      0.000000
     99 O1    s      -0.001393      0.000399      0.000419      0.000000
    100 O1    s       0.000963     -0.000153      0.000171      0.000000
    101 O1    s       0.000640      0.000018      0.000029      0.000000
    102 O1    s      -0.000302      0.000044     -0.000114      0.000000
    103 O1    s      -0.000368      0.000885     -0.000203      0.000000
    104 O1    s       0.000204     -0.001254     -0.000054      0.000000
    105 O1    s      -0.000418      0.000127      0.000191      0.000000
    106 O1    s      -0.000371     -0.000095      0.000310      0.000000
    107 O1    s       0.000459      0.000474     -0.000849      0.000000
    108 O3    s      -0.000691      0.000401     -0.000904      0.000000
    109 O3    s       0.003295     -0.001036     -0.001113      0.000000
    110 O1    s      -0.000452     -0.000196     -0.000447      0.000000
    111 O1    s      -0.000240     -0.000110     -0.000152      0.000000
    112 O1    s      -0.000096      0.000037     -0.000079      0.000000
    113 O3    s       0.000651     -0.000272     -0.000096      0.000000
    114 O3    s      -0.000237     -0.001044     -0.000971      0.000000
    115 O1    s       0.000065      0.000166      0.000017      0.000000
    116 O1    s      -0.000145      0.000145      0.000335      0.000000
    117 O1    s       0.000564      0.000526     -0.000262      0.000000
    118 O2    s      -0.001523      0.000123      0.000930      0.000000
    119 O1    s      -0.000381      0.000243     -0.000167      0.000000
    120 O1    s       0.000142     -0.000240     -0.000040      0.000000
--------------------------------------------------------------------------------
  Maximum abs         0.008325      0.005245      0.003898      0.000000
--------------------------------------------------------------------------------


  Born effective charge tensors : 

-------------------------------------------------------------------------------
  Atom             x           y             z
-------------------------------------------------------------------------------
    1 Ge    x       4.1423      0.2535     -0.4030
            y      -0.1736      3.9126     -0.1039
            z      -0.1945     -0.0106      4.5629
-------------------------------------------------------------------------------
    2 Ge    x       4.1409      0.2729      0.4223
            y      -0.1438      3.9165      0.0603
            z       0.1341      0.0384      4.4332
-------------------------------------------------------------------------------
    3 Ge    x       4.1219      0.2593      0.0513
            y      -0.0913      3.9193     -0.0108
            z      -0.8485     -0.1862      4.1856
-------------------------------------------------------------------------------
    4 Ge    x       4.1359      0.3049     -0.3850
            y      -0.1457      4.0053     -0.0042
            z      -0.3239     -0.0405      4.0463
-------------------------------------------------------------------------------
    5 Ge    x       4.1815      0.0839      0.4052
            y      -0.1474      3.9599      0.0934
            z       0.3635     -0.0662      3.9327
-------------------------------------------------------------------------------
    6 Ge    x       4.2467      0.1546      0.1053
            y      -0.1002      3.9422     -0.0130
            z      -0.5980     -0.1488      3.6370
-------------------------------------------------------------------------------
    7 Ge    x       3.9745      0.0634     -0.1836
            y       0.4678      4.1830     -0.0779
            z      -0.0724     -0.2282      3.6122
-------------------------------------------------------------------------------
    8 Ge    x       3.9913      0.0750      0.2055
            y       0.4666      4.1857      0.0797
            z       0.1075      0.2046      3.6316
-------------------------------------------------------------------------------
    9 Ge    x       4.0213     -0.2761     -0.2826
            y      -0.2636      4.1795      0.0873
            z       0.0058      0.1406      3.5577
-------------------------------------------------------------------------------
   10 Ge    x       3.9374     -0.1842      0.3088
            y      -0.2070      4.1361     -0.0721
            z       0.0167     -0.1202      3.4559
-------------------------------------------------------------------------------
   11 Ge    x       3.9339      0.0976     -0.2795
            y       0.4427      4.2016     -0.1088
            z      -0.0959     -0.1635      3.5063
-------------------------------------------------------------------------------
   12 Ge    x       3.8207      0.0665      0.1973
            y       0.4013      4.2694      0.1084
            z      -0.0107      0.1644      3.4974
-------------------------------------------------------------------------------
   13 Ge    x       4.0050     -0.2303     -0.2582
            y      -0.2247      4.1999      0.0675
            z       0.0271      0.1960      3.6189
-------------------------------------------------------------------------------
   14 Ge    x       4.0357     -0.2547      0.2485
            y      -0.2273      4.2153     -0.0797
            z       0.0023     -0.2356      3.6234
-------------------------------------------------------------------------------
   15 Ge    x       3.9875      0.1194     -0.2228
            y       0.4314      4.2010     -0.1630
            z      -0.0925     -0.2571      3.4426
-------------------------------------------------------------------------------
   16 Ge    x       4.1554     -0.2682     -0.3469
            y      -0.2998      4.1517      0.0501
            z      -0.0615      0.1337      3.4735
-------------------------------------------------------------------------------
   17 Ge    x       4.0920     -0.2259      0.2888
            y      -0.2434      4.1553     -0.0087
            z      -0.0156     -0.1001      3.4001
-------------------------------------------------------------------------------
   18 Ge    x       4.0859      0.0875     -0.3068
            y       0.4216      4.1991     -0.1098
            z      -0.0960     -0.1928      3.4617
-------------------------------------------------------------------------------
   19 Ge    x       3.9659      0.0418      0.2265
            y       0.3940      4.2432      0.0590
            z       0.0122      0.1619      3.3600
-------------------------------------------------------------------------------
   20 Ge    x       4.0149     -0.2761      0.2892
            y      -0.2740      4.1725     -0.1595
            z       0.0220     -0.1995      3.4469
-------------------------------------------------------------------------------
   21 Si    x       3.7498      0.2032     -0.0638
            y      -0.0762      3.7061     -0.0269
            z       0.7933      0.0990      3.9487
-------------------------------------------------------------------------------
   22 Si    x       3.9593      0.1695     -0.0693
            y      -0.1109      3.7000     -0.0328
            z       0.6155      0.1117      3.3704
-------------------------------------------------------------------------------
   23 Si    x       3.4919      0.2553      0.3292
            y       0.4564      3.8391      0.0666
            z       0.1044      0.1790      3.2171
-------------------------------------------------------------------------------
   24 Si    x       3.3580     -0.3149     -0.2960
            y      -0.1755      3.9078      0.0504
            z       0.0057      0.1961      3.2385
-------------------------------------------------------------------------------
   25 O1    x      -1.9451     -0.8334      0.5081
            y      -0.7741     -2.5377      0.5470
            z       0.4600      0.5456     -1.6655
-------------------------------------------------------------------------------
   26 O1    x      -1.9803     -0.8586     -0.5289
            y      -0.7937     -2.5430     -0.5199
            z      -0.4789     -0.5321     -1.6578
-------------------------------------------------------------------------------
   27 O1    x      -2.1796      0.8992      0.2923
            y       0.9502     -2.2803     -0.3639
            z       0.3634     -0.3503     -1.6354
-------------------------------------------------------------------------------
   28 O3    x      -2.0335      0.8694     -0.2457
            y       0.8942     -2.1781      0.2795
            z      -0.3221      0.2914     -1.5118
-------------------------------------------------------------------------------
   29 O1    x      -2.0040     -0.9124      0.3547
            y      -0.8555     -2.4976      0.3008
            z       0.4420      0.3396     -1.6203
-------------------------------------------------------------------------------
   30 O3    x      -1.7459     -0.8197     -0.2625
            y      -0.7830     -2.5082     -0.2622
            z      -0.3368     -0.2797     -1.4657
-------------------------------------------------------------------------------
   31 O1    x      -2.1831      0.8870      0.4942
            y       0.9260     -2.2947     -0.4946
            z       0.4500     -0.5323     -1.6762
-------------------------------------------------------------------------------
   32 O1    x      -2.2451      0.9239     -0.5512
            y       0.9503     -2.3117      0.5172
            z      -0.5147      0.5649     -1.6843
-------------------------------------------------------------------------------
   33 O1    x      -2.0509     -0.2301      0.9499
            y      -0.0851     -1.2668      0.1400
            z       1.2029      0.2623     -3.1754
-------------------------------------------------------------------------------
   34 O3    x      -1.9558     -0.2330     -0.9125
            y      -0.0928     -1.2184     -0.1535
            z      -1.0926     -0.2809     -2.8929
-------------------------------------------------------------------------------
   35 O1    x      -2.1253     -0.2023     -0.8630
            y      -0.1174     -1.3250     -0.1155
            z      -0.8975     -0.1080     -2.8121
-------------------------------------------------------------------------------
   36 O1    x      -2.0592     -0.2542      0.8244
            y      -0.1225     -1.3148      0.1891
            z       0.8720      0.2576     -2.8495
-------------------------------------------------------------------------------
   37 O3    x      -2.0536     -0.2156     -0.8443
            y      -0.0938     -1.2747     -0.1501
            z      -0.7969     -0.1958     -2.4025
-------------------------------------------------------------------------------
   38 O3    x      -1.9162     -0.1771      0.7511
            y      -0.0768     -1.2833      0.1694
            z       0.7280      0.2264     -2.5286
-------------------------------------------------------------------------------
   39 O1    x      -1.9222     -0.8243      0.5100
            y      -0.7375     -2.7094      0.5347
            z       0.4565      0.5363     -1.5547
-------------------------------------------------------------------------------
   40 O3    x      -1.9641     -0.9059     -0.5862
            y      -0.8393     -2.3754     -0.6096
            z      -0.4896     -0.5687     -1.5095
-------------------------------------------------------------------------------
   41 O1    x      -2.2581      0.9288      0.3305
            y       0.9606     -2.2908     -0.3405
            z       0.3982     -0.3690     -1.5061
-------------------------------------------------------------------------------
   42 O3    x      -2.1350      0.8990     -0.2275
            y       0.9153     -2.2137      0.2509
            z      -0.2840      0.2606     -1.3400
-------------------------------------------------------------------------------
   43 O1    x      -2.0803     -0.8989      0.3835
            y      -0.8556     -2.5023      0.3107
            z       0.4275      0.3510     -1.4827
-------------------------------------------------------------------------------
   44 O3    x      -1.8810     -0.8374     -0.2346
            y      -0.7744     -2.4770     -0.1716
            z      -0.2890     -0.2121     -1.3111
-------------------------------------------------------------------------------
   45 O3    x      -1.9643      0.8251      0.5184
            y       0.8320     -2.3015     -0.5957
            z       0.4417     -0.5848     -1.5230
-------------------------------------------------------------------------------
   46 O1    x      -2.1030      0.9069     -0.4785
            y       0.9470     -2.4565      0.5224
            z      -0.4047      0.4962     -1.5879
-------------------------------------------------------------------------------
   47 O1    x      -2.1894     -0.2239     -0.7412
            y      -0.1064     -1.3710     -0.1678
            z      -0.5154     -0.1536     -2.3143
-------------------------------------------------------------------------------
   48 O3    x      -1.9804     -0.1688      0.6841
            y      -0.0965     -1.2981      0.1306
            z       0.4642      0.1131     -2.2126
-------------------------------------------------------------------------------
   49 O1    x      -1.3617     -0.2091      0.0613
            y      -0.3259     -3.1320     -0.0284
            z       0.0160     -0.0186     -1.4195
-------------------------------------------------------------------------------
   50 O1    x      -1.3738     -0.2087     -0.0712
            y      -0.3280     -3.1548      0.0239
            z      -0.0345      0.0129     -1.4000
-------------------------------------------------------------------------------
   51 O1    x      -1.3286     -0.1471      0.0802
            y      -0.2609     -3.1936      0.0206
            z       0.0229     -0.0226     -1.3914
-------------------------------------------------------------------------------
   52 O1    x      -1.3275     -0.1874     -0.0936
            y      -0.2899     -3.2438      0.0273
            z      -0.0378      0.0023     -1.3999
-------------------------------------------------------------------------------
   53 O1    x      -3.0700      0.2864      0.0395
            y       0.2039     -1.5795      0.0110
            z       0.0309      0.0529     -1.2269
-------------------------------------------------------------------------------
   54 O1    x      -3.0744      0.2745      0.0579
            y       0.1971     -1.5708     -0.0236
            z       0.0249     -0.0594     -1.2285
-------------------------------------------------------------------------------
   55 O1    x      -3.0746      0.2465     -0.0254
            y       0.1352     -1.5657     -0.0145
            z      -0.0497     -0.0371     -1.2027
-------------------------------------------------------------------------------
   56 O1    x      -3.0510      0.2465     -0.0034
            y       0.1828     -1.5537      0.0493
            z       0.0075      0.0717     -1.2423
-------------------------------------------------------------------------------
   57 O1    x      -1.4495     -0.0095     -0.0847
            y      -0.0839     -1.4439     -0.0029
            z      -0.0622      0.0031     -2.7369
-------------------------------------------------------------------------------
   58 O1    x      -1.4758     -0.0135     -0.0122
            y      -0.0813     -1.4298      0.0181
            z      -0.0244      0.0288     -2.7523
-------------------------------------------------------------------------------
   59 O1    x      -1.4882      0.1372     -0.0185
            y       0.1433     -1.4594     -0.1017
            z      -0.0315     -0.0657     -2.6549
-------------------------------------------------------------------------------
   60 O3    x      -1.4243      0.1048     -0.1609
            y       0.1130     -1.3342      0.0531
            z      -0.1049      0.0102     -2.5658
-------------------------------------------------------------------------------
   61 O3    x      -1.4120     -0.0247      0.1277
            y      -0.0792     -1.3425     -0.0232
            z       0.0816     -0.0320     -2.5506
-------------------------------------------------------------------------------
   62 O1    x      -1.4519     -0.0450      0.0056
            y      -0.1125     -1.4531     -0.1212
            z       0.0237     -0.0899     -2.6952
-------------------------------------------------------------------------------
   63 O1    x      -1.4930      0.1055     -0.1135
            y       0.1145     -1.4295      0.0495
            z      -0.1053      0.0310     -2.7318
-------------------------------------------------------------------------------
   64 O1    x      -1.5138      0.1048      0.0023
            y       0.1100     -1.4232     -0.0009
            z       0.0284      0.0208     -2.7328
-------------------------------------------------------------------------------
   65 O3    x      -1.3492     -0.2414      0.1409
            y      -0.3250     -2.9508      0.1457
            z       0.0948      0.1527     -1.2658
-------------------------------------------------------------------------------
   66 O3    x      -1.3004     -0.0941     -0.0946
            y      -0.1839     -3.0284      0.1965
            z      -0.0366      0.1686     -1.2449
-------------------------------------------------------------------------------
   67 O1    x      -1.3996     -0.1874      0.0833
            y      -0.2621     -3.1476      0.0026
            z       0.0253     -0.0132     -1.3497
-------------------------------------------------------------------------------
   68 O1    x      -1.3944     -0.1704     -0.1036
            y      -0.2645     -3.2121     -0.0013
            z      -0.0375      0.0191     -1.3478
-------------------------------------------------------------------------------
   69 O1    x      -3.1116      0.2598     -0.0173
            y       0.1631     -1.5760      0.0337
            z       0.0068      0.0559     -1.1764
-------------------------------------------------------------------------------
   70 O2    x      -2.3697      0.1860     -0.0016
            y       0.1316     -1.2984     -0.0054
            z      -0.0148     -0.0348     -1.0546
-------------------------------------------------------------------------------
   71 O1    x      -3.1455      0.2767      0.0317
            y       0.1453     -1.5648     -0.0124
            z       0.0090     -0.0452     -1.1828
-------------------------------------------------------------------------------
   72 O1    x      -3.1535      0.2881      0.0645
            y       0.2085     -1.5848      0.0053
            z       0.0827      0.0344     -1.1874
-------------------------------------------------------------------------------




  Elastic Constant Matrix: (Units=GPa)

-------------------------------------------------------------------------------
  Indices      1         2         3         4         5         6    
-------------------------------------------------------------------------------
       1     26.3028   10.4635    8.8895   -0.3105   -0.2063    7.6781
       2     10.4635   31.0538    5.5606    0.7591    0.2322    7.9556
       3      8.8895    5.5606   16.7934    0.3571   -0.5084    2.1264
       4     -0.3105    0.7591    0.3571    7.7161    2.1195   -0.0298
       5     -0.2063    0.2322   -0.5084    2.1195   14.7836   -0.2199
       6      7.6781    7.9556    2.1264   -0.0298   -0.2199   20.2156
-------------------------------------------------------------------------------


  Elastic Compliance Matrix: (Units=1/GPa)

-------------------------------------------------------------------------------
  Indices      1         2         3         4         5         6    
-------------------------------------------------------------------------------
       1    0.054344 -0.010606 -0.023602  0.004470 -0.000736 -0.013986
       2   -0.010606  0.039787 -0.006101 -0.003941 -0.000581 -0.011000
       3   -0.023602 -0.006101  0.073790 -0.004578  0.003014  0.003630
       4    0.004470 -0.003941 -0.004578  0.135733 -0.019488  0.000323
       5   -0.000736 -0.000581  0.003014 -0.019488  0.070553  0.000930
       6   -0.013986 -0.011000  0.003630  0.000323  0.000930  0.058736
-------------------------------------------------------------------------------

  Mechanical properties :

-------------------------------------------------------------------------------
  Convention :                    Reuss         Voigt         Hill
-------------------------------------------------------------------------------
  Bulk  Modulus (GPa)     =      11.45421      13.77525      12.61473
  Shear Modulus (GPa)     =       9.21384      11.82548      10.51966
-------------------------------------------------------------------------------
  Velocity S-wave (km/s)  =       1.83665       2.08073       1.96249
  Velocity P-wave (km/s)  =       2.94809       3.28875       3.12307
-------------------------------------------------------------------------------
  Compressibility (1/GPa) =    0.08730413
-------------------------------------------------------------------------------
  Stress axis :                     x             y             z
-------------------------------------------------------------------------------
  Youngs Moduli (GPa)     =      18.40123      25.13386      13.55195
-------------------------------------------------------------------------------
  Poissons Ratio (x)      =                     0.26656       0.31985
  Poissons Ratio (y)      =       0.19516                     0.08268
  Poissons Ratio (z)      =       0.43430       0.15334
-------------------------------------------------------------------------------


  Piezoelectric Strain Matrix: (Units=C/m**2)

-------------------------------------------------------------------------------
  Indices      1         2         3         4         5         6    
-------------------------------------------------------------------------------
       x     0.05362   0.13636   0.23750   0.08152  -0.51133  -0.18952
       y    -0.27029   0.08274   0.04708  -0.97890  -0.33606  -0.03972
       z    -0.27262   0.45960   1.06904   0.12311   0.05899  -0.09794
-------------------------------------------------------------------------------


  Piezoelectric Stress Matrix: (Units=10**-11 C/N)

-------------------------------------------------------------------------------
  Indices      1         2         3         4         5         6    
-------------------------------------------------------------------------------
       x    -0.07463   0.54682   1.28254   1.95834  -3.72433  -1.29688
       y    -2.02508   1.03616   1.26732 -12.80820  -0.43770   0.00796
       z    -4.30443   1.52128   8.17738   0.76043   0.48279  -0.30205
-------------------------------------------------------------------------------


  Static dielectric constant tensor : 

-------------------------------------------------------------------------------
              x         y         z
-------------------------------------------------------------------------------
       x     5.23133  -0.01525  -0.05215
       y    -0.01525   6.34140  -0.03604
       z    -0.05215  -0.03604   4.11792
--------------------------------------------------------------------------------

  High frequency dielectric constant tensor : 

-------------------------------------------------------------------------------
              x         y         z
-------------------------------------------------------------------------------
       x     1.54590   0.00255   0.00134
       y     0.00255   1.55359  -0.00025
       z     0.00134  -0.00025   1.50704
-------------------------------------------------------------------------------

  Static refractive indices : 

-------------------------------------------------------------------------------
    1 =    2.02852      2 =    2.28771      3 =    2.51837
-------------------------------------------------------------------------------

  High frequency refractive indices : 

-------------------------------------------------------------------------------
    1 =    1.22760      2 =    1.24305      3 =    1.24674
-------------------------------------------------------------------------------


  Time to end of optimisation =       7.8820 seconds


  Peak dynamic memory used =       5.01 MB 


  Timing analysis for GULP :

--------------------------------------------------------------------------------
  Task / Subroutine                                          Time (Seconds)
--------------------------------------------------------------------------------
  Calculation of reciprocal space energy and derivatives          0.5320
  Calculation of real space energy and derivatives                5.3635
  Calculation of three-body energy and derivatives                0.0732
  Calculation and manipulation of Hessian matrix                  2.3804
  Calculation of matrix inversion                                 0.0197
--------------------------------------------------------------------------------
  Total CPU time                                                  7.8820
--------------------------------------------------------------------------------


  Dump file written as c00944.vasp.grs
  CIF file written as c00944.vasp.cif


  Job Finished at 14:41.18 31st October    2025                               

