********************************************************************************
*                       GENERAL UTILITY LATTICE PROGRAM                        *
*                                 Julian Gale                                  *
*                       Curtin Institute for Computation                       *
*                    School of Molecular and Life Sciences                     *
*                    Curtin University, Western Australia                      *
********************************************************************************
* Version = 6.1.2 * Last modified =   3rd November 2022                        *
********************************************************************************
*  optimise     - perform optimisation run                                     *
*  conp         - constant pressure calculation                                *
*  property     - calculate properties for final geometry                      *
********************************************************************************

  Job Started  at 14:58.35 31st October    2025                               

  Number of CPUs =     1


  Total number of configurations input =      1

********************************************************************************
*  Input for Configuration =   1 : c01057.vasp                                 *
********************************************************************************

  Formula = Ge20Si4O48                                                  

  Number of irreducible atoms/shells =     120


  Total number atoms/shells =     120

  Dimensionality = 3               :  Bulk   



  Cartesian lattice vectors (Angstroms) :

       17.182800    0.000000    0.000000
        0.000000    7.513760    0.000000
        0.000000    0.000000   10.447700

  Cell parameters (Angstroms/Degrees):

  a =      17.1828    alpha =  90.0000
  b =       7.5138    beta  =  90.0000
  c =      10.4477    gamma =  90.0000

  Initial cell volume =        1348.875752 Angs**3

  Temperature of configuration =   0.00     K 

  Pressure of configuration =         0.000 GPa 

  Fractional coordinates of asymmetric unit :

--------------------------------------------------------------------------------
   No.  Atomic       x           y          z         Charge      Occupancy
        Label      (Frac)      (Frac)     (Frac)        (e)         (Frac)  
--------------------------------------------------------------------------------
      1 Ge    c    0.052090    0.000000    0.372270     4.00000    1.000000    
      2 Ge    c    0.447910 *  0.000000 *  0.372270 *   4.00000    1.000000    
      3 Ge    c    0.947910 *  0.000000 *  0.627730 *   4.00000    1.000000    
      4 Ge    c    0.556730 *  0.000000 *  0.122130 *   4.00000    1.000000    
      5 Ge    c    0.943270 *  0.000000 *  0.122130 *   4.00000    1.000000    
      6 Ge    c    0.056730 *  0.000000 *  0.877870 *   4.00000    1.000000    
      7 Ge    c    0.339810 *  0.706090 *  0.273440 *   4.00000    1.000000    
      8 Ge    c    0.839810 *  0.293910 *  0.726560 *   4.00000    1.000000    
      9 Ge    c    0.660190 *  0.706090 *  0.726560 *   4.00000    1.000000    
     10 Ge    c    0.839810 *  0.706090 *  0.726560 *   4.00000    1.000000    
     11 Ge    c    0.660190 *  0.293910 *  0.726560 *   4.00000    1.000000    
     12 Ge    c    0.339810 *  0.293910 *  0.273440 *   4.00000    1.000000    
     13 Ge    c    0.660660 *  0.294090 *  0.017440 *   4.00000    1.000000    
     14 Ge    c    0.839340 *  0.705910 *  0.017440 *   4.00000    1.000000    
     15 Ge    c    0.339340 *  0.294090 *  0.982560 *   4.00000    1.000000    
     16 Ge    c    0.160660 *  0.705910 *  0.982560 *   4.00000    1.000000    
     17 Ge    c    0.339340 *  0.705910 *  0.982560 *   4.00000    1.000000    
     18 Ge    c    0.160660 *  0.294090 *  0.982560 *   4.00000    1.000000    
     19 Ge    c    0.660660 *  0.705910 *  0.017440 *   4.00000    1.000000    
     20 Ge    c    0.839340 *  0.294090 *  0.017440 *   4.00000    1.000000    
     21 Si    c    0.552090 *  0.000000 *  0.627730 *   4.00000    1.000000    
     22 Si    c    0.443270 *  0.000000 *  0.877870 *   4.00000    1.000000    
     23 Si    c    0.160190 *  0.293910 *  0.273440 *   4.00000    1.000000    
     24 Si    c    0.160190 *  0.706090 *  0.273440 *   4.00000    1.000000    
     25 O3    c    0.106570 *  0.174340 *  0.366200 *   1.33043    1.000000    
     26 O1    c    0.393430 *  0.825660 *  0.366200 *   1.73396    1.000000    
     27 O1    c    0.893430 *  0.174340 *  0.633800 *   1.73396    1.000000    
     28 O3    c    0.606570 *  0.825660 *  0.633800 *   1.33043    1.000000    
     29 O1    c    0.893430 *  0.825660 *  0.633800 *   1.73396    1.000000    
     30 O3    c    0.606570 *  0.174340 *  0.633800 *   1.33043    1.000000    
     31 O3    c    0.106570 *  0.825660 *  0.366200 *   1.33043    1.000000    
     32 O1    c    0.393430 *  0.174340 *  0.366200 *   1.73396    1.000000    
     33 O1    c    0.000000 *  0.000000 *  0.500000 *   1.73396    1.000000    
     34 O3    c    0.500000 *  0.000000 *  0.500000 *   1.33043    1.000000    
     35 O1    c    0.994520 *  0.000000 *  0.250840 *   1.73396    1.000000    
     36 O1    c    0.505480 *  0.000000 *  0.250840 *   1.73396    1.000000    
     37 O1    c    0.005480 *  0.000000 *  0.749160 *   1.73396    1.000000    
     38 O2    c    0.494520 *  0.000000 *  0.749160 *   0.87073    1.000000    
     39 O1    c    0.610230 *  0.175520 *  0.115390 *   1.73396    1.000000    
     40 O1    c    0.889770 *  0.824480 *  0.115390 *   1.73396    1.000000    
     41 O3    c    0.389770 *  0.175520 *  0.884610 *   1.33043    1.000000    
     42 O1    c    0.110230 *  0.824480 *  0.884610 *   1.73396    1.000000    
     43 O3    c    0.389770 *  0.824480 *  0.884610 *   1.33043    1.000000    
     44 O1    c    0.110230 *  0.175520 *  0.884610 *   1.73396    1.000000    
     45 O1    c    0.610230 *  0.824480 *  0.115390 *   1.73396    1.000000    
     46 O1    c    0.889770 *  0.175520 *  0.115390 *   1.73396    1.000000    
     47 O3    c    0.500000 *  0.000000 *  0.000000 *   1.33043    1.000000    
     48 O1    c    0.000000 *  0.000000 *  0.000000 *   1.73396    1.000000    
     49 O2    c    0.151750 *  0.500000 *  0.313330 *   0.87073    1.000000    
     50 O1    c    0.348250 *  0.500000 *  0.313330 *   1.73396    1.000000    
     51 O1    c    0.848250 *  0.500000 *  0.686670 *   1.73396    1.000000    
     52 O1    c    0.651750 *  0.500000 *  0.686670 *   1.73396    1.000000    
     53 O3    c    0.250000 *  0.234950 *  0.285720 *   1.33043    1.000000    
     54 O3    c    0.250000 *  0.765050 *  0.285720 *   1.33043    1.000000    
     55 O1    c    0.750000 *  0.234950 *  0.714280 *   1.73396    1.000000    
     56 O1    c    0.750000 *  0.765050 *  0.714280 *   1.73396    1.000000    
     57 O3    c    0.131410 *  0.268650 *  0.127790 *   1.33043    1.000000    
     58 O1    c    0.368590 *  0.731350 *  0.127790 *   1.73396    1.000000    
     59 O1    c    0.868590 *  0.268650 *  0.872210 *   1.73396    1.000000    
     60 O1    c    0.631410 *  0.731350 *  0.872210 *   1.73396    1.000000    
     61 O1    c    0.868590 *  0.731350 *  0.872210 *   1.73396    1.000000    
     62 O1    c    0.631410 *  0.268650 *  0.872210 *   1.73396    1.000000    
     63 O3    c    0.131410 *  0.731350 *  0.127790 *   1.33043    1.000000    
     64 O1    c    0.368590 *  0.268650 *  0.127790 *   1.73396    1.000000    
     65 O1    c    0.653920 *  0.500000 *  0.058200 *   1.73396    1.000000    
     66 O1    c    0.846080 *  0.500000 *  0.058200 *   1.73396    1.000000    
     67 O1    c    0.346080 *  0.500000 *  0.941800 *   1.73396    1.000000    
     68 O1    c    0.153920 *  0.500000 *  0.941800 *   1.73396    1.000000    
     69 O1    c    0.750000 *  0.231060 *  0.027050 *   1.73396    1.000000    
     70 O1    c    0.750000 *  0.768940 *  0.027050 *   1.73396    1.000000    
     71 O1    c    0.250000 *  0.231060 *  0.972950 *   1.73396    1.000000    
     72 O1    c    0.250000 *  0.768940 *  0.972950 *   1.73396    1.000000    
     73 O3    s    0.106570 *  0.174340 *  0.366200 *  -3.33043    1.000000    
     74 O1    s    0.393430 *  0.825660 *  0.366200 *  -3.73396    1.000000    
     75 O1    s    0.893430 *  0.174340 *  0.633800 *  -3.73396    1.000000    
     76 O3    s    0.606570 *  0.825660 *  0.633800 *  -3.33043    1.000000    
     77 O1    s    0.893430 *  0.825660 *  0.633800 *  -3.73396    1.000000    
     78 O3    s    0.606570 *  0.174340 *  0.633800 *  -3.33043    1.000000    
     79 O3    s    0.106570 *  0.825660 *  0.366200 *  -3.33043    1.000000    
     80 O1    s    0.393430 *  0.174340 *  0.366200 *  -3.73396    1.000000    
     81 O1    s    0.000000 *  0.000000 *  0.500000 *  -3.73396    1.000000    
     82 O3    s    0.500000 *  0.000000 *  0.500000 *  -3.33043    1.000000    
     83 O1    s    0.994520 *  0.000000 *  0.250840 *  -3.73396    1.000000    
     84 O1    s    0.505480 *  0.000000 *  0.250840 *  -3.73396    1.000000    
     85 O1    s    0.005480 *  0.000000 *  0.749160 *  -3.73396    1.000000    
     86 O2    s    0.494520 *  0.000000 *  0.749160 *  -2.87073    1.000000    
     87 O1    s    0.610230 *  0.175520 *  0.115390 *  -3.73396    1.000000    
     88 O1    s    0.889770 *  0.824480 *  0.115390 *  -3.73396    1.000000    
     89 O3    s    0.389770 *  0.175520 *  0.884610 *  -3.33043    1.000000    
     90 O1    s    0.110230 *  0.824480 *  0.884610 *  -3.73396    1.000000    
     91 O3    s    0.389770 *  0.824480 *  0.884610 *  -3.33043    1.000000    
     92 O1    s    0.110230 *  0.175520 *  0.884610 *  -3.73396    1.000000    
     93 O1    s    0.610230 *  0.824480 *  0.115390 *  -3.73396    1.000000    
     94 O1    s    0.889770 *  0.175520 *  0.115390 *  -3.73396    1.000000    
     95 O3    s    0.500000 *  0.000000 *  0.000000 *  -3.33043    1.000000    
     96 O1    s    0.000000 *  0.000000 *  0.000000 *  -3.73396    1.000000    
     97 O2    s    0.151750 *  0.500000 *  0.313330 *  -2.87073    1.000000    
     98 O1    s    0.348250 *  0.500000 *  0.313330 *  -3.73396    1.000000    
     99 O1    s    0.848250 *  0.500000 *  0.686670 *  -3.73396    1.000000    
    100 O1    s    0.651750 *  0.500000 *  0.686670 *  -3.73396    1.000000    
    101 O3    s    0.250000 *  0.234950 *  0.285720 *  -3.33043    1.000000    
    102 O3    s    0.250000 *  0.765050 *  0.285720 *  -3.33043    1.000000    
    103 O1    s    0.750000 *  0.234950 *  0.714280 *  -3.73396    1.000000    
    104 O1    s    0.750000 *  0.765050 *  0.714280 *  -3.73396    1.000000    
    105 O3    s    0.131410 *  0.268650 *  0.127790 *  -3.33043    1.000000    
    106 O1    s    0.368590 *  0.731350 *  0.127790 *  -3.73396    1.000000    
    107 O1    s    0.868590 *  0.268650 *  0.872210 *  -3.73396    1.000000    
    108 O1    s    0.631410 *  0.731350 *  0.872210 *  -3.73396    1.000000    
    109 O1    s    0.868590 *  0.731350 *  0.872210 *  -3.73396    1.000000    
    110 O1    s    0.631410 *  0.268650 *  0.872210 *  -3.73396    1.000000    
    111 O3    s    0.131410 *  0.731350 *  0.127790 *  -3.33043    1.000000    
    112 O1    s    0.368590 *  0.268650 *  0.127790 *  -3.73396    1.000000    
    113 O1    s    0.653920 *  0.500000 *  0.058200 *  -3.73396    1.000000    
    114 O1    s    0.846080 *  0.500000 *  0.058200 *  -3.73396    1.000000    
    115 O1    s    0.346080 *  0.500000 *  0.941800 *  -3.73396    1.000000    
    116 O1    s    0.153920 *  0.500000 *  0.941800 *  -3.73396    1.000000    
    117 O1    s    0.750000 *  0.231060 *  0.027050 *  -3.73396    1.000000    
    118 O1    s    0.750000 *  0.768940 *  0.027050 *  -3.73396    1.000000    
    119 O1    s    0.250000 *  0.231060 *  0.972950 *  -3.73396    1.000000    
    120 O1    s    0.250000 *  0.768940 *  0.972950 *  -3.73396    1.000000    
--------------------------------------------------------------------------------



********************************************************************************
*  General input information                                                   *
********************************************************************************

  Species output for all configurations : 

--------------------------------------------------------------------------------
  Species    Type    Atomic    Atomic    Charge       Radii (Angs)     Library
                     Number     Mass       (e)     Cova   Ionic  VDW   Symbol
--------------------------------------------------------------------------------
    Ge       Core       32      72.61   4.000000   1.170  0.000  1.750 Ge       
    Si       Core       14      28.09   4.000000   1.200  0.000  2.100 Si       
    O1       Core        8      16.00   1.733957   0.730  0.000  1.360 O1       
    O2       Core        8      16.00   0.870733   0.730  0.000  1.360 O2       
    O3       Core        8      16.00   1.330431   0.730  0.000  1.360 O3       
    O1       Shell       8       0.00  -3.733957   0.730  0.000  0.000 O1       
    O2       Shell       8       0.00  -2.870733   0.730  0.000  0.000 O2       
    O3       Shell       8       0.00  -3.330431   0.730  0.000  0.000 O3       
--------------------------------------------------------------------------------


  Lattice summation method               =    Ewald          (3-D)
                                         =    Parry          (2-D)
                                         =    Saunders et al (1-D)
  Accuracy factor for lattice sums       =   12.000


  Analytic derivatives to be used

  Time limit = Infinity

  Maximum range for interatomic potentials =    100000.000000 Angstroms

  General interatomic potentials :

--------------------------------------------------------------------------------
Atom  Types   Potential      Parameter       Value         Units   Cutoffs(Ang)
  1     2                                                            Min /  Max 
--------------------------------------------------------------------------------
Si   c O1   s Buckingham    Buckingham A     1315.2478    eV        0.000 16.000
                            Buckingham rho  0.31775900    Ang       
                            Buckingham C     10.141118    eV*Ang^6  
--------------------------------------------------------------------------------
Si   c O2   s Buckingham    Buckingham A     1315.2478    eV        0.000 16.000
                            Buckingham rho  0.31775900    Ang       
                            Buckingham C     10.141118    eV*Ang^6  
--------------------------------------------------------------------------------
Si   c O3   s Buckingham    Buckingham A     1315.2478    eV        0.000 16.000
                            Buckingham rho  0.31775900    Ang       
                            Buckingham C     10.141118    eV*Ang^6  
--------------------------------------------------------------------------------
Ge   c O1   s Buckingham    Buckingham A     1497.3996    eV        0.000 16.000
                            Buckingham rho  0.32564600    Ang       
                            Buckingham C     16.808599    eV*Ang^6  
--------------------------------------------------------------------------------
Ge   c O2   s Buckingham    Buckingham A     1497.3996    eV        0.000 16.000
                            Buckingham rho  0.32564600    Ang       
                            Buckingham C     16.808599    eV*Ang^6  
--------------------------------------------------------------------------------
Ge   c O3   s Buckingham    Buckingham A     1497.3996    eV        0.000 16.000
                            Buckingham rho  0.32564600    Ang       
                            Buckingham C     16.808599    eV*Ang^6  
--------------------------------------------------------------------------------
O1   s O1   s Buckingham    Buckingham A     22764.000    eV        0.000 16.000
                            Buckingham rho  0.14900000    Ang       
                            Buckingham C     10.937044    eV*Ang^6  
--------------------------------------------------------------------------------
O1   s O2   s Buckingham    Buckingham A     22764.000    eV        0.000 16.000
                            Buckingham rho  0.14900000    Ang       
                            Buckingham C     10.937044    eV*Ang^6  
--------------------------------------------------------------------------------
O1   s O3   s Buckingham    Buckingham A     22764.000    eV        0.000 16.000
                            Buckingham rho  0.14900000    Ang       
                            Buckingham C     10.937044    eV*Ang^6  
--------------------------------------------------------------------------------
O2   s O2   s Buckingham    Buckingham A     22764.000    eV        0.000 16.000
                            Buckingham rho  0.14900000    Ang       
                            Buckingham C     10.937044    eV*Ang^6  
--------------------------------------------------------------------------------
O2   s O3   s Buckingham    Buckingham A     22764.000    eV        0.000 16.000
                            Buckingham rho  0.14900000    Ang       
                            Buckingham C     10.937044    eV*Ang^6  
--------------------------------------------------------------------------------
O3   s O3   s Buckingham    Buckingham A     22764.000    eV        0.000 16.000
                            Buckingham rho  0.14900000    Ang       
                            Buckingham C     10.937044    eV*Ang^6  
--------------------------------------------------------------------------------
O1   c O1   s Spring (c-s)  Spring k 2       180.31577    eV*Ang^-2 0.000  0.800
                            Spring k 4       0.0000000    eV*Ang^-4 
--------------------------------------------------------------------------------
O2   c O2   s Spring (c-s)  Spring k 2       75.969800    eV*Ang^-2 0.000  0.800
                            Spring k 4       0.0000000    eV*Ang^-4 
--------------------------------------------------------------------------------
O3   c O3   s Spring (c-s)  Spring k 2       128.14270    eV*Ang^-2 0.000  0.800
                            Spring k 4       0.0000000    eV*Ang^-4 
--------------------------------------------------------------------------------

  General Three-body potentials :

--------------------------------------------------------------------------------
  Atoms       Potential      Parameter       Value         Units   Cutoffs(Ang)
  1 / 2 / 3                                                          Min /  Max 
--------------------------------------------------------------------------------
Si    core    Harmonic      Three-body cnst  1.2614000    eV*rad^-2 0.000  1.900
O1    shel                  Three-body angl  109.47000    degrees   0.000  1.900
O1    shel                  Three-body k4    0.0000000    eV*rad^-4 0.000  3.500
                            Three-body k3    0.0000000    eV*rad^-3 
--------------------------------------------------------------------------------
Si    core    Harmonic      Three-body cnst  1.2614000    eV*rad^-2 0.000  1.900
O1    shel                  Three-body angl  109.47000    degrees   0.000  1.900
õ(1   shel                  Three-body k4    0.0000000    eV*rad^-4 0.000  3.500
                            Three-body k3    0.0000000    eV*rad^-3 
--------------------------------------------------------------------------------
Si    core    Harmonic      Three-body cnst  1.2614000    eV*rad^-2 0.000  1.900
õ(1   shel                  Three-body angl  109.47000    degrees   0.000  1.900
õ(1   shel                  Three-body k4    0.0000000    eV*rad^-4 0.000  3.500
                            Three-body k3    0.0000000    eV*rad^-3 
--------------------------------------------------------------------------------
Si    core    Harmonic      Three-body cnst  1.2614000    eV*rad^-2 0.000  1.900
O1    shel                  Three-body angl  109.47000    degrees   0.000  1.900
O2    shel                  Three-body k4    0.0000000    eV*rad^-4 0.000  3.500
                            Three-body k3    0.0000000    eV*rad^-3 
--------------------------------------------------------------------------------
Si    core    Harmonic      Three-body cnst  1.2614000    eV*rad^-2 0.000  1.900
O1    shel                  Three-body angl  109.47000    degrees   0.000  1.900
õ(2   shel                  Three-body k4    0.0000000    eV*rad^-4 0.000  3.500
                            Three-body k3    0.0000000    eV*rad^-3 
--------------------------------------------------------------------------------
Si    core    Harmonic      Three-body cnst  1.2614000    eV*rad^-2 0.000  1.900
O2    shel                  Three-body angl  109.47000    degrees   0.000  1.900
õ(1   shel                  Three-body k4    0.0000000    eV*rad^-4 0.000  3.500
                            Three-body k3    0.0000000    eV*rad^-3 
--------------------------------------------------------------------------------
Si    core    Harmonic      Three-body cnst  1.2614000    eV*rad^-2 0.000  1.900
õ(1   shel                  Three-body angl  109.47000    degrees   0.000  1.900
õ(2   shel                  Three-body k4    0.0000000    eV*rad^-4 0.000  3.500
                            Three-body k3    0.0000000    eV*rad^-3 
--------------------------------------------------------------------------------
Si    core    Harmonic      Three-body cnst  1.2614000    eV*rad^-2 0.000  1.900
O2    shel                  Three-body angl  109.47000    degrees   0.000  1.900
O2    shel                  Three-body k4    0.0000000    eV*rad^-4 0.000  3.500
                            Three-body k3    0.0000000    eV*rad^-3 
--------------------------------------------------------------------------------
Si    core    Harmonic      Three-body cnst  1.2614000    eV*rad^-2 0.000  1.900
O2    shel                  Three-body angl  109.47000    degrees   0.000  1.900
õ(2   shel                  Three-body k4    0.0000000    eV*rad^-4 0.000  3.500
                            Three-body k3    0.0000000    eV*rad^-3 
--------------------------------------------------------------------------------
Si    core    Harmonic      Three-body cnst  1.2614000    eV*rad^-2 0.000  1.900
õ(2   shel                  Three-body angl  109.47000    degrees   0.000  1.900
õ(2   shel                  Three-body k4    0.0000000    eV*rad^-4 0.000  3.500
                            Three-body k3    0.0000000    eV*rad^-3 
--------------------------------------------------------------------------------

********************************************************************************
*  Output for configuration   1 : c01057.vasp                                  *
********************************************************************************


  Components of energy : 

--------------------------------------------------------------------------------
  Interatomic potentials     =         896.60360327 eV    
  Three-body potentials      =           0.00000000 eV    
  Monopole - monopole (real) =       -2676.00317478 eV    
  Monopole - monopole (recip)=       -1115.35404472 eV    
  Monopole - monopole (total)=       -3791.35721950 eV    
--------------------------------------------------------------------------------
  Total lattice energy       =       -2894.75361624 eV    
--------------------------------------------------------------------------------
  Total lattice energy       =         -279299.4736 kJ/(mole unit cells)
--------------------------------------------------------------------------------


  Number of variables =      363

  Maximum number of calculations  =          1000
  Maximum Hessian update interval =            10
  Maximum step size               =   0.100000000
  Maximum parameter tolerance     =   0.000010000
  Maximum function  tolerance     =   0.000010000
  Maximum gradient  tolerance     =   0.001000000
  Maximum gradient  component     =   0.010000000

  Symmetry not applied to optimisation

  Cell parameters to be optimised using strains

  Newton-Raphson optimiser to be used

  BFGS hessian update to be used

  Lower half triangular hessian to be used

  Minimiser to switch to RFO
  When gradient norm is less than     0.050000

  Dumpfile to be written after every cycle

  Start of bulk optimisation :

  Cycle:      0 Energy:     -2894.753616  Gnorm:      5.886707  CPU:    0.094
  ** Hessian calculated **
  Cycle:      1 Energy:     -2938.203500  Gnorm:      1.404565  CPU:    0.212
  ** Hessian calculated **
  Cycle:      2 Energy:     -2941.081921  Gnorm:      1.110426  CPU:    0.390
  ** Hessian calculated **
  Cycle:      3 Energy:     -2943.954613  Gnorm:      0.546723  CPU:    0.554
  Cycle:      4 Energy:     -2944.560599  Gnorm:      0.306150  CPU:    0.636
  Cycle:      5 Energy:     -2944.903010  Gnorm:      0.256794  CPU:    0.733
  Cycle:      6 Energy:     -2945.331118  Gnorm:      0.210620  CPU:    0.830
  Cycle:      7 Energy:     -2945.766809  Gnorm:      0.188131  CPU:    0.927
  Cycle:      8 Energy:     -2945.964696  Gnorm:      0.124070  CPU:    1.009
  Cycle:      9 Energy:     -2946.046395  Gnorm:      0.090061  CPU:    1.092
  Cycle:     10 Energy:     -2946.093449  Gnorm:      0.074826  CPU:    1.189
  Cycle:     11 Energy:     -2946.123037  Gnorm:      0.066754  CPU:    1.286
  Cycle:     12 Energy:     -2946.148931  Gnorm:      0.068498  CPU:    1.398
  ** Hessian calculated **
  Cycle:     13 Energy:     -2946.175005  Gnorm:      0.067254  CPU:    1.606
  Cycle:     14 Energy:     -2946.219700  Gnorm:      0.065086  CPU:    1.737
  Cycle:     15 Energy:     -2946.290813  Gnorm:      0.061527  CPU:    1.867
  Cycle:     16 Energy:     -2946.378606  Gnorm:      0.056865  CPU:    1.981
  Cycle:     17 Energy:     -2946.514429  Gnorm:      0.049078  CPU:    2.112
  ** Hessian has wrong structure
  ** Imaginary eigenvectors =   8
  Cycle:     18 Energy:     -2946.551925  Gnorm:      0.177883  CPU:    2.388
  ** Hessian has wrong structure
  ** Imaginary eigenvectors =   6
  ** Hessian has wrong structure
  ** Imaginary eigenvectors =   6
  Cycle:     19 Energy:     -2946.626610  Gnorm:      0.183041  CPU:    2.905
  ** Hessian has wrong structure
  ** Imaginary eigenvectors =   5
  ** Hessian has wrong structure
  ** Imaginary eigenvectors =   3
  Cycle:     20 Energy:     -2946.651228  Gnorm:      0.188002  CPU:    3.302
  ** Hessian has wrong structure
  ** Imaginary eigenvectors =   2
  ** Hessian has wrong structure
  ** Imaginary eigenvectors =   2
  Cycle:     21 Energy:     -2946.738122  Gnorm:      0.197845  CPU:    3.780
  ** Hessian has wrong structure
  ** Imaginary eigenvectors =   1
  ** Hessian has required structure
  Cycle:     22 Energy:     -2947.234634  Gnorm:      0.121456  CPU:    4.173
  ** Hessian has required structure
  ** Hessian has required structure
  Cycle:     23 Energy:     -2947.446140  Gnorm:      0.066546  CPU:    4.458
  ** Hessian has required structure
  Cycle:     24 Energy:     -2947.524572  Gnorm:      0.041066  CPU:    4.624
  ** Hessian has required structure
  Cycle:     25 Energy:     -2947.557685  Gnorm:      0.023201  CPU:    4.776
  ** Hessian has required structure
  Cycle:     26 Energy:     -2947.569833  Gnorm:      0.014097  CPU:    4.928
  ** Hessian has required structure
  Cycle:     27 Energy:     -2947.574062  Gnorm:      0.006979  CPU:    5.081
  ** Hessian has required structure
  Cycle:     28 Energy:     -2947.575465  Gnorm:      0.004964  CPU:    5.232
  ** Hessian has required structure
  Cycle:     29 Energy:     -2947.575864  Gnorm:      0.002000  CPU:    5.369
  ** Hessian has required structure
  Cycle:     30 Energy:     -2947.576031  Gnorm:      0.001528  CPU:    5.505
  ** Hessian has required structure
  Cycle:     31 Energy:     -2947.576095  Gnorm:      0.000944  CPU:    5.655
  ** Hessian has required structure
  Cycle:     32 Energy:     -2947.576111  Gnorm:      0.000380  CPU:    5.790
  ** Hessian has required structure
  Cycle:     33 Energy:     -2947.576114  Gnorm:      0.000285  CPU:    5.986
  ** Hessian has required structure
  Cycle:     34 Energy:     -2947.576116  Gnorm:      0.000209  CPU:    6.107
  ** Hessian has required structure
  Cycle:     35 Energy:     -2947.576116  Gnorm:      0.000205  CPU:    6.243
  ** Hessian has required structure
  Cycle:     36 Energy:     -2947.576116  Gnorm:      0.000203  CPU:    6.363
  ** Hessian has required structure
  Cycle:     37 Energy:     -2947.576116  Gnorm:      0.000201  CPU:    6.480
  ** Hessian has required structure
  Cycle:     38 Energy:     -2947.576116  Gnorm:      0.000200  CPU:    6.602
  ** Hessian has required structure
  Cycle:     39 Energy:     -2947.576116  Gnorm:      0.000199  CPU:    6.721
  ** Hessian has required structure
  Cycle:     40 Energy:     -2947.576116  Gnorm:      0.000199  CPU:    6.838
  ** Hessian has required structure
  Cycle:     41 Energy:     -2947.576116  Gnorm:      0.000198  CPU:    6.957
  ** Hessian has required structure
  Cycle:     42 Energy:     -2947.576116  Gnorm:      0.000197  CPU:    7.076
  ** Hessian has required structure
  Cycle:     43 Energy:     -2947.576116  Gnorm:      0.000197  CPU:    7.370
  ** Hessian calculated **


  **** Optimisation achieved ****


  Final energy =   -2947.57611640 eV      
  Final Gnorm  =       0.00019730

  Components of energy : 

--------------------------------------------------------------------------------
  Interatomic potentials     =         776.23719727 eV    
  Three-body potentials      =           0.00000000 eV    
  Monopole - monopole (real) =       -1571.35532081 eV    
  Monopole - monopole (recip)=       -2152.45799287 eV    
  Monopole - monopole (total)=       -3723.81331368 eV    
--------------------------------------------------------------------------------
  Total lattice energy       =       -2947.57611640 eV    
--------------------------------------------------------------------------------
  Total lattice energy       =         -284396.0374 kJ/(mole unit cells)
--------------------------------------------------------------------------------

  Final fractional coordinates of atoms :

--------------------------------------------------------------------------------
   No.  Atomic        x           y          z          Radius
        Label       (Frac)      (Frac)     (Frac)       (Angs) 
--------------------------------------------------------------------------------
     1  Ge    c     0.052090    0.000000    0.372270    0.000000
     2  Ge    c     0.437926    0.982378    0.408388    0.000000
     3  Ge    c     0.945100    0.012409    0.629355    0.000000
     4  Ge    c     0.542498    0.992303    0.145958    0.000000
     5  Ge    c     0.943572    0.014401    0.125991    0.000000
     6  Ge    c     0.052214    0.013458    0.876043    0.000000
     7  Ge    c     0.341096    0.668059    0.325861    0.000000
     8  Ge    c     0.843254    0.321446    0.744780    0.000000
     9  Ge    c     0.643267    0.673372    0.747441    0.000000
    10  Ge    c     0.823859    0.726981    0.745218    0.000000
    11  Ge    c     0.663036    0.267492    0.751589    0.000000
    12  Ge    c     0.325570    0.266640    0.315167    0.000000
    13  Ge    c     0.664298    0.271821    0.069761    0.000000
    14  Ge    c     0.821371    0.733312    0.061687    0.000000
    15  Ge    c     0.331116    0.272890    0.000060    0.000000
    16  Ge    c     0.170168    0.730842    0.002131    0.000000
    17  Ge    c     0.350248    0.682327    0.007475    0.000000
    18  Ge    c     0.150281    0.320931    0.993907    0.000000
    19  Ge    c     0.642047    0.676574    0.064170    0.000000
    20  Ge    c     0.843047    0.328960    0.063791    0.000000
    21  Si    c     0.548253    0.980658    0.646817    0.000000
    22  Si    c     0.445297    0.992900    0.894105    0.000000
    23  Si    c     0.147963    0.314441    0.299922    0.000000
    24  Si    c     0.164074    0.709365    0.310867    0.000000
    25  O3    c     0.096084    0.196955    0.391073    0.000000
    26  O1    c     0.397966    0.785706    0.424188    0.000000
    27  O1    c     0.909292    0.211546    0.657170    0.000000
    28  O3    c     0.581651    0.792472    0.655935    0.000000
    29  O1    c     0.874880    0.866274    0.652341    0.000000
    30  O3    c     0.613231    0.118108    0.665638    0.000000
    31  O3    c     0.113961    0.832568    0.400477    0.000000
    32  O1    c     0.365958    0.127527    0.419963    0.000000
    33  O1    c     0.974530    0.993163    0.469472    0.000000
    34  O3    c     0.514382    0.010487    0.504886    0.000000
    35  O1    c     0.021349    0.980330    0.215517    0.000000
    36  O1    c     0.469857    0.016457    0.251281    0.000000
    37  O1    c     0.025021    0.983245    0.718221    0.000000
    38  O2    c     0.478041    0.002774    0.746987    0.000000
    39  O1    c     0.614356    0.136063    0.166967    0.000000
    40  O1    c     0.872050    0.870476    0.153956    0.000000
    41  O3    c     0.378017    0.127176    0.903817    0.000000
    42  O1    c     0.122348    0.871451    0.910074    0.000000
    43  O3    c     0.416275    0.802901    0.924993    0.000000
    44  O1    c     0.087489    0.215130    0.900411    0.000000
    45  O1    c     0.578727    0.790710    0.155176    0.000000
    46  O1    c     0.907208    0.214528    0.149618    0.000000
    47  O3    c     0.511616    0.040035    0.990413    0.000000
    48  O1    c     0.971779    0.985726    0.966109    0.000000
    49  O2    c     0.153027    0.509856    0.350466    0.000000
    50  O1    c     0.340338    0.464688    0.380444    0.000000
    51  O1    c     0.834704    0.523804    0.685448    0.000000
    52  O1    c     0.649342    0.469360    0.689675    0.000000
    53  O3    c     0.230459    0.232667    0.297554    0.000000
    54  O3    c     0.251287    0.754413    0.324542    0.000000
    55  O1    c     0.757048    0.221214    0.740135    0.000000
    56  O1    c     0.729523    0.771392    0.742917    0.000000
    57  O3    c     0.116723    0.312428    0.154028    0.000000
    58  O1    c     0.375156    0.675712    0.168458    0.000000
    59  O1    c     0.871980    0.333760    0.903281    0.000000
    60  O1    c     0.611762    0.668370    0.905924    0.000000
    61  O1    c     0.853774    0.735981    0.902939    0.000000
    62  O1    c     0.634794    0.267396    0.910884    0.000000
    63  O3    c     0.139149    0.736545    0.162639    0.000000
    64  O1    c     0.360541    0.257851    0.158095    0.000000
    65  O1    c     0.652169    0.477069    0.126105    0.000000
    66  O1    c     0.832721    0.530081    0.122461    0.000000
    67  O1    c     0.347057    0.478794    0.948119    0.000000
    68  O1    c     0.156901    0.527957    0.944471    0.000000
    69  O1    c     0.757974    0.223981    0.070108    0.000000
    70  O1    c     0.727551    0.780407    0.063110    0.000000
    71  O1    c     0.237398    0.228580    0.987005    0.000000
    72  O1    c     0.264089    0.777184    0.995998    0.000000
    73  O3    s     0.097876    0.193770    0.380808    0.000000
    74  O1    s     0.396726    0.791880    0.415590    0.000000
    75  O1    s     0.906893    0.204939    0.661831    0.000000
    76  O3    s     0.583223    0.801576    0.662203    0.000000
    77  O1    s     0.876302    0.866636    0.657911    0.000000
    78  O3    s     0.610763    0.116513    0.670819    0.000000
    79  O3    s     0.114173    0.833149    0.389668    0.000000
    80  O1    s     0.368150    0.127597    0.410995    0.000000
    81  O1    s     0.978565    0.995172    0.473460    0.000000
    82  O3    s     0.511242    0.005153    0.510661    0.000000
    83  O1    s     0.017488    0.984611    0.220187    0.000000
    84  O1    s     0.473462    0.011921    0.254238    0.000000
    85  O1    s     0.021152    0.987674    0.723393    0.000000
    86  O2    s     0.481843    0.999428    0.751995    0.000000
    87  O1    s     0.612939    0.136041    0.157905    0.000000
    88  O1    s     0.873363    0.870353    0.144781    0.000000
    89  O3    s     0.380863    0.125759    0.910687    0.000000
    90  O1    s     0.120865    0.870871    0.915005    0.000000
    91  O3    s     0.413695    0.811265    0.928741    0.000000
    92  O1    s     0.089823    0.208603    0.905932    0.000000
    93  O1    s     0.580813    0.797074    0.147664    0.000000
    94  O1    s     0.905060    0.208465    0.141492    0.000000
    95  O3    s     0.507411    0.031682    0.992763    0.000000
    96  O1    s     0.975799    0.989956    0.970769    0.000000
    97  O2    s     0.153596    0.509834    0.341532    0.000000
    98  O1    s     0.339284    0.466124    0.371199    0.000000
    99  O1    s     0.834556    0.523413    0.694285    0.000000
   100  O1    s     0.649858    0.470148    0.698422    0.000000
   101  O3    s     0.230078    0.243254    0.299163    0.000000
   102  O3    s     0.249666    0.743412    0.323293    0.000000
   103  O1    s     0.756315    0.231881    0.741323    0.000000
   104  O1    s     0.730139    0.760800    0.743432    0.000000
   105  O3    s     0.122187    0.313182    0.155917    0.000000
   106  O1    s     0.370802    0.675680    0.168170    0.000000
   107  O1    s     0.867707    0.332473    0.903296    0.000000
   108  O1    s     0.616350    0.669375    0.905694    0.000000
   109  O1    s     0.849153    0.735096    0.902758    0.000000
   110  O1    s     0.639190    0.267757    0.910287    0.000000
   111  O3    s     0.143955    0.733546    0.164307    0.000000
   112  O1    s     0.355796    0.259618    0.157856    0.000000
   113  O1    s     0.652266    0.477672    0.117262    0.000000
   114  O1    s     0.832703    0.529084    0.113551    0.000000
   115  O1    s     0.346154    0.479135    0.956335    0.000000
   116  O1    s     0.157380    0.527184    0.952556    0.000000
   117  O1    s     0.757096    0.235154    0.069601    0.000000
   118  O1    s     0.728423    0.769429    0.063066    0.000000
   119  O1    s     0.237951    0.238911    0.988519    0.000000
   120  O1    s     0.263472    0.766487    0.997343    0.000000
--------------------------------------------------------------------------------

  Final Cartesian lattice vectors (Angstroms) :

       17.809452   -0.017695    0.123802
       -0.007785    7.863281    0.001852
        0.076159    0.001403   10.273335


  Final cell parameters and derivatives :

--------------------------------------------------------------------------------
       a           17.809891 Angstrom     dE/de1(xx)    -0.000238 eV/strain
       b            7.863285 Angstrom     dE/de2(yy)     0.001028 eV/strain
       c           10.273617 Angstrom     dE/de3(zz)    -0.001433 eV/strain
       alpha       89.979104 Degrees      dE/de4(yz)     0.000852 eV/strain
       beta        89.176985 Degrees      dE/de5(xz)     0.001461 eV/strain
       gamma       90.113555 Degrees      dE/de6(xy)    -0.001621 eV/strain
--------------------------------------------------------------------------------

  Primitive cell volume =          1438.609649 Angs**3

  Density of cell =      2.692439 g/cm**3

  Non-primitive cell volume =          1438.609649 Angs**3


  Final internal derivatives :

--------------------------------------------------------------------------------
   No.  Atomic          a             b             c           Radius
        Label          (eV)          (eV)          (eV)        (eV/Angs)
--------------------------------------------------------------------------------
      1 Ge    c       0.000000      0.000000      0.000000      0.000000
      2 Ge    c      -0.008665     -0.000432     -0.005292      0.000000
      3 Ge    c       0.009811     -0.001107     -0.004196      0.000000
      4 Ge    c      -0.004306      0.000393      0.001854      0.000000
      5 Ge    c       0.001326     -0.002131     -0.001496      0.000000
      6 Ge    c      -0.004357      0.005353      0.004639      0.000000
      7 Ge    c      -0.002979     -0.000446      0.000050      0.000000
      8 Ge    c      -0.006703      0.002104     -0.001953      0.000000
      9 Ge    c       0.006431     -0.002615      0.002155      0.000000
     10 Ge    c       0.003561      0.000287      0.003445      0.000000
     11 Ge    c       0.005829      0.000905      0.008054      0.000000
     12 Ge    c      -0.003190     -0.001800      0.003649      0.000000
     13 Ge    c       0.003234      0.000070     -0.002115      0.000000
     14 Ge    c       0.002490      0.000689      0.001085      0.000000
     15 Ge    c      -0.002087      0.000380      0.000686      0.000000
     16 Ge    c       0.009469     -0.001978      0.004076      0.000000
     17 Ge    c       0.000307     -0.000492     -0.000324      0.000000
     18 Ge    c       0.001099     -0.000703      0.001233      0.000000
     19 Ge    c       0.003179     -0.002635     -0.000310      0.000000
     20 Ge    c      -0.002476      0.001794      0.002549      0.000000
     21 Si    c      -0.014883      0.000659     -0.004149      0.000000
     22 Si    c      -0.001926     -0.001693     -0.000815      0.000000
     23 Si    c       0.000175     -0.000828      0.000136      0.000000
     24 Si    c       0.003897     -0.000585     -0.001545      0.000000
     25 O3    c      -0.007312     -0.005273     -0.000055      0.000000
     26 O1    c       0.008376      0.003497      0.000876      0.000000
     27 O1    c      -0.002895      0.006094     -0.002091      0.000000
     28 O3    c       0.014079     -0.009864     -0.005787      0.000000
     29 O1    c       0.000153     -0.001727     -0.003552      0.000000
     30 O3    c       0.003426      0.006603     -0.006991      0.000000
     31 O3    c      -0.000182      0.000912     -0.000153      0.000000
     32 O1    c       0.003165     -0.002243     -0.008248      0.000000
     33 O1    c      -0.013564      0.000758      0.010858      0.000000
     34 O3    c       0.012190      0.000140      0.006194      0.000000
     35 O1    c       0.000550     -0.001045      0.003327      0.000000
     36 O1    c      -0.003072      0.001469      0.005407      0.000000
     37 O1    c      -0.001059     -0.000987     -0.003057      0.000000
     38 O2    c      -0.016776      0.000696      0.011663      0.000000
     39 O1    c      -0.000596      0.001264      0.002210      0.000000
     40 O1    c       0.003854      0.000011     -0.000517      0.000000
     41 O3    c      -0.000119     -0.001136      0.000108      0.000000
     42 O1    c       0.000355     -0.000213     -0.006645      0.000000
     43 O3    c      -0.001054      0.002424      0.002426      0.000000
     44 O1    c      -0.002073     -0.005457      0.001667      0.000000
     45 O1    c      -0.009054      0.002920      0.005534      0.000000
     46 O1    c       0.001995      0.000461      0.000998      0.000000
     47 O3    c       0.000204      0.000404     -0.000751      0.000000
     48 O1    c       0.005871     -0.000036     -0.001128      0.000000
     49 O2    c       0.001288      0.000287     -0.000328      0.000000
     50 O1    c      -0.002732      0.000014     -0.002885      0.000000
     51 O1    c       0.002855     -0.006311     -0.001222      0.000000
     52 O1    c      -0.002379      0.006349     -0.004158      0.000000
     53 O3    c       0.010439      0.003115     -0.000355      0.000000
     54 O3    c       0.005141     -0.001732     -0.000384      0.000000
     55 O1    c       0.004870     -0.000111     -0.000381      0.000000
     56 O1    c      -0.012241      0.000684     -0.000605      0.000000
     57 O3    c       0.005630      0.002508     -0.004729      0.000000
     58 O1    c      -0.002975     -0.000910     -0.001797      0.000000
     59 O1    c       0.011481     -0.001985      0.002579      0.000000
     60 O1    c      -0.010142      0.001995     -0.001487      0.000000
     61 O1    c      -0.000613     -0.000286     -0.002239      0.000000
     62 O1    c       0.000585     -0.000128      0.000604      0.000000
     63 O3    c      -0.001693      0.000375      0.004732      0.000000
     64 O1    c      -0.000322      0.000297     -0.001040      0.000000
     65 O1    c      -0.000136      0.001775     -0.000337      0.000000
     66 O1    c       0.000586     -0.002192      0.000479      0.000000
     67 O1    c      -0.003160      0.005422      0.002369      0.000000
     68 O1    c       0.000116     -0.001276      0.001475      0.000000
     69 O1    c      -0.007166      0.000925     -0.001344      0.000000
     70 O1    c      -0.000051      0.000513     -0.000019      0.000000
     71 O1    c      -0.005965      0.001769      0.000119      0.000000
     72 O1    c       0.000731     -0.001388      0.001446      0.000000
     73 O3    s       0.001338      0.002717     -0.000943      0.000000
     74 O1    s      -0.006507      0.000034     -0.003343      0.000000
     75 O1    s       0.000784     -0.003334     -0.001241      0.000000
     76 O3    s      -0.001667     -0.000065     -0.000313      0.000000
     77 O1    s       0.001497      0.001038      0.001345      0.000000
     78 O3    s       0.003917      0.001035     -0.000779      0.000000
     79 O3    s      -0.000036     -0.000288     -0.000217      0.000000
     80 O1    s      -0.001795      0.000613      0.003109      0.000000
     81 O1    s       0.012737     -0.001436     -0.007839      0.000000
     82 O3    s      -0.014991      0.001990     -0.007711      0.000000
     83 O1    s       0.002572      0.002645     -0.002127      0.000000
     84 O1    s      -0.001306     -0.002487     -0.002750      0.000000
     85 O1    s       0.003849      0.000612      0.001664      0.000000
     86 O2    s      -0.006792     -0.002341      0.002131      0.000000
     87 O1    s       0.002027     -0.001354     -0.001689      0.000000
     88 O1    s      -0.002522      0.000926     -0.000452      0.000000
     89 O3    s       0.004321      0.000085      0.001038      0.000000
     90 O1    s      -0.000274     -0.000306      0.001297      0.000000
     91 O3    s       0.002158     -0.001022     -0.001088      0.000000
     92 O1    s      -0.000130      0.003527      0.002593      0.000000
     93 O1    s       0.003918     -0.000938     -0.000782      0.000000
     94 O1    s      -0.001821     -0.001082      0.000557      0.000000
     95 O3    s      -0.002827     -0.000946     -0.000903      0.000000
     96 O1    s      -0.003470      0.000501     -0.000041      0.000000
     97 O2    s      -0.001221     -0.000205     -0.000362      0.000000
     98 O1    s       0.001879     -0.001494      0.001434      0.000000
     99 O1    s      -0.003761      0.003283      0.000518      0.000000
    100 O1    s       0.001757     -0.002545      0.002271      0.000000
    101 O3    s      -0.003520     -0.000932     -0.000669      0.000000
    102 O3    s      -0.000995      0.000540      0.000386      0.000000
    103 O1    s       0.000282     -0.000734      0.000280      0.000000
    104 O1    s       0.004859      0.000869      0.001534      0.000000
    105 O3    s       0.000364     -0.000152      0.000647      0.000000
    106 O1    s      -0.000421      0.000613      0.000186      0.000000
    107 O1    s      -0.006982      0.001326     -0.000790      0.000000
    108 O1    s       0.005203     -0.002217      0.000380      0.000000
    109 O1    s      -0.001239     -0.000459      0.002966      0.000000
    110 O1    s       0.001020      0.001334      0.003180      0.000000
    111 O3    s       0.000212     -0.001063     -0.000142      0.000000
    112 O1    s      -0.001664     -0.000636      0.002275      0.000000
    113 O1    s       0.003151     -0.002154     -0.000100      0.000000
    114 O1    s      -0.001964      0.001890     -0.001512      0.000000
    115 O1    s       0.001694     -0.002199     -0.001018      0.000000
    116 O1    s      -0.001426     -0.001597     -0.001336      0.000000
    117 O1    s       0.003621      0.000257     -0.000187      0.000000
    118 O1    s       0.001857     -0.000794     -0.000960      0.000000
    119 O1    s       0.001076     -0.000498      0.001572      0.000000
    120 O1    s       0.003950      0.000254     -0.000817      0.000000
--------------------------------------------------------------------------------
  Maximum abs         0.016776      0.009864      0.011663      0.000000
--------------------------------------------------------------------------------


  Born effective charge tensors : 

-------------------------------------------------------------------------------
  Atom             x           y             z
-------------------------------------------------------------------------------
    1 Ge    x       4.1394      0.0658      0.0847
            y      -0.1118      3.9146     -0.0350
            z      -0.8191     -0.0098      4.1513
-------------------------------------------------------------------------------
    2 Ge    x       4.1027      0.1818     -0.0096
            y      -0.1527      3.8958     -0.0598
            z       0.8098      0.0172      4.2733
-------------------------------------------------------------------------------
    3 Ge    x       4.2826     -0.1449     -0.4725
            y       0.1713      3.8994      0.0610
            z      -0.2350      0.0904      4.5143
-------------------------------------------------------------------------------
    4 Ge    x       4.2643     -0.1691     -0.0316
            y       0.1681      3.9050      0.0683
            z      -0.6969      0.0382      3.7099
-------------------------------------------------------------------------------
    5 Ge    x       4.4224     -0.1725     -0.0280
            y       0.1324      3.9034     -0.0294
            z       0.6650     -0.0629      3.6247
-------------------------------------------------------------------------------
    6 Ge    x       4.3468      0.1608      0.4092
            y      -0.1731      3.9011     -0.0059
            z       0.3655      0.1342      4.0304
-------------------------------------------------------------------------------
    7 Ge    x       3.8889      0.1729      0.2255
            y       0.4675      4.1500      0.0772
            z       0.1101      0.1485      3.6410
-------------------------------------------------------------------------------
    8 Ge    x       4.0780     -0.0900     -0.2053
            y      -0.4329      4.1563      0.0754
            z      -0.0818      0.1886      3.6227
-------------------------------------------------------------------------------
    9 Ge    x       3.9287     -0.0527      0.1643
            y      -0.4126      4.2138     -0.0723
            z      -0.0213     -0.1376      3.5345
-------------------------------------------------------------------------------
   10 Ge    x       4.0725      0.2356     -0.2833
            y       0.2894      4.2013     -0.0706
            z      -0.0452     -0.1924      3.6349
-------------------------------------------------------------------------------
   11 Ge    x       4.0088      0.2118      0.1969
            y       0.2538      4.2320      0.0296
            z      -0.0396      0.1557      3.5503
-------------------------------------------------------------------------------
   12 Ge    x       3.8488     -0.3005      0.3563
            y      -0.3269      4.1740     -0.0951
            z       0.0667     -0.1545      3.6533
-------------------------------------------------------------------------------
   13 Ge    x       4.1122      0.2224     -0.3107
            y       0.2971      4.1852     -0.0891
            z      -0.0347     -0.1629      3.5006
-------------------------------------------------------------------------------
   14 Ge    x       4.1240      0.2314      0.3439
            y       0.2929      4.1661      0.0746
            z       0.0488      0.1511      3.4686
-------------------------------------------------------------------------------
   15 Ge    x       3.9893     -0.1958     -0.3176
            y      -0.2120      4.2311      0.0850
            z      -0.0148      0.1388      3.4947
-------------------------------------------------------------------------------
   16 Ge    x       4.0042     -0.2075      0.3501
            y      -0.2196      4.2381     -0.1460
            z       0.0717     -0.2178      3.5153
-------------------------------------------------------------------------------
   17 Ge    x       3.9783      0.0675     -0.2430
            y       0.4060      4.2011     -0.0533
            z      -0.1059     -0.1389      3.4849
-------------------------------------------------------------------------------
   18 Ge    x       4.0335      0.0881      0.3588
            y       0.3997      4.1639      0.1317
            z       0.1363      0.1636      3.4769
-------------------------------------------------------------------------------
   19 Ge    x       4.0555     -0.1191     -0.2588
            y      -0.4612      4.1544      0.0351
            z      -0.0832      0.1509      3.4917
-------------------------------------------------------------------------------
   20 Ge    x       4.0849     -0.1289      0.2612
            y      -0.4535      4.1655     -0.0500
            z       0.0963     -0.1464      3.4558
-------------------------------------------------------------------------------
   21 Si    x       3.7141     -0.1384      0.4750
            y       0.1912      3.6552     -0.0005
            z       0.4256     -0.1386      4.0067
-------------------------------------------------------------------------------
   22 Si    x       3.8511      0.1280     -0.1886
            y      -0.2266      3.6745     -0.0482
            z      -0.2172     -0.0127      3.3631
-------------------------------------------------------------------------------
   23 Si    x       3.6093      0.1465     -0.2117
            y       0.3766      3.6729     -0.2209
            z       0.0105     -0.2601      3.2181
-------------------------------------------------------------------------------
   24 Si    x       3.6706     -0.2598     -0.1876
            y      -0.3635      3.6881      0.2050
            z       0.0325      0.1943      3.2079
-------------------------------------------------------------------------------
   25 O3    x      -1.8513     -0.8825      0.3835
            y      -0.8192     -2.3892      0.4009
            z       0.4279      0.4479     -1.5277
-------------------------------------------------------------------------------
   26 O1    x      -1.9555     -0.8874     -0.4047
            y      -0.8614     -2.4945     -0.3818
            z      -0.4961     -0.4329     -1.6675
-------------------------------------------------------------------------------
   27 O1    x      -2.0610      0.8898      0.5353
            y       0.8466     -2.4675     -0.5163
            z       0.4891     -0.5246     -1.6632
-------------------------------------------------------------------------------
   28 O3    x      -1.8332      0.8470     -0.3890
            y       0.8002     -2.4575      0.3950
            z      -0.3365      0.3824     -1.4934
-------------------------------------------------------------------------------
   29 O1    x      -2.2522     -0.9578      0.5629
            y      -1.0009     -2.3305      0.5170
            z       0.5280      0.5371     -1.6766
-------------------------------------------------------------------------------
   30 O3    x      -2.1388     -0.9412     -0.4436
            y      -0.9810     -2.2585     -0.4351
            z      -0.3991     -0.4276     -1.4942
-------------------------------------------------------------------------------
   31 O3    x      -1.9659      0.9037      0.3253
            y       0.9404     -2.3119     -0.3576
            z       0.4116     -0.4003     -1.5169
-------------------------------------------------------------------------------
   32 O1    x      -2.1336      0.8920     -0.3824
            y       0.9715     -2.3321      0.4675
            z      -0.4179      0.4353     -1.6870
-------------------------------------------------------------------------------
   33 O1    x      -2.1762      0.0291      1.0101
            y      -0.0123     -1.2740     -0.0276
            z       1.2367     -0.0643     -3.1293
-------------------------------------------------------------------------------
   34 O3    x      -1.9543      0.0142     -0.9190
            y      -0.0146     -1.1867      0.0414
            z      -1.1980      0.0690     -2.9953
-------------------------------------------------------------------------------
   35 O1    x      -2.2584      0.0889     -0.9177
            y       0.0768     -1.3319      0.0399
            z      -0.8762      0.0522     -2.5189
-------------------------------------------------------------------------------
   36 O1    x      -2.0967      0.0339      0.8573
            y       0.0468     -1.3170      0.0132
            z       0.8914      0.0338     -2.7700
-------------------------------------------------------------------------------
   37 O1    x      -2.1319      0.0265     -0.8081
            y       0.0564     -1.2768     -0.0124
            z      -0.8489     -0.0674     -2.7841
-------------------------------------------------------------------------------
   38 O2    x      -1.6677      0.0210      0.5864
            y       0.0427     -1.1239     -0.0286
            z       0.5802     -0.0123     -2.1385
-------------------------------------------------------------------------------
   39 O1    x      -2.2719     -0.9318      0.3000
            y      -0.9881     -2.2716      0.3315
            z       0.3417      0.3416     -1.5436
-------------------------------------------------------------------------------
   40 O1    x      -2.2919     -0.9421     -0.3013
            y      -0.9886     -2.2824     -0.3063
            z      -0.3563     -0.3245     -1.4903
-------------------------------------------------------------------------------
   41 O3    x      -2.1520      0.9395      0.4780
            y       0.9390     -2.2127     -0.4273
            z       0.4119     -0.4246     -1.4448
-------------------------------------------------------------------------------
   42 O1    x      -2.2334      0.9399     -0.6221
            y       0.9818     -2.3476      0.6069
            z      -0.5558      0.5705     -1.6654
-------------------------------------------------------------------------------
   43 O3    x      -1.8757     -0.8245      0.4607
            y      -0.7555     -2.4653      0.5154
            z       0.4178      0.4924     -1.4381
-------------------------------------------------------------------------------
   44 O1    x      -2.0543     -0.8546     -0.5756
            y      -0.8086     -2.4536     -0.5387
            z      -0.5091     -0.5292     -1.6343
-------------------------------------------------------------------------------
   45 O1    x      -2.0476      0.8860      0.3874
            y       0.8303     -2.4767     -0.3472
            z       0.4238     -0.3669     -1.5002
-------------------------------------------------------------------------------
   46 O1    x      -2.0990      0.8952     -0.3584
            y       0.8361     -2.4706      0.2671
            z      -0.4112      0.3086     -1.4514
-------------------------------------------------------------------------------
   47 O3    x      -2.0168     -0.0903     -0.7457
            y      -0.0980     -1.2948     -0.0587
            z      -0.5202     -0.0109     -2.1706
-------------------------------------------------------------------------------
   48 O1    x      -2.2224     -0.0435      0.7183
            y      -0.0540     -1.3233     -0.0015
            z       0.5033     -0.0326     -2.2819
-------------------------------------------------------------------------------
   49 O2    x      -1.1632     -0.0877      0.0533
            y      -0.1269     -2.4924     -0.0467
            z       0.0165     -0.0339     -1.1347
-------------------------------------------------------------------------------
   50 O1    x      -1.3327     -0.0958     -0.1121
            y      -0.1642     -3.1830     -0.0496
            z      -0.0712     -0.0319     -1.3800
-------------------------------------------------------------------------------
   51 O1    x      -1.3539      0.1483      0.0696
            y       0.2143     -3.2000      0.0080
            z       0.0289      0.0127     -1.3928
-------------------------------------------------------------------------------
   52 O1    x      -1.3368      0.1395     -0.0798
            y       0.2268     -3.2868      0.0169
            z      -0.0361      0.0059     -1.3832
-------------------------------------------------------------------------------
   53 O3    x      -2.8819      0.2750     -0.0818
            y       0.2342     -1.4849      0.0072
            z      -0.0650      0.0384     -1.1400
-------------------------------------------------------------------------------
   54 O3    x      -2.9289      0.0540     -0.0978
            y      -0.0279     -1.4415     -0.0220
            z      -0.1362     -0.0443     -1.1452
-------------------------------------------------------------------------------
   55 O1    x      -3.1495     -0.2164      0.0208
            y      -0.1736     -1.5625     -0.0258
            z       0.0298     -0.0609     -1.2223
-------------------------------------------------------------------------------
   56 O1    x      -3.1450     -0.2031     -0.0058
            y      -0.0965     -1.5389      0.0225
            z      -0.0051      0.0540     -1.2190
-------------------------------------------------------------------------------
   57 O3    x      -1.3982     -0.0778     -0.1441
            y      -0.1341     -1.3579     -0.0319
            z      -0.1042      0.0077     -2.5535
-------------------------------------------------------------------------------
   58 O1    x      -1.4868     -0.0725      0.1618
            y      -0.1390     -1.4166      0.0927
            z       0.1050      0.0501     -2.7960
-------------------------------------------------------------------------------
   59 O1    x      -1.4807      0.0486     -0.0478
            y       0.1098     -1.4160     -0.0191
            z      -0.0518     -0.0235     -2.7732
-------------------------------------------------------------------------------
   60 O1    x      -1.4784      0.0559      0.0171
            y       0.1267     -1.4164      0.0178
            z       0.0306     -0.0049     -2.7543
-------------------------------------------------------------------------------
   61 O1    x      -1.4849     -0.0902     -0.0341
            y      -0.1028     -1.4271     -0.0219
            z      -0.0268     -0.0298     -2.7454
-------------------------------------------------------------------------------
   62 O1    x      -1.4578     -0.0939     -0.0119
            y      -0.1085     -1.4370     -0.0377
            z       0.0095     -0.0205     -2.7695
-------------------------------------------------------------------------------
   63 O3    x      -1.3419      0.1112     -0.0574
            y       0.1208     -1.3973      0.1208
            z      -0.0363      0.1061     -2.5810
-------------------------------------------------------------------------------
   64 O1    x      -1.4926      0.1059      0.1531
            y       0.1322     -1.4261     -0.0091
            z       0.0624      0.0164     -2.7460
-------------------------------------------------------------------------------
   65 O1    x      -1.3763      0.1626      0.0702
            y       0.2484     -3.1873      0.0459
            z       0.0273      0.0182     -1.3493
-------------------------------------------------------------------------------
   66 O1    x      -1.3827      0.1573     -0.0833
            y       0.2397     -3.1674     -0.0020
            z      -0.0370      0.0036     -1.3444
-------------------------------------------------------------------------------
   67 O1    x      -1.3578     -0.1386      0.1106
            y      -0.2235     -3.3111     -0.0567
            z       0.0642     -0.0287     -1.3307
-------------------------------------------------------------------------------
   68 O1    x      -1.3419     -0.1416     -0.0949
            y      -0.2240     -3.2508     -0.0396
            z      -0.0382     -0.0347     -1.3668
-------------------------------------------------------------------------------
   69 O1    x      -3.1173     -0.2043      0.0211
            y      -0.1445     -1.5664      0.0145
            z      -0.0098      0.0476     -1.1926
-------------------------------------------------------------------------------
   70 O1    x      -3.1136     -0.2014     -0.0055
            y      -0.1327     -1.5621     -0.0052
            z       0.0188     -0.0391     -1.1917
-------------------------------------------------------------------------------
   71 O1    x      -3.1431      0.2033     -0.0252
            y       0.1751     -1.5315     -0.0465
            z       0.0099     -0.0646     -1.2190
-------------------------------------------------------------------------------
   72 O1    x      -3.1232      0.1770     -0.0113
            y       0.0842     -1.5315      0.0440
            z       0.0327      0.0663     -1.2109
-------------------------------------------------------------------------------




  Elastic Constant Matrix: (Units=GPa)

-------------------------------------------------------------------------------
  Indices      1         2         3         4         5         6    
-------------------------------------------------------------------------------
       1     42.1968   19.8272   15.4267    0.0515    0.6504   -0.2936
       2     19.8272   34.0212   15.7143   -0.1698   -1.2173    0.3695
       3     15.4267   15.7143   13.5232   -0.2140    0.8546   -0.9022
       4      0.0515   -0.1698   -0.2140    7.8043   -0.4117    0.6989
       5      0.6504   -1.2173    0.8546   -0.4117   16.6677    0.2856
       6     -0.2936    0.3695   -0.9022    0.6989    0.2856   16.4581
-------------------------------------------------------------------------------


  Elastic Compliance Matrix: (Units=1/GPa)

-------------------------------------------------------------------------------
  Indices      1         2         3         4         5         6    
-------------------------------------------------------------------------------
       1    0.041084 -0.004803 -0.041409 -0.001379  0.000159 -0.001373
       2   -0.004803  0.065768 -0.071871  0.000464  0.008784 -0.005674
       3   -0.041409 -0.071871  0.206472  0.002507 -0.014369  0.012336
       4   -0.001379  0.000464  0.002507  0.128879  0.003236 -0.005426
       5    0.000159  0.008784 -0.014369  0.003236  0.061486 -0.002187
       6   -0.001373 -0.005674  0.012336 -0.005426 -0.002187  0.061808
-------------------------------------------------------------------------------

  Mechanical properties :

-------------------------------------------------------------------------------
  Convention :                    Reuss         Voigt         Hill
-------------------------------------------------------------------------------
  Bulk  Modulus (GPa)     =      12.96060      21.29751      17.12905
  Shear Modulus (GPa)     =       6.04316      10.77087       8.40702
-------------------------------------------------------------------------------
  Velocity S-wave (km/s)  =       1.49816       2.00010       1.76705
  Velocity P-wave (km/s)  =       2.79399       3.63923       3.24425
-------------------------------------------------------------------------------
  Compressibility (1/GPa) =    0.07715694
-------------------------------------------------------------------------------
  Stress axis :                     x             y             z
-------------------------------------------------------------------------------
  Youngs Moduli (GPa)     =      24.34065      15.20501       4.84327
-------------------------------------------------------------------------------
  Poissons Ratio (x)      =                     0.07302       0.20056
  Poissons Ratio (y)      =       0.11690                     0.34809
  Poissons Ratio (z)      =       1.00793       1.09281
-------------------------------------------------------------------------------


  Piezoelectric Strain Matrix: (Units=C/m**2)

-------------------------------------------------------------------------------
  Indices      1         2         3         4         5         6    
-------------------------------------------------------------------------------
       x     0.06628   0.20568  -0.01883   0.01919   0.29957   0.16153
       y     0.86331   0.78525   0.09829   0.44224  -0.24963  -0.41758
       z     0.51824   1.11123  -1.11140   0.14436   0.24699  -0.00058
-------------------------------------------------------------------------------


  Piezoelectric Stress Matrix: (Units=10**-11 C/N)

-------------------------------------------------------------------------------
  Indices      1         2         3         4         5         6    
-------------------------------------------------------------------------------
       x     0.23142   1.62866  -2.36798   0.25226   2.02164   0.77342
       y     2.75505   4.08159  -7.23485   5.78736  -0.73819  -3.20925
       z     6.18176  15.27125 -33.39939   1.64215   4.14674  -2.20857
-------------------------------------------------------------------------------


  Static dielectric constant tensor : 

-------------------------------------------------------------------------------
              x         y         z
-------------------------------------------------------------------------------
       x     5.31092   0.05435   0.00734
       y     0.05435   6.24834   0.05139
       z     0.00734   0.05139   4.14663
--------------------------------------------------------------------------------

  High frequency dielectric constant tensor : 

-------------------------------------------------------------------------------
              x         y         z
-------------------------------------------------------------------------------
       x     1.54219  -0.00036   0.00061
       y    -0.00036   1.54380  -0.00023
       z     0.00061  -0.00023   1.50195
-------------------------------------------------------------------------------

  Static refractive indices : 

-------------------------------------------------------------------------------
    1 =    2.03601      2 =    2.30386      3 =    2.50055
-------------------------------------------------------------------------------

  High frequency refractive indices : 

-------------------------------------------------------------------------------
    1 =    1.22554      2 =    1.24182      3 =    1.24253
-------------------------------------------------------------------------------


  Time to end of optimisation =       7.7754 seconds


  Peak dynamic memory used =       5.01 MB 


  Timing analysis for GULP :

--------------------------------------------------------------------------------
  Task / Subroutine                                          Time (Seconds)
--------------------------------------------------------------------------------
  Calculation of reciprocal space energy and derivatives          0.5724
  Calculation of real space energy and derivatives                5.3810
  Calculation of three-body energy and derivatives                0.0856
  Calculation and manipulation of Hessian matrix                  2.2547
  Calculation of matrix inversion                                 0.0334
--------------------------------------------------------------------------------
  Total CPU time                                                  7.7754
--------------------------------------------------------------------------------


  Dump file written as c01057.vasp.grs
  CIF file written as c01057.vasp.cif


  Job Finished at 14:58.43 31st October    2025                               

