********************************************************************************
*                       GENERAL UTILITY LATTICE PROGRAM                        *
*                                 Julian Gale                                  *
*                       Curtin Institute for Computation                       *
*                    School of Molecular and Life Sciences                     *
*                    Curtin University, Western Australia                      *
********************************************************************************
* Version = 6.1.2 * Last modified =   3rd November 2022                        *
********************************************************************************
*  optimise     - perform optimisation run                                     *
*  conp         - constant pressure calculation                                *
*  property     - calculate properties for final geometry                      *
********************************************************************************

  Job Started  at 14:54.33 31st October    2025                               

  Number of CPUs =     1


  Total number of configurations input =      1

********************************************************************************
*  Input for Configuration =   1 : c01030.vasp                                 *
********************************************************************************

  Formula = Ge20Si4O48                                                  

  Number of irreducible atoms/shells =     120


  Total number atoms/shells =     120

  Dimensionality = 3               :  Bulk   



  Cartesian lattice vectors (Angstroms) :

       17.182800    0.000000    0.000000
        0.000000    7.513760    0.000000
        0.000000    0.000000   10.447700

  Cell parameters (Angstroms/Degrees):

  a =      17.1828    alpha =  90.0000
  b =       7.5138    beta  =  90.0000
  c =      10.4477    gamma =  90.0000

  Initial cell volume =        1348.875752 Angs**3

  Temperature of configuration =   0.00     K 

  Pressure of configuration =         0.000 GPa 

  Fractional coordinates of asymmetric unit :

--------------------------------------------------------------------------------
   No.  Atomic       x           y          z         Charge      Occupancy
        Label      (Frac)      (Frac)     (Frac)        (e)         (Frac)  
--------------------------------------------------------------------------------
      1 Ge    c    0.052090    0.000000    0.372270     4.00000    1.000000    
      2 Ge    c    0.447910 *  0.000000 *  0.372270 *   4.00000    1.000000    
      3 Ge    c    0.947910 *  0.000000 *  0.627730 *   4.00000    1.000000    
      4 Ge    c    0.556730 *  0.000000 *  0.122130 *   4.00000    1.000000    
      5 Ge    c    0.943270 *  0.000000 *  0.122130 *   4.00000    1.000000    
      6 Ge    c    0.056730 *  0.000000 *  0.877870 *   4.00000    1.000000    
      7 Ge    c    0.160190 *  0.293910 *  0.273440 *   4.00000    1.000000    
      8 Ge    c    0.339810 *  0.706090 *  0.273440 *   4.00000    1.000000    
      9 Ge    c    0.839810 *  0.293910 *  0.726560 *   4.00000    1.000000    
     10 Ge    c    0.660190 *  0.706090 *  0.726560 *   4.00000    1.000000    
     11 Ge    c    0.839810 *  0.706090 *  0.726560 *   4.00000    1.000000    
     12 Ge    c    0.160190 *  0.706090 *  0.273440 *   4.00000    1.000000    
     13 Ge    c    0.339810 *  0.293910 *  0.273440 *   4.00000    1.000000    
     14 Ge    c    0.660660 *  0.294090 *  0.017440 *   4.00000    1.000000    
     15 Ge    c    0.839340 *  0.705910 *  0.017440 *   4.00000    1.000000    
     16 Ge    c    0.339340 *  0.294090 *  0.982560 *   4.00000    1.000000    
     17 Ge    c    0.160660 *  0.705910 *  0.982560 *   4.00000    1.000000    
     18 Ge    c    0.160660 *  0.294090 *  0.982560 *   4.00000    1.000000    
     19 Ge    c    0.660660 *  0.705910 *  0.017440 *   4.00000    1.000000    
     20 Ge    c    0.839340 *  0.294090 *  0.017440 *   4.00000    1.000000    
     21 Si    c    0.552090 *  0.000000 *  0.627730 *   4.00000    1.000000    
     22 Si    c    0.443270 *  0.000000 *  0.877870 *   4.00000    1.000000    
     23 Si    c    0.660190 *  0.293910 *  0.726560 *   4.00000    1.000000    
     24 Si    c    0.339340 *  0.705910 *  0.982560 *   4.00000    1.000000    
     25 O1    c    0.106570 *  0.174340 *  0.366200 *   1.73396    1.000000    
     26 O1    c    0.393430 *  0.825660 *  0.366200 *   1.73396    1.000000    
     27 O1    c    0.893430 *  0.174340 *  0.633800 *   1.73396    1.000000    
     28 O3    c    0.606570 *  0.825660 *  0.633800 *   1.33043    1.000000    
     29 O1    c    0.893430 *  0.825660 *  0.633800 *   1.73396    1.000000    
     30 O2    c    0.606570 *  0.174340 *  0.633800 *   0.87073    1.000000    
     31 O1    c    0.106570 *  0.825660 *  0.366200 *   1.73396    1.000000    
     32 O1    c    0.393430 *  0.174340 *  0.366200 *   1.73396    1.000000    
     33 O1    c    0.000000 *  0.000000 *  0.500000 *   1.73396    1.000000    
     34 O3    c    0.500000 *  0.000000 *  0.500000 *   1.33043    1.000000    
     35 O1    c    0.994520 *  0.000000 *  0.250840 *   1.73396    1.000000    
     36 O1    c    0.505480 *  0.000000 *  0.250840 *   1.73396    1.000000    
     37 O1    c    0.005480 *  0.000000 *  0.749160 *   1.73396    1.000000    
     38 O2    c    0.494520 *  0.000000 *  0.749160 *   0.87073    1.000000    
     39 O1    c    0.610230 *  0.175520 *  0.115390 *   1.73396    1.000000    
     40 O1    c    0.889770 *  0.824480 *  0.115390 *   1.73396    1.000000    
     41 O3    c    0.389770 *  0.175520 *  0.884610 *   1.33043    1.000000    
     42 O1    c    0.110230 *  0.824480 *  0.884610 *   1.73396    1.000000    
     43 O2    c    0.389770 *  0.824480 *  0.884610 *   0.87073    1.000000    
     44 O1    c    0.110230 *  0.175520 *  0.884610 *   1.73396    1.000000    
     45 O1    c    0.610230 *  0.824480 *  0.115390 *   1.73396    1.000000    
     46 O1    c    0.889770 *  0.175520 *  0.115390 *   1.73396    1.000000    
     47 O3    c    0.500000 *  0.000000 *  0.000000 *   1.33043    1.000000    
     48 O1    c    0.000000 *  0.000000 *  0.000000 *   1.73396    1.000000    
     49 O1    c    0.151750 *  0.500000 *  0.313330 *   1.73396    1.000000    
     50 O1    c    0.348250 *  0.500000 *  0.313330 *   1.73396    1.000000    
     51 O1    c    0.848250 *  0.500000 *  0.686670 *   1.73396    1.000000    
     52 O3    c    0.651750 *  0.500000 *  0.686670 *   1.33043    1.000000    
     53 O1    c    0.250000 *  0.234950 *  0.285720 *   1.73396    1.000000    
     54 O1    c    0.250000 *  0.765050 *  0.285720 *   1.73396    1.000000    
     55 O3    c    0.750000 *  0.234950 *  0.714280 *   1.33043    1.000000    
     56 O1    c    0.750000 *  0.765050 *  0.714280 *   1.73396    1.000000    
     57 O1    c    0.131410 *  0.268650 *  0.127790 *   1.73396    1.000000    
     58 O3    c    0.368590 *  0.731350 *  0.127790 *   1.33043    1.000000    
     59 O1    c    0.868590 *  0.268650 *  0.872210 *   1.73396    1.000000    
     60 O1    c    0.631410 *  0.731350 *  0.872210 *   1.73396    1.000000    
     61 O1    c    0.868590 *  0.731350 *  0.872210 *   1.73396    1.000000    
     62 O3    c    0.631410 *  0.268650 *  0.872210 *   1.33043    1.000000    
     63 O1    c    0.131410 *  0.731350 *  0.127790 *   1.73396    1.000000    
     64 O1    c    0.368590 *  0.268650 *  0.127790 *   1.73396    1.000000    
     65 O1    c    0.653920 *  0.500000 *  0.058200 *   1.73396    1.000000    
     66 O1    c    0.846080 *  0.500000 *  0.058200 *   1.73396    1.000000    
     67 O3    c    0.346080 *  0.500000 *  0.941800 *   1.33043    1.000000    
     68 O1    c    0.153920 *  0.500000 *  0.941800 *   1.73396    1.000000    
     69 O1    c    0.750000 *  0.231060 *  0.027050 *   1.73396    1.000000    
     70 O1    c    0.750000 *  0.768940 *  0.027050 *   1.73396    1.000000    
     71 O1    c    0.250000 *  0.231060 *  0.972950 *   1.73396    1.000000    
     72 O3    c    0.250000 *  0.768940 *  0.972950 *   1.33043    1.000000    
     73 O1    s    0.106570 *  0.174340 *  0.366200 *  -3.73396    1.000000    
     74 O1    s    0.393430 *  0.825660 *  0.366200 *  -3.73396    1.000000    
     75 O1    s    0.893430 *  0.174340 *  0.633800 *  -3.73396    1.000000    
     76 O3    s    0.606570 *  0.825660 *  0.633800 *  -3.33043    1.000000    
     77 O1    s    0.893430 *  0.825660 *  0.633800 *  -3.73396    1.000000    
     78 O2    s    0.606570 *  0.174340 *  0.633800 *  -2.87073    1.000000    
     79 O1    s    0.106570 *  0.825660 *  0.366200 *  -3.73396    1.000000    
     80 O1    s    0.393430 *  0.174340 *  0.366200 *  -3.73396    1.000000    
     81 O1    s    0.000000 *  0.000000 *  0.500000 *  -3.73396    1.000000    
     82 O3    s    0.500000 *  0.000000 *  0.500000 *  -3.33043    1.000000    
     83 O1    s    0.994520 *  0.000000 *  0.250840 *  -3.73396    1.000000    
     84 O1    s    0.505480 *  0.000000 *  0.250840 *  -3.73396    1.000000    
     85 O1    s    0.005480 *  0.000000 *  0.749160 *  -3.73396    1.000000    
     86 O2    s    0.494520 *  0.000000 *  0.749160 *  -2.87073    1.000000    
     87 O1    s    0.610230 *  0.175520 *  0.115390 *  -3.73396    1.000000    
     88 O1    s    0.889770 *  0.824480 *  0.115390 *  -3.73396    1.000000    
     89 O3    s    0.389770 *  0.175520 *  0.884610 *  -3.33043    1.000000    
     90 O1    s    0.110230 *  0.824480 *  0.884610 *  -3.73396    1.000000    
     91 O2    s    0.389770 *  0.824480 *  0.884610 *  -2.87073    1.000000    
     92 O1    s    0.110230 *  0.175520 *  0.884610 *  -3.73396    1.000000    
     93 O1    s    0.610230 *  0.824480 *  0.115390 *  -3.73396    1.000000    
     94 O1    s    0.889770 *  0.175520 *  0.115390 *  -3.73396    1.000000    
     95 O3    s    0.500000 *  0.000000 *  0.000000 *  -3.33043    1.000000    
     96 O1    s    0.000000 *  0.000000 *  0.000000 *  -3.73396    1.000000    
     97 O1    s    0.151750 *  0.500000 *  0.313330 *  -3.73396    1.000000    
     98 O1    s    0.348250 *  0.500000 *  0.313330 *  -3.73396    1.000000    
     99 O1    s    0.848250 *  0.500000 *  0.686670 *  -3.73396    1.000000    
    100 O3    s    0.651750 *  0.500000 *  0.686670 *  -3.33043    1.000000    
    101 O1    s    0.250000 *  0.234950 *  0.285720 *  -3.73396    1.000000    
    102 O1    s    0.250000 *  0.765050 *  0.285720 *  -3.73396    1.000000    
    103 O3    s    0.750000 *  0.234950 *  0.714280 *  -3.33043    1.000000    
    104 O1    s    0.750000 *  0.765050 *  0.714280 *  -3.73396    1.000000    
    105 O1    s    0.131410 *  0.268650 *  0.127790 *  -3.73396    1.000000    
    106 O3    s    0.368590 *  0.731350 *  0.127790 *  -3.33043    1.000000    
    107 O1    s    0.868590 *  0.268650 *  0.872210 *  -3.73396    1.000000    
    108 O1    s    0.631410 *  0.731350 *  0.872210 *  -3.73396    1.000000    
    109 O1    s    0.868590 *  0.731350 *  0.872210 *  -3.73396    1.000000    
    110 O3    s    0.631410 *  0.268650 *  0.872210 *  -3.33043    1.000000    
    111 O1    s    0.131410 *  0.731350 *  0.127790 *  -3.73396    1.000000    
    112 O1    s    0.368590 *  0.268650 *  0.127790 *  -3.73396    1.000000    
    113 O1    s    0.653920 *  0.500000 *  0.058200 *  -3.73396    1.000000    
    114 O1    s    0.846080 *  0.500000 *  0.058200 *  -3.73396    1.000000    
    115 O3    s    0.346080 *  0.500000 *  0.941800 *  -3.33043    1.000000    
    116 O1    s    0.153920 *  0.500000 *  0.941800 *  -3.73396    1.000000    
    117 O1    s    0.750000 *  0.231060 *  0.027050 *  -3.73396    1.000000    
    118 O1    s    0.750000 *  0.768940 *  0.027050 *  -3.73396    1.000000    
    119 O1    s    0.250000 *  0.231060 *  0.972950 *  -3.73396    1.000000    
    120 O3    s    0.250000 *  0.768940 *  0.972950 *  -3.33043    1.000000    
--------------------------------------------------------------------------------



********************************************************************************
*  General input information                                                   *
********************************************************************************

  Species output for all configurations : 

--------------------------------------------------------------------------------
  Species    Type    Atomic    Atomic    Charge       Radii (Angs)     Library
                     Number     Mass       (e)     Cova   Ionic  VDW   Symbol
--------------------------------------------------------------------------------
    Ge       Core       32      72.61   4.000000   1.170  0.000  1.750 Ge       
    Si       Core       14      28.09   4.000000   1.200  0.000  2.100 Si       
    O1       Core        8      16.00   1.733957   0.730  0.000  1.360 O1       
    O2       Core        8      16.00   0.870733   0.730  0.000  1.360 O2       
    O3       Core        8      16.00   1.330431   0.730  0.000  1.360 O3       
    O1       Shell       8       0.00  -3.733957   0.730  0.000  0.000 O1       
    O2       Shell       8       0.00  -2.870733   0.730  0.000  0.000 O2       
    O3       Shell       8       0.00  -3.330431   0.730  0.000  0.000 O3       
--------------------------------------------------------------------------------


  Lattice summation method               =    Ewald          (3-D)
                                         =    Parry          (2-D)
                                         =    Saunders et al (1-D)
  Accuracy factor for lattice sums       =   12.000


  Analytic derivatives to be used

  Time limit = Infinity

  Maximum range for interatomic potentials =    100000.000000 Angstroms

  General interatomic potentials :

--------------------------------------------------------------------------------
Atom  Types   Potential      Parameter       Value         Units   Cutoffs(Ang)
  1     2                                                            Min /  Max 
--------------------------------------------------------------------------------
Si   c O1   s Buckingham    Buckingham A     1315.2478    eV        0.000 16.000
                            Buckingham rho  0.31775900    Ang       
                            Buckingham C     10.141118    eV*Ang^6  
--------------------------------------------------------------------------------
Si   c O2   s Buckingham    Buckingham A     1315.2478    eV        0.000 16.000
                            Buckingham rho  0.31775900    Ang       
                            Buckingham C     10.141118    eV*Ang^6  
--------------------------------------------------------------------------------
Si   c O3   s Buckingham    Buckingham A     1315.2478    eV        0.000 16.000
                            Buckingham rho  0.31775900    Ang       
                            Buckingham C     10.141118    eV*Ang^6  
--------------------------------------------------------------------------------
Ge   c O1   s Buckingham    Buckingham A     1497.3996    eV        0.000 16.000
                            Buckingham rho  0.32564600    Ang       
                            Buckingham C     16.808599    eV*Ang^6  
--------------------------------------------------------------------------------
Ge   c O2   s Buckingham    Buckingham A     1497.3996    eV        0.000 16.000
                            Buckingham rho  0.32564600    Ang       
                            Buckingham C     16.808599    eV*Ang^6  
--------------------------------------------------------------------------------
Ge   c O3   s Buckingham    Buckingham A     1497.3996    eV        0.000 16.000
                            Buckingham rho  0.32564600    Ang       
                            Buckingham C     16.808599    eV*Ang^6  
--------------------------------------------------------------------------------
O1   s O1   s Buckingham    Buckingham A     22764.000    eV        0.000 16.000
                            Buckingham rho  0.14900000    Ang       
                            Buckingham C     10.937044    eV*Ang^6  
--------------------------------------------------------------------------------
O1   s O2   s Buckingham    Buckingham A     22764.000    eV        0.000 16.000
                            Buckingham rho  0.14900000    Ang       
                            Buckingham C     10.937044    eV*Ang^6  
--------------------------------------------------------------------------------
O1   s O3   s Buckingham    Buckingham A     22764.000    eV        0.000 16.000
                            Buckingham rho  0.14900000    Ang       
                            Buckingham C     10.937044    eV*Ang^6  
--------------------------------------------------------------------------------
O2   s O2   s Buckingham    Buckingham A     22764.000    eV        0.000 16.000
                            Buckingham rho  0.14900000    Ang       
                            Buckingham C     10.937044    eV*Ang^6  
--------------------------------------------------------------------------------
O2   s O3   s Buckingham    Buckingham A     22764.000    eV        0.000 16.000
                            Buckingham rho  0.14900000    Ang       
                            Buckingham C     10.937044    eV*Ang^6  
--------------------------------------------------------------------------------
O3   s O3   s Buckingham    Buckingham A     22764.000    eV        0.000 16.000
                            Buckingham rho  0.14900000    Ang       
                            Buckingham C     10.937044    eV*Ang^6  
--------------------------------------------------------------------------------
O1   c O1   s Spring (c-s)  Spring k 2       180.31577    eV*Ang^-2 0.000  0.800
                            Spring k 4       0.0000000    eV*Ang^-4 
--------------------------------------------------------------------------------
O2   c O2   s Spring (c-s)  Spring k 2       75.969800    eV*Ang^-2 0.000  0.800
                            Spring k 4       0.0000000    eV*Ang^-4 
--------------------------------------------------------------------------------
O3   c O3   s Spring (c-s)  Spring k 2       128.14270    eV*Ang^-2 0.000  0.800
                            Spring k 4       0.0000000    eV*Ang^-4 
--------------------------------------------------------------------------------

  General Three-body potentials :

--------------------------------------------------------------------------------
  Atoms       Potential      Parameter       Value         Units   Cutoffs(Ang)
  1 / 2 / 3                                                          Min /  Max 
--------------------------------------------------------------------------------
Si    core    Harmonic      Three-body cnst  1.2614000    eV*rad^-2 0.000  1.900
O1    shel                  Three-body angl  109.47000    degrees   0.000  1.900
O1    shel                  Three-body k4    0.0000000    eV*rad^-4 0.000  3.500
                            Three-body k3    0.0000000    eV*rad^-3 
--------------------------------------------------------------------------------
Si    core    Harmonic      Three-body cnst  1.2614000    eV*rad^-2 0.000  1.900
O1    shel                  Three-body angl  109.47000    degrees   0.000  1.900
õ(1   shel                  Three-body k4    0.0000000    eV*rad^-4 0.000  3.500
                            Three-body k3    0.0000000    eV*rad^-3 
--------------------------------------------------------------------------------
Si    core    Harmonic      Three-body cnst  1.2614000    eV*rad^-2 0.000  1.900
õ(1   shel                  Three-body angl  109.47000    degrees   0.000  1.900
õ(1   shel                  Three-body k4    0.0000000    eV*rad^-4 0.000  3.500
                            Three-body k3    0.0000000    eV*rad^-3 
--------------------------------------------------------------------------------
Si    core    Harmonic      Three-body cnst  1.2614000    eV*rad^-2 0.000  1.900
O1    shel                  Three-body angl  109.47000    degrees   0.000  1.900
O2    shel                  Three-body k4    0.0000000    eV*rad^-4 0.000  3.500
                            Three-body k3    0.0000000    eV*rad^-3 
--------------------------------------------------------------------------------
Si    core    Harmonic      Three-body cnst  1.2614000    eV*rad^-2 0.000  1.900
O1    shel                  Three-body angl  109.47000    degrees   0.000  1.900
õ(2   shel                  Three-body k4    0.0000000    eV*rad^-4 0.000  3.500
                            Three-body k3    0.0000000    eV*rad^-3 
--------------------------------------------------------------------------------
Si    core    Harmonic      Three-body cnst  1.2614000    eV*rad^-2 0.000  1.900
O2    shel                  Three-body angl  109.47000    degrees   0.000  1.900
õ(1   shel                  Three-body k4    0.0000000    eV*rad^-4 0.000  3.500
                            Three-body k3    0.0000000    eV*rad^-3 
--------------------------------------------------------------------------------
Si    core    Harmonic      Three-body cnst  1.2614000    eV*rad^-2 0.000  1.900
õ(1   shel                  Three-body angl  109.47000    degrees   0.000  1.900
õ(2   shel                  Three-body k4    0.0000000    eV*rad^-4 0.000  3.500
                            Three-body k3    0.0000000    eV*rad^-3 
--------------------------------------------------------------------------------
Si    core    Harmonic      Three-body cnst  1.2614000    eV*rad^-2 0.000  1.900
O2    shel                  Three-body angl  109.47000    degrees   0.000  1.900
O2    shel                  Three-body k4    0.0000000    eV*rad^-4 0.000  3.500
                            Three-body k3    0.0000000    eV*rad^-3 
--------------------------------------------------------------------------------
Si    core    Harmonic      Three-body cnst  1.2614000    eV*rad^-2 0.000  1.900
O2    shel                  Three-body angl  109.47000    degrees   0.000  1.900
õ(2   shel                  Three-body k4    0.0000000    eV*rad^-4 0.000  3.500
                            Three-body k3    0.0000000    eV*rad^-3 
--------------------------------------------------------------------------------
Si    core    Harmonic      Three-body cnst  1.2614000    eV*rad^-2 0.000  1.900
õ(2   shel                  Three-body angl  109.47000    degrees   0.000  1.900
õ(2   shel                  Three-body k4    0.0000000    eV*rad^-4 0.000  3.500
                            Three-body k3    0.0000000    eV*rad^-3 
--------------------------------------------------------------------------------

********************************************************************************
*  Output for configuration   1 : c01030.vasp                                  *
********************************************************************************


  Components of energy : 

--------------------------------------------------------------------------------
  Interatomic potentials     =         896.57689851 eV    
  Three-body potentials      =           0.00022496 eV    
  Monopole - monopole (real) =       -2676.00317478 eV    
  Monopole - monopole (recip)=       -1115.35404472 eV    
  Monopole - monopole (total)=       -3791.35721950 eV    
--------------------------------------------------------------------------------
  Total lattice energy       =       -2894.78009604 eV    
--------------------------------------------------------------------------------
  Total lattice energy       =         -279302.0285 kJ/(mole unit cells)
--------------------------------------------------------------------------------


  Number of variables =      363

  Maximum number of calculations  =          1000
  Maximum Hessian update interval =            10
  Maximum step size               =   0.100000000
  Maximum parameter tolerance     =   0.000010000
  Maximum function  tolerance     =   0.000010000
  Maximum gradient  tolerance     =   0.001000000
  Maximum gradient  component     =   0.010000000

  Symmetry not applied to optimisation

  Cell parameters to be optimised using strains

  Newton-Raphson optimiser to be used

  BFGS hessian update to be used

  Lower half triangular hessian to be used

  Minimiser to switch to RFO
  When gradient norm is less than     0.050000

  Dumpfile to be written after every cycle

  Start of bulk optimisation :

  Cycle:      0 Energy:     -2894.780096  Gnorm:      5.879240  CPU:    0.095
  ** Hessian calculated **
  Cycle:      1 Energy:     -2938.107998  Gnorm:      1.391927  CPU:    0.220
  ** Hessian calculated **
  Cycle:      2 Energy:     -2942.919843  Gnorm:      0.661606  CPU:    0.389
  Cycle:      3 Energy:     -2943.846805  Gnorm:      0.345430  CPU:    0.475
  Cycle:      4 Energy:     -2944.298034  Gnorm:      0.287269  CPU:    0.576
  Cycle:      5 Energy:     -2944.865555  Gnorm:      0.240365  CPU:    0.677
  Cycle:      6 Energy:     -2945.474230  Gnorm:      0.213142  CPU:    0.778
  Cycle:      7 Energy:     -2945.791450  Gnorm:      0.151864  CPU:    0.869
  Cycle:      8 Energy:     -2945.924345  Gnorm:      0.111343  CPU:    0.960
  Cycle:      9 Energy:     -2945.991238  Gnorm:      0.090782  CPU:    1.069
  Cycle:     10 Energy:     -2946.033713  Gnorm:      0.077438  CPU:    1.176
  Cycle:     11 Energy:     -2946.072096  Gnorm:      0.078621  CPU:    1.284
  ** Hessian calculated **
  Cycle:     12 Energy:     -2946.096218  Gnorm:      0.077463  CPU:    1.482
  Cycle:     13 Energy:     -2946.138772  Gnorm:      0.075290  CPU:    1.607
  Cycle:     14 Energy:     -2946.209797  Gnorm:      0.071182  CPU:    1.732
  Cycle:     15 Energy:     -2946.295316  Gnorm:      0.065496  CPU:    1.840
  Cycle:     16 Energy:     -2946.407797  Gnorm:      0.056680  CPU:    1.965
  Cycle:     17 Energy:     -2946.484764  Gnorm:      0.050478  CPU:    2.075
  Cycle:     18 Energy:     -2946.500612  Gnorm:      0.050095  CPU:    2.167
  ** Hessian calculated **
  Cycle:     19 Energy:     -2946.679229  Gnorm:      0.037760  CPU:    2.364
  ** Hessian has wrong structure
  ** Imaginary eigenvectors =   5
  Cycle:     20 Energy:     -2946.748076  Gnorm:      0.113556  CPU:    2.610
  ** Hessian has wrong structure
  ** Imaginary eigenvectors =   3
  ** Hessian has wrong structure
  ** Imaginary eigenvectors =   2
  Cycle:     21 Energy:     -2946.834461  Gnorm:      0.129389  CPU:    3.056
  ** Hessian has wrong structure
  ** Imaginary eigenvectors =   1
  ** Hessian has required structure
  Cycle:     22 Energy:     -2947.150594  Gnorm:      0.102616  CPU:    3.424
  ** Hessian has required structure
  Cycle:     23 Energy:     -2947.316246  Gnorm:      0.085264  CPU:    3.586
  ** Hessian has required structure
  Cycle:     24 Energy:     -2947.408224  Gnorm:      0.066204  CPU:    3.715
  ** Hessian has required structure
  Cycle:     25 Energy:     -2947.456310  Gnorm:      0.056644  CPU:    3.860
  ** Hessian has required structure
  Cycle:     26 Energy:     -2947.504367  Gnorm:      0.055142  CPU:    4.021
  ** Hessian has required structure
  Cycle:     27 Energy:     -2947.522055  Gnorm:      0.075577  CPU:    4.153
  ** Hessian has required structure
  Cycle:     28 Energy:     -2947.544367  Gnorm:      0.060605  CPU:    4.298
  ** Hessian has required structure
  Cycle:     29 Energy:     -2947.559773  Gnorm:      0.052294  CPU:    4.445
  ** Hessian has required structure
  Cycle:     30 Energy:     -2947.569265  Gnorm:      0.034247  CPU:    4.575
  ** Hessian has required structure
  Cycle:     31 Energy:     -2947.578013  Gnorm:      0.025371  CPU:    4.737
  ** Hessian has required structure
  Cycle:     32 Energy:     -2947.589738  Gnorm:      0.013622  CPU:    4.978
  ** Hessian has required structure
  Cycle:     33 Energy:     -2947.593014  Gnorm:      0.007612  CPU:    5.139
  ** Hessian has required structure
  Cycle:     34 Energy:     -2947.594009  Gnorm:      0.003873  CPU:    5.299
  ** Hessian has required structure
  Cycle:     35 Energy:     -2947.594294  Gnorm:      0.002073  CPU:    5.460
  ** Hessian has required structure
  Cycle:     36 Energy:     -2947.594374  Gnorm:      0.001001  CPU:    5.622
  ** Hessian has required structure
  Cycle:     37 Energy:     -2947.594401  Gnorm:      0.000536  CPU:    5.784
  ** Hessian has required structure
  Cycle:     38 Energy:     -2947.594407  Gnorm:      0.000244  CPU:    5.946
  ** Hessian has required structure
  Cycle:     39 Energy:     -2947.594408  Gnorm:      0.000178  CPU:    6.074
  ** Hessian has required structure
  Cycle:     40 Energy:     -2947.594408  Gnorm:      0.000119  CPU:    6.201
  ** Hessian has required structure


  **** Optimisation achieved ****


  Final energy =   -2947.59440856 eV      
  Final Gnorm  =       0.00008722

  Components of energy : 

--------------------------------------------------------------------------------
  Interatomic potentials     =         779.14105842 eV    
  Three-body potentials      =           0.00124440 eV    
  Monopole - monopole (real) =       -1554.03864916 eV    
  Monopole - monopole (recip)=       -2172.69806221 eV    
  Monopole - monopole (total)=       -3726.73671138 eV    
--------------------------------------------------------------------------------
  Total lattice energy       =       -2947.59440856 eV    
--------------------------------------------------------------------------------
  Total lattice energy       =         -284397.8023 kJ/(mole unit cells)
--------------------------------------------------------------------------------

  Final fractional coordinates of atoms :

--------------------------------------------------------------------------------
   No.  Atomic        x           y          z          Radius
        Label       (Frac)      (Frac)     (Frac)       (Angs) 
--------------------------------------------------------------------------------
     1  Ge    c     0.052090    0.000000    0.372270    0.000000
     2  Ge    c     0.446714    0.946072    0.397999    0.000000
     3  Ge    c     0.944777    0.929046    0.617239    0.000000
     4  Ge    c     0.547094    0.996021    0.132864    0.000000
     5  Ge    c     0.955438    0.933442    0.112583    0.000000
     6  Ge    c     0.059950    0.994751    0.856794    0.000000
     7  Ge    c     0.148947    0.312451    0.295212    0.000000
     8  Ge    c     0.354215    0.634585    0.305426    0.000000
     9  Ge    c     0.824741    0.216722    0.738088    0.000000
    10  Ge    c     0.665992    0.682807    0.737983    0.000000
    11  Ge    c     0.849806    0.616074    0.729578    0.000000
    12  Ge    c     0.175212    0.717464    0.297945    0.000000
    13  Ge    c     0.328682    0.226949    0.300020    0.000000
    14  Ge    c     0.649757    0.303400    0.064702    0.000000
    15  Ge    c     0.851159    0.624430    0.052212    0.000000
    16  Ge    c     0.335676    0.239828    0.983723    0.000000
    17  Ge    c     0.178420    0.712282    0.980635    0.000000
    18  Ge    c     0.151422    0.311735    0.976139    0.000000
    19  Ge    c     0.671793    0.707886    0.056022    0.000000
    20  Ge    c     0.828304    0.220084    0.055815    0.000000
    21  Si    c     0.553959    0.979147    0.641745    0.000000
    22  Si    c     0.447077    0.945208    0.878589    0.000000
    23  Si    c     0.645737    0.288671    0.752763    0.000000
    24  Si    c     0.358299    0.638251    0.995748    0.000000
    25  O1    c     0.085093    0.203523    0.389645    0.000000
    26  O1    c     0.415150    0.741046    0.407332    0.000000
    27  O1    c     0.866120    0.055733    0.648349    0.000000
    28  O3    c     0.616760    0.829102    0.642085    0.000000
    29  O1    c     0.917894    0.723180    0.643895    0.000000
    30  O2    c     0.586166    0.163467    0.682364    0.000000
    31  O1    c     0.124805    0.853333    0.398897    0.000000
    32  O1    c     0.373014    0.092906    0.408942    0.000000
    33  O1    c     0.970979    0.956892    0.455569    0.000000
    34  O3    c     0.523292    0.993400    0.494048    0.000000
    35  O1    c     0.031777    0.976036    0.206481    0.000000
    36  O1    c     0.474375    0.963239    0.235433    0.000000
    37  O1    c     0.026889    0.982852    0.698298    0.000000
    38  O2    c     0.480142    0.932109    0.729855    0.000000
    39  O1    c     0.583568    0.197575    0.152585    0.000000
    40  O1    c     0.918614    0.733741    0.136807    0.000000
    41  O3    c     0.381499    0.091059    0.883621    0.000000
    42  O1    c     0.139274    0.866054    0.882515    0.000000
    43  O2    c     0.415344    0.758175    0.914934    0.000000
    44  O1    c     0.086421    0.201543    0.886551    0.000000
    45  O1    c     0.620527    0.848749    0.150556    0.000000
    46  O1    c     0.883336    0.081643    0.143676    0.000000
    47  O3    c     0.516558    0.990852    0.971024    0.000000
    48  O1    c     0.984135    0.935675    0.950349    0.000000
    49  O1    c     0.162763    0.512082    0.355684    0.000000
    50  O1    c     0.340201    0.432994    0.358612    0.000000
    51  O1    c     0.843864    0.410768    0.669622    0.000000
    52  O3    c     0.649980    0.473600    0.684787    0.000000
    53  O1    c     0.232919    0.192690    0.291611    0.000000
    54  O1    c     0.270810    0.754756    0.302846    0.000000
    55  O3    c     0.727294    0.192060    0.747355    0.000000
    56  O1    c     0.761687    0.716044    0.721162    0.000000
    57  O1    c     0.119027    0.328053    0.135037    0.000000
    58  O3    c     0.387797    0.620230    0.144280    0.000000
    59  O1    c     0.859192    0.205500    0.895144    0.000000
    60  O1    c     0.638686    0.715657    0.896970    0.000000
    61  O1    c     0.877348    0.600530    0.890121    0.000000
    62  O3    c     0.621925    0.325785    0.901641    0.000000
    63  O1    c     0.143365    0.729864    0.137848    0.000000
    64  O1    c     0.365174    0.211185    0.142405    0.000000
    65  O1    c     0.662175    0.505630    0.121257    0.000000
    66  O1    c     0.839257    0.425826    0.115228    0.000000
    67  O3    c     0.353663    0.448898    0.934382    0.000000
    68  O1    c     0.158677    0.515006    0.915915    0.000000
    69  O1    c     0.732918    0.181985    0.065952    0.000000
    70  O1    c     0.767578    0.745194    0.054061    0.000000
    71  O1    c     0.239658    0.210877    0.973394    0.000000
    72  O3    c     0.275954    0.730998    0.995177    0.000000
    73  O1    s     0.087286    0.196365    0.381507    0.000000
    74  O1    s     0.413045    0.748615    0.399150    0.000000
    75  O1    s     0.868903    0.058747    0.653095    0.000000
    76  O3    s     0.614374    0.832467    0.649742    0.000000
    77  O1    s     0.914826    0.730811    0.648283    0.000000
    78  O2    s     0.589028    0.157136    0.685470    0.000000
    79  O1    s     0.123308    0.853721    0.389304    0.000000
    80  O1    s     0.375173    0.092054    0.399875    0.000000
    81  O1    s     0.975423    0.958211    0.460740    0.000000
    82  O3    s     0.519871    0.988029    0.500405    0.000000
    83  O1    s     0.027085    0.974361    0.210474    0.000000
    84  O1    s     0.478537    0.964773    0.238455    0.000000
    85  O1    s     0.023377    0.979817    0.703968    0.000000
    86  O2    s     0.484144    0.938152    0.735973    0.000000
    87  O1    s     0.586083    0.191285    0.144371    0.000000
    88  O1    s     0.916203    0.739925    0.128711    0.000000
    89  O3    s     0.384215    0.088807    0.891137    0.000000
    90  O1    s     0.136462    0.863569    0.888264    0.000000
    91  O2    s     0.412614    0.764748    0.919682    0.000000
    92  O1    s     0.089438    0.194567    0.891209    0.000000
    93  O1    s     0.619117    0.848594    0.141872    0.000000
    94  O1    s     0.884233    0.081821    0.134513    0.000000
    95  O3    s     0.511902    0.986612    0.974181    0.000000
    96  O1    s     0.987752    0.939946    0.954887    0.000000
    97  O1    s     0.162570    0.510970    0.346803    0.000000
    98  O1    s     0.340482    0.434308    0.350115    0.000000
    99  O1    s     0.842887    0.411380    0.679102    0.000000
   100  O3    s     0.650744    0.471677    0.695071    0.000000
   101  O1    s     0.234128    0.203669    0.292469    0.000000
   102  O1    s     0.269681    0.743345    0.302644    0.000000
   103  O3    s     0.727156    0.203288    0.747164    0.000000
   104  O1    s     0.761004    0.706180    0.723034    0.000000
   105  O1    s     0.123624    0.325695    0.135094    0.000000
   106  O3    s     0.382507    0.623014    0.142187    0.000000
   107  O1    s     0.854414    0.207367    0.895020    0.000000
   108  O1    s     0.643230    0.712570    0.896341    0.000000
   109  O1    s     0.873308    0.603470    0.889903    0.000000
   110  O3    s     0.626417    0.320451    0.899276    0.000000
   111  O1    s     0.148207    0.727680    0.137726    0.000000
   112  O1    s     0.360395    0.214417    0.141773    0.000000
   113  O1    s     0.661896    0.504197    0.112176    0.000000
   114  O1    s     0.839394    0.426537    0.106109    0.000000
   115  O3    s     0.352783    0.451411    0.943866    0.000000
   116  O1    s     0.159595    0.514488    0.925187    0.000000
   117  O1    s     0.734085    0.193531    0.065080    0.000000
   118  O1    s     0.766419    0.733896    0.054053    0.000000
   119  O1    s     0.240504    0.220486    0.974386    0.000000
   120  O3    s     0.276203    0.720540    0.994095    0.000000
--------------------------------------------------------------------------------

  Final Cartesian lattice vectors (Angstroms) :

       17.566717    0.185444    0.020244
        0.083317    7.821455   -0.024461
        0.010005   -0.035606   10.187937


  Final cell parameters and derivatives :

--------------------------------------------------------------------------------
       a           17.567708 Angstrom     dE/de1(xx)     0.007550 eV/strain
       b            7.821937 Angstrom     dE/de2(yy)     0.008107 eV/strain
       c           10.188004 Angstrom     dE/de3(zz)     0.005478 eV/strain
       alpha       90.378809 Degrees      dE/de4(yz)     0.000188 eV/strain
       beta        89.879823 Degrees      dE/de5(xz)    -0.000045 eV/strain
       gamma       88.785075 Degrees      dE/de6(xy)    -0.001124 eV/strain
--------------------------------------------------------------------------------

  Primitive cell volume =          1399.620410 Angs**3

  Density of cell =      2.767442 g/cm**3

  Non-primitive cell volume =          1399.620410 Angs**3


  Final internal derivatives :

--------------------------------------------------------------------------------
   No.  Atomic          a             b             c           Radius
        Label          (eV)          (eV)          (eV)        (eV/Angs)
--------------------------------------------------------------------------------
      1 Ge    c       0.000000      0.000000      0.000000      0.000000
      2 Ge    c       0.000978     -0.000426     -0.000606      0.000000
      3 Ge    c       0.003817     -0.000498     -0.001364      0.000000
      4 Ge    c      -0.002823      0.000485      0.000955      0.000000
      5 Ge    c      -0.001811     -0.000940     -0.002058      0.000000
      6 Ge    c       0.003114      0.000165      0.000472      0.000000
      7 Ge    c      -0.000249     -0.000207     -0.000277      0.000000
      8 Ge    c       0.000274      0.000846     -0.000294      0.000000
      9 Ge    c      -0.000111     -0.000213      0.001461      0.000000
     10 Ge    c      -0.001716      0.000364     -0.000006      0.000000
     11 Ge    c      -0.003035     -0.000959     -0.000527      0.000000
     12 Ge    c      -0.000662      0.000452      0.000498      0.000000
     13 Ge    c      -0.000425     -0.000067      0.000062      0.000000
     14 Ge    c      -0.002210     -0.001017     -0.000451      0.000000
     15 Ge    c       0.003609      0.000635      0.000665      0.000000
     16 Ge    c      -0.001302      0.000057     -0.000589      0.000000
     17 Ge    c      -0.000869      0.000744     -0.001911      0.000000
     18 Ge    c       0.000365     -0.000361     -0.000173      0.000000
     19 Ge    c      -0.004251      0.000758      0.000149      0.000000
     20 Ge    c       0.003124     -0.000907     -0.000362      0.000000
     21 Si    c       0.000122      0.001378      0.000122      0.000000
     22 Si    c      -0.001952     -0.000969      0.000515      0.000000
     23 Si    c      -0.000383     -0.001016      0.000029      0.000000
     24 Si    c       0.000440      0.000525      0.000077      0.000000
     25 O1    c      -0.001185     -0.000599      0.001159      0.000000
     26 O1    c       0.000430      0.000916      0.000306      0.000000
     27 O1    c      -0.009736      0.003822     -0.000928      0.000000
     28 O3    c       0.003628     -0.002788     -0.000648      0.000000
     29 O1    c       0.004522     -0.002753     -0.002104      0.000000
     30 O2    c      -0.000686     -0.000166     -0.000087      0.000000
     31 O1    c       0.001446     -0.000851     -0.000455      0.000000
     32 O1    c      -0.001739      0.000351     -0.000055      0.000000
     33 O1    c       0.003302      0.000242     -0.001498      0.000000
     34 O3    c      -0.001811     -0.000456     -0.001651      0.000000
     35 O1    c       0.007756     -0.000894      0.002724      0.000000
     36 O1    c      -0.000097     -0.000162     -0.000427      0.000000
     37 O1    c       0.005135     -0.000630      0.002113      0.000000
     38 O2    c       0.000218     -0.000321     -0.000775      0.000000
     39 O1    c       0.001412      0.001536      0.000787      0.000000
     40 O1    c      -0.001959     -0.001032      0.000297      0.000000
     41 O3    c      -0.001336      0.000470      0.000219      0.000000
     42 O1    c      -0.000125     -0.000346      0.001787      0.000000
     43 O2    c       0.000977      0.000984     -0.000166      0.000000
     44 O1    c      -0.003640     -0.002396     -0.000753      0.000000
     45 O1    c       0.005683     -0.003624     -0.000619      0.000000
     46 O1    c      -0.004984      0.003794      0.000295      0.000000
     47 O3    c      -0.001565      0.000241     -0.001989      0.000000
     48 O1    c       0.000081      0.001126     -0.002333      0.000000
     49 O1    c      -0.000141      0.000190      0.000624      0.000000
     50 O1    c      -0.000161     -0.001398      0.000421      0.000000
     51 O1    c       0.002368      0.002645     -0.001548      0.000000
     52 O3    c      -0.000611     -0.000009     -0.000983      0.000000
     53 O1    c       0.001791     -0.001048     -0.000295      0.000000
     54 O1    c       0.001119      0.000996      0.000025      0.000000
     55 O3    c      -0.000087     -0.000439     -0.000052      0.000000
     56 O1    c       0.001781      0.000990      0.000183      0.000000
     57 O1    c      -0.001609      0.000160      0.001017      0.000000
     58 O3    c      -0.000637     -0.000266     -0.000234      0.000000
     59 O1    c       0.001509     -0.000256     -0.000298      0.000000
     60 O1    c      -0.001585      0.000089      0.000514      0.000000
     61 O1    c       0.006092      0.000688      0.003045      0.000000
     62 O3    c      -0.000308      0.000494      0.000429      0.000000
     63 O1    c      -0.000091     -0.000234     -0.000098      0.000000
     64 O1    c      -0.000012     -0.000144      0.000314      0.000000
     65 O1    c      -0.001980      0.001091      0.001572      0.000000
     66 O1    c       0.002767      0.001109      0.001562      0.000000
     67 O3    c      -0.000637     -0.000762     -0.000076      0.000000
     68 O1    c       0.000640      0.001068      0.000263      0.000000
     69 O1    c      -0.001326     -0.002666      0.000549      0.000000
     70 O1    c      -0.000590      0.003112     -0.000651      0.000000
     71 O1    c       0.002362     -0.000577      0.000288      0.000000
     72 O3    c      -0.001930      0.000235      0.000126      0.000000
     73 O1    s      -0.000550      0.000819     -0.000712      0.000000
     74 O1    s       0.001377     -0.000617      0.000171      0.000000
     75 O1    s       0.003088     -0.001282     -0.000059      0.000000
     76 O3    s      -0.000910      0.001153      0.000019      0.000000
     77 O1    s      -0.003916      0.000029     -0.000826      0.000000
     78 O2    s      -0.000234      0.000676      0.000166      0.000000
     79 O1    s       0.000084      0.000047      0.001017      0.000000
     80 O1    s       0.001568      0.000067      0.000311      0.000000
     81 O1    s      -0.000024     -0.000268     -0.000429      0.000000
     82 O3    s      -0.000417      0.000540     -0.000403      0.000000
     83 O1    s      -0.001633      0.000545     -0.001050      0.000000
     84 O1    s      -0.000281     -0.000232      0.000928      0.000000
     85 O1    s       0.001617      0.001064     -0.001274      0.000000
     86 O2    s      -0.001633      0.000139     -0.000190      0.000000
     87 O1    s      -0.001429     -0.000226      0.001121      0.000000
     88 O1    s       0.001087     -0.001079      0.000781      0.000000
     89 O3    s       0.000724     -0.000171      0.000104      0.000000
     90 O1    s      -0.000061     -0.000097     -0.000050      0.000000
     91 O2    s       0.000616     -0.000295      0.000196      0.000000
     92 O1    s       0.002048      0.000875     -0.000051      0.000000
     93 O1    s      -0.002262      0.001500      0.001664      0.000000
     94 O1    s       0.000253     -0.001257      0.001463      0.000000
     95 O3    s      -0.001089     -0.000028      0.000204      0.000000
     96 O1    s       0.003432     -0.001458      0.001015      0.000000
     97 O1    s       0.000437      0.000317     -0.000267      0.000000
     98 O1    s       0.000229      0.000567      0.000323      0.000000
     99 O1    s      -0.002232     -0.001659      0.000241      0.000000
    100 O3    s       0.000597     -0.000136     -0.000228      0.000000
    101 O1    s      -0.000719      0.000632      0.000704      0.000000
    102 O1    s      -0.001769     -0.000772      0.000194      0.000000
    103 O3    s      -0.000969      0.000119      0.000306      0.000000
    104 O1    s      -0.002142      0.000026     -0.000747      0.000000
    105 O1    s      -0.000632     -0.000256     -0.000088      0.000000
    106 O3    s       0.001128      0.000176      0.000127      0.000000
    107 O1    s      -0.000649      0.000392      0.000022      0.000000
    108 O1    s       0.000193      0.000218     -0.000175      0.000000
    109 O1    s      -0.000872     -0.000767     -0.001018      0.000000
    110 O3    s      -0.000184     -0.000412     -0.000546      0.000000
    111 O1    s      -0.000819      0.000243     -0.000341      0.000000
    112 O1    s       0.000984     -0.000006     -0.000184      0.000000
    113 O1    s       0.002747     -0.000393     -0.000071      0.000000
    114 O1    s      -0.003105     -0.000528     -0.000548      0.000000
    115 O3    s       0.000919      0.000178     -0.000395      0.000000
    116 O1    s      -0.000552      0.000414     -0.000585      0.000000
    117 O1    s       0.000321      0.001943     -0.000422      0.000000
    118 O1    s      -0.000063     -0.002041      0.001222      0.000000
    119 O1    s      -0.000355      0.000259     -0.000513      0.000000
    120 O3    s      -0.000387      0.000002     -0.000210      0.000000
--------------------------------------------------------------------------------
  Maximum abs         0.009736      0.003822      0.003045      0.000000
--------------------------------------------------------------------------------


  Born effective charge tensors : 

-------------------------------------------------------------------------------
  Atom             x           y             z
-------------------------------------------------------------------------------
    1 Ge    x       4.1619      0.2550      0.0735
            y      -0.0601      3.9276     -0.0133
            z      -0.8107     -0.1527      4.1476
-------------------------------------------------------------------------------
    2 Ge    x       3.9467      0.2200      0.0310
            y      -0.1466      3.9127     -0.0112
            z       0.8508      0.1892      4.3622
-------------------------------------------------------------------------------
    3 Ge    x       4.2858      0.3276     -0.4928
            y      -0.1266      3.8991     -0.0726
            z      -0.2453     -0.0909      4.3870
-------------------------------------------------------------------------------
    4 Ge    x       4.2474      0.1767      0.0170
            y      -0.0975      3.9291      0.0034
            z      -0.6974     -0.1541      3.7222
-------------------------------------------------------------------------------
    5 Ge    x       4.3740      0.1866     -0.0769
            y      -0.0670      3.9217      0.0262
            z       0.6157      0.1683      3.6879
-------------------------------------------------------------------------------
    6 Ge    x       4.3628      0.2645      0.4142
            y      -0.1419      3.9192      0.0411
            z       0.3601      0.0138      3.9830
-------------------------------------------------------------------------------
    7 Ge    x       3.9159      0.0850     -0.2507
            y       0.4468      4.2119     -0.0973
            z      -0.0680     -0.1856      3.5906
-------------------------------------------------------------------------------
    8 Ge    x       3.8112      0.0638      0.3093
            y       0.4433      4.2176      0.1150
            z       0.1157      0.2039      3.6304
-------------------------------------------------------------------------------
    9 Ge    x       3.9277     -0.2974     -0.2786
            y      -0.2434      4.1938      0.0282
            z      -0.0131      0.1823      3.5961
-------------------------------------------------------------------------------
   10 Ge    x       3.9646     -0.2527      0.1571
            y      -0.2775      4.2021     -0.0871
            z      -0.0850     -0.1528      3.4756
-------------------------------------------------------------------------------
   11 Ge    x       4.0585      0.0842     -0.1758
            y       0.4398      4.1837     -0.1089
            z      -0.1209     -0.2055      3.5955
-------------------------------------------------------------------------------
   12 Ge    x       4.0494     -0.2376     -0.3192
            y      -0.2784      4.1312      0.0886
            z      -0.0260      0.1518      3.5919
-------------------------------------------------------------------------------
   13 Ge    x       3.9712     -0.2319      0.3073
            y      -0.2616      4.1866     -0.1349
            z       0.0164     -0.2048      3.6786
-------------------------------------------------------------------------------
   14 Ge    x       3.9825      0.0810     -0.3251
            y       0.4605      4.1910     -0.0687
            z      -0.1297     -0.1887      3.4176
-------------------------------------------------------------------------------
   15 Ge    x       4.0549      0.0938      0.2961
            y       0.4459      4.1864      0.0661
            z       0.1198      0.1726      3.4534
-------------------------------------------------------------------------------
   16 Ge    x       4.0051     -0.2472     -0.2704
            y      -0.2335      4.2024      0.1056
            z       0.0309      0.1589      3.4424
-------------------------------------------------------------------------------
   17 Ge    x       3.9645     -0.2800      0.3708
            y      -0.2238      4.1750     -0.0690
            z       0.0328     -0.1711      3.5546
-------------------------------------------------------------------------------
   18 Ge    x       4.1064      0.0927      0.2659
            y       0.4213      4.1937      0.0992
            z       0.1201      0.1869      3.5157
-------------------------------------------------------------------------------
   19 Ge    x       4.0915     -0.2622     -0.2854
            y      -0.3196      4.1749      0.0616
            z      -0.0200      0.1600      3.4927
-------------------------------------------------------------------------------
   20 Ge    x       4.1408     -0.2605      0.3168
            y      -0.3316      4.1399     -0.0530
            z       0.0641     -0.1368      3.4502
-------------------------------------------------------------------------------
   21 Si    x       3.5315     -0.0449      0.4672
            y      -0.2858      3.4496      0.1112
            z       0.3325     -0.1484      3.9974
-------------------------------------------------------------------------------
   22 Si    x       3.8011      0.0253     -0.2235
            y      -0.2182      3.4704     -0.1032
            z      -0.2072      0.0705      3.2725
-------------------------------------------------------------------------------
   23 Si    x       3.5031     -0.0308      0.0585
            y       0.2735      3.8875     -0.0346
            z      -0.0601      0.1738      3.1793
-------------------------------------------------------------------------------
   24 Si    x       3.5492     -0.0344     -0.1699
            y       0.2573      3.8875      0.0276
            z       0.0205     -0.1267      3.1496
-------------------------------------------------------------------------------
   25 O1    x      -1.9554     -0.8536      0.3685
            y      -0.8136     -2.5098      0.3204
            z       0.4321      0.3402     -1.5989
-------------------------------------------------------------------------------
   26 O1    x      -1.8809     -0.8421     -0.4387
            y      -0.7779     -2.4881     -0.3965
            z      -0.5002     -0.4385     -1.7269
-------------------------------------------------------------------------------
   27 O1    x      -2.2343      0.8885      0.5496
            y       0.9272     -2.3228     -0.5419
            z       0.4961     -0.5580     -1.6536
-------------------------------------------------------------------------------
   28 O3    x      -2.0162      0.9246     -0.3577
            y       0.9561     -2.3540      0.3566
            z      -0.3132      0.3985     -1.4774
-------------------------------------------------------------------------------
   29 O1    x      -1.9884     -0.8365      0.5100
            y      -0.7954     -2.5559      0.5155
            z       0.4812      0.5144     -1.6274
-------------------------------------------------------------------------------
   30 O2    x      -1.5992     -0.6659     -0.3342
            y      -0.6088     -2.0295     -0.3701
            z      -0.2809     -0.3603     -1.3260
-------------------------------------------------------------------------------
   31 O1    x      -2.1977      0.8870      0.3126
            y       0.9290     -2.2305     -0.3362
            z       0.3825     -0.3416     -1.6406
-------------------------------------------------------------------------------
   32 O1    x      -2.1164      0.8550     -0.3932
            y       0.9154     -2.2517      0.4556
            z      -0.4578      0.4409     -1.7366
-------------------------------------------------------------------------------
   33 O1    x      -2.1299     -0.2857      0.8788
            y      -0.1277     -1.2869      0.1846
            z       1.0948      0.3358     -2.9908
-------------------------------------------------------------------------------
   34 O3    x      -1.8824     -0.1555     -0.9033
            y      -0.0430     -1.1962     -0.0499
            z      -1.1424     -0.0999     -3.0691
-------------------------------------------------------------------------------
   35 O1    x      -2.1449     -0.2259     -0.8078
            y      -0.1012     -1.3511     -0.1810
            z      -0.7587     -0.2397     -2.5913
-------------------------------------------------------------------------------
   36 O1    x      -2.0543     -0.1915      0.8168
            y      -0.0845     -1.3344      0.1601
            z       0.8476      0.1943     -2.7747
-------------------------------------------------------------------------------
   37 O1    x      -2.1928     -0.2698     -0.7860
            y      -0.1452     -1.3058     -0.1662
            z      -0.8374     -0.2040     -2.6972
-------------------------------------------------------------------------------
   38 O2    x      -1.7180     -0.1607      0.5789
            y      -0.0697     -1.1468      0.0767
            z       0.5858      0.1063     -2.0888
-------------------------------------------------------------------------------
   39 O1    x      -2.0811     -0.8923      0.3525
            y      -0.8506     -2.4688      0.2679
            z       0.4150      0.3158     -1.5125
-------------------------------------------------------------------------------
   40 O1    x      -2.1333     -0.8934     -0.3401
            y      -0.8655     -2.4807     -0.2366
            z      -0.3954     -0.2749     -1.4434
-------------------------------------------------------------------------------
   41 O3    x      -2.0538      0.9259      0.4384
            y       0.9213     -2.3331     -0.4152
            z       0.3656     -0.4171     -1.4256
-------------------------------------------------------------------------------
   42 O1    x      -2.2475      0.8727     -0.5619
            y       0.8956     -2.2883      0.5659
            z      -0.4671      0.5365     -1.6221
-------------------------------------------------------------------------------
   43 O2    x      -1.6135     -0.6355      0.4062
            y      -0.5648     -2.0336      0.4402
            z       0.3287      0.4037     -1.3018
-------------------------------------------------------------------------------
   44 O1    x      -2.0181     -0.8367     -0.5389
            y      -0.7641     -2.5661     -0.5498
            z      -0.4774     -0.5272     -1.5684
-------------------------------------------------------------------------------
   45 O1    x      -2.2412      0.9124      0.3098
            y       0.9666     -2.2886     -0.3549
            z       0.3713     -0.3550     -1.5283
-------------------------------------------------------------------------------
   46 O1    x      -2.3009      0.9362     -0.2924
            y       0.9734     -2.2669      0.2739
            z      -0.3755      0.3216     -1.4862
-------------------------------------------------------------------------------
   47 O3    x      -2.0508     -0.2323     -0.7324
            y      -0.1509     -1.3043     -0.1595
            z      -0.5026     -0.1391     -2.1534
-------------------------------------------------------------------------------
   48 O1    x      -2.1742     -0.2328      0.7280
            y      -0.1417     -1.3662      0.1801
            z       0.5171      0.1497     -2.3272
-------------------------------------------------------------------------------
   49 O1    x      -1.3629     -0.2000      0.0684
            y      -0.2933     -3.1603     -0.0243
            z       0.0193     -0.0222     -1.3804
-------------------------------------------------------------------------------
   50 O1    x      -1.3289     -0.1819     -0.0626
            y      -0.2954     -3.2147      0.0065
            z      -0.0074      0.0345     -1.4012
-------------------------------------------------------------------------------
   51 O1    x      -1.3831     -0.1992      0.1069
            y      -0.2831     -3.1200      0.0454
            z       0.0629      0.0274     -1.4108
-------------------------------------------------------------------------------
   52 O3    x      -1.2532     -0.1235     -0.0564
            y      -0.2262     -3.0844      0.1973
            z      -0.0076      0.1961     -1.3182
-------------------------------------------------------------------------------
   53 O1    x      -3.0126      0.2796     -0.0302
            y       0.1880     -1.6145      0.0086
            z      -0.0114      0.0436     -1.2197
-------------------------------------------------------------------------------
   54 O1    x      -2.9922      0.2702     -0.0274
            y       0.1717     -1.5974     -0.0156
            z      -0.0338     -0.0488     -1.2351
-------------------------------------------------------------------------------
   55 O3    x      -2.9350      0.3218      0.0617
            y       0.2319     -1.4768     -0.0223
            z       0.0420     -0.0627     -1.1426
-------------------------------------------------------------------------------
   56 O1    x      -3.1456      0.2401      0.0456
            y       0.1675     -1.5676      0.0387
            z       0.0740      0.0639     -1.2166
-------------------------------------------------------------------------------
   57 O1    x      -1.4776     -0.0218     -0.0061
            y      -0.0862     -1.4315      0.0085
            z      -0.0004      0.0135     -2.7428
-------------------------------------------------------------------------------
   58 O3    x      -1.3632     -0.0216     -0.0194
            y      -0.0912     -1.3632      0.0702
            z      -0.0160      0.0460     -2.6245
-------------------------------------------------------------------------------
   59 O1    x      -1.5398      0.1098     -0.1144
            y       0.1189     -1.4142      0.0151
            z      -0.0777     -0.0009     -2.7083
-------------------------------------------------------------------------------
   60 O1    x      -1.4589      0.1240     -0.0452
            y       0.1345     -1.4631     -0.0770
            z      -0.0250     -0.0941     -2.7159
-------------------------------------------------------------------------------
   61 O1    x      -1.4528     -0.0242     -0.0674
            y      -0.0880     -1.4378     -0.0229
            z      -0.0491     -0.0269     -2.7669
-------------------------------------------------------------------------------
   62 O3    x      -1.3367     -0.0151      0.0808
            y      -0.0857     -1.3906     -0.1073
            z       0.0519     -0.1035     -2.5932
-------------------------------------------------------------------------------
   63 O1    x      -1.5538      0.1139      0.0689
            y       0.1245     -1.4132     -0.0287
            z       0.0204     -0.0171     -2.7127
-------------------------------------------------------------------------------
   64 O1    x      -1.4778      0.1215      0.1069
            y       0.1411     -1.4604      0.0561
            z       0.0811      0.0642     -2.7338
-------------------------------------------------------------------------------
   65 O1    x      -1.3689     -0.1657      0.0709
            y      -0.2489     -3.1616      0.0175
            z       0.0106     -0.0211     -1.3842
-------------------------------------------------------------------------------
   66 O1    x      -1.3989     -0.1920     -0.0783
            y      -0.2518     -3.1358      0.0403
            z      -0.0312      0.0390     -1.3551
-------------------------------------------------------------------------------
   67 O3    x      -1.2879     -0.1360      0.0870
            y      -0.2512     -3.1409     -0.1657
            z       0.0273     -0.1537     -1.2534
-------------------------------------------------------------------------------
   68 O1    x      -1.4152     -0.2212     -0.1177
            y      -0.3026     -3.1360     -0.0094
            z      -0.0564     -0.0078     -1.3597
-------------------------------------------------------------------------------
   69 O1    x      -3.0332      0.2789      0.0324
            y       0.1722     -1.5963      0.0167
            z       0.0135      0.0584     -1.2083
-------------------------------------------------------------------------------
   70 O1    x      -3.0549      0.2778      0.0117
            y       0.1792     -1.6161     -0.0053
            z      -0.0159     -0.0457     -1.1869
-------------------------------------------------------------------------------
   71 O1    x      -3.1803      0.2638     -0.0394
            y       0.1826     -1.5700     -0.0277
            z      -0.0630     -0.0480     -1.1987
-------------------------------------------------------------------------------
   72 O3    x      -2.9691      0.3321     -0.0568
            y       0.2362     -1.4676      0.0256
            z      -0.0132      0.0493     -1.1364
-------------------------------------------------------------------------------




  Elastic Constant Matrix: (Units=GPa)

-------------------------------------------------------------------------------
  Indices      1         2         3         4         5         6    
-------------------------------------------------------------------------------
       1     29.0788   13.5943    9.1326    0.1862    0.9821    7.2553
       2     13.5943   34.4792    6.9909   -0.3628    0.6061    7.2743
       3      9.1326    6.9909   13.5700   -0.2066    1.2562    1.5177
       4      0.1862   -0.3628   -0.2066    8.1734    1.7232    0.5729
       5      0.9821    0.6061    1.2562    1.7232   15.1602   -0.9058
       6      7.2553    7.2743    1.5177    0.5729   -0.9058   19.7419
-------------------------------------------------------------------------------


  Elastic Compliance Matrix: (Units=1/GPa)

-------------------------------------------------------------------------------
  Indices      1         2         3         4         5         6    
-------------------------------------------------------------------------------
       1    0.051782 -0.012305 -0.027025 -0.001280 -0.001221 -0.012437
       2   -0.012305  0.037782 -0.010107  0.002456 -0.000677 -0.008725
       3   -0.027025 -0.010107  0.097037  0.003461 -0.005931  0.005824
       4   -0.001280  0.002456  0.003461  0.126076 -0.014934 -0.005045
       5   -0.001221 -0.000677 -0.005931 -0.014934  0.068540  0.004732
       6   -0.012437 -0.008725  0.005824 -0.005045  0.004732  0.058355
-------------------------------------------------------------------------------

  Mechanical properties :

-------------------------------------------------------------------------------
  Convention :                    Reuss         Voigt         Hill
-------------------------------------------------------------------------------
  Bulk  Modulus (GPa)     =      11.39909      15.17374      13.28641
  Shear Modulus (GPa)     =       8.80762      11.77579      10.29171
-------------------------------------------------------------------------------
  Velocity S-wave (km/s)  =       1.78398       2.06279       1.92843
  Velocity P-wave (km/s)  =       2.89179       3.34012       3.12401
-------------------------------------------------------------------------------
  Compressibility (1/GPa) =    0.08772632
-------------------------------------------------------------------------------
  Stress axis :                     x             y             z
-------------------------------------------------------------------------------
  Youngs Moduli (GPa)     =      19.31168      26.46743      10.30532
-------------------------------------------------------------------------------
  Poissons Ratio (x)      =                     0.32568       0.27851
  Poissons Ratio (y)      =       0.23763                     0.10416
  Poissons Ratio (z)      =       0.52191       0.26752
-------------------------------------------------------------------------------


  Piezoelectric Strain Matrix: (Units=C/m**2)

-------------------------------------------------------------------------------
  Indices      1         2         3         4         5         6    
-------------------------------------------------------------------------------
       x     0.11134  -0.04628  -0.09696  -0.15849   0.31176  -0.04601
       y    -0.10453   0.11442   0.02390   0.98251   0.71699   0.03482
       z     0.30024  -0.57940  -1.43030   0.21376  -0.06528   0.12018
-------------------------------------------------------------------------------


  Piezoelectric Stress Matrix: (Units=10**-11 C/N)

-------------------------------------------------------------------------------
  Indices      1         2         3         4         5         6    
-------------------------------------------------------------------------------
       x     0.93498  -0.23375  -1.46157  -2.49975   2.39879  -0.19559
       y    -1.00321   0.69922   0.33388  11.34855   3.45429   0.09087
       z     5.96426  -1.16081 -13.92236   2.05607   0.14108  -0.13831
-------------------------------------------------------------------------------


  Static dielectric constant tensor : 

-------------------------------------------------------------------------------
              x         y         z
-------------------------------------------------------------------------------
       x     5.30365  -0.11207   0.01106
       y    -0.11207   6.55906  -0.08492
       z     0.01106  -0.08492   4.09672
--------------------------------------------------------------------------------

  High frequency dielectric constant tensor : 

-------------------------------------------------------------------------------
              x         y         z
-------------------------------------------------------------------------------
       x     1.55573   0.00271   0.00005
       y     0.00271   1.56168  -0.00060
       z     0.00005  -0.00060   1.51660
-------------------------------------------------------------------------------

  Static refractive indices : 

-------------------------------------------------------------------------------
    1 =    2.02330      2 =    2.30081      3 =    2.56358
-------------------------------------------------------------------------------

  High frequency refractive indices : 

-------------------------------------------------------------------------------
    1 =    1.23150      2 =    1.24687      3 =    1.25009
-------------------------------------------------------------------------------


  Time to end of optimisation =       6.5016 seconds


  Peak dynamic memory used =       5.01 MB 


  Timing analysis for GULP :

--------------------------------------------------------------------------------
  Task / Subroutine                                          Time (Seconds)
--------------------------------------------------------------------------------
  Calculation of reciprocal space energy and derivatives          0.4242
  Calculation of real space energy and derivatives                4.6326
  Calculation of three-body energy and derivatives                0.0865
  Calculation and manipulation of Hessian matrix                  1.5777
  Calculation of matrix inversion                                 0.0269
--------------------------------------------------------------------------------
  Total CPU time                                                  6.5017
--------------------------------------------------------------------------------


  Dump file written as c01030.vasp.grs
  CIF file written as c01030.vasp.cif


  Job Finished at 14:54.39 31st October    2025                               

