********************************************************************************
*                       GENERAL UTILITY LATTICE PROGRAM                        *
*                                 Julian Gale                                  *
*                       Curtin Institute for Computation                       *
*                    School of Molecular and Life Sciences                     *
*                    Curtin University, Western Australia                      *
********************************************************************************
* Version = 6.1.2 * Last modified =   3rd November 2022                        *
********************************************************************************
*  optimise     - perform optimisation run                                     *
*  conp         - constant pressure calculation                                *
*  property     - calculate properties for final geometry                      *
********************************************************************************

  Job Started  at 14:51.09 31st October    2025                               

  Number of CPUs =     1


  Total number of configurations input =      1

********************************************************************************
*  Input for Configuration =   1 : c01007.vasp                                 *
********************************************************************************

  Formula = Ge20Si4O48                                                  

  Number of irreducible atoms/shells =     120


  Total number atoms/shells =     120

  Dimensionality = 3               :  Bulk   



  Cartesian lattice vectors (Angstroms) :

       17.182800    0.000000    0.000000
        0.000000    7.513760    0.000000
        0.000000    0.000000   10.447700

  Cell parameters (Angstroms/Degrees):

  a =      17.1828    alpha =  90.0000
  b =       7.5138    beta  =  90.0000
  c =      10.4477    gamma =  90.0000

  Initial cell volume =        1348.875752 Angs**3

  Temperature of configuration =   0.00     K 

  Pressure of configuration =         0.000 GPa 

  Fractional coordinates of asymmetric unit :

--------------------------------------------------------------------------------
   No.  Atomic       x           y          z         Charge      Occupancy
        Label      (Frac)      (Frac)     (Frac)        (e)         (Frac)  
--------------------------------------------------------------------------------
      1 Ge    c    0.052090    0.000000    0.372270     4.00000    1.000000    
      2 Ge    c    0.447910 *  0.000000 *  0.372270 *   4.00000    1.000000    
      3 Ge    c    0.947910 *  0.000000 *  0.627730 *   4.00000    1.000000    
      4 Ge    c    0.556730 *  0.000000 *  0.122130 *   4.00000    1.000000    
      5 Ge    c    0.943270 *  0.000000 *  0.122130 *   4.00000    1.000000    
      6 Ge    c    0.056730 *  0.000000 *  0.877870 *   4.00000    1.000000    
      7 Ge    c    0.160190 *  0.293910 *  0.273440 *   4.00000    1.000000    
      8 Ge    c    0.339810 *  0.706090 *  0.273440 *   4.00000    1.000000    
      9 Ge    c    0.839810 *  0.293910 *  0.726560 *   4.00000    1.000000    
     10 Ge    c    0.660190 *  0.706090 *  0.726560 *   4.00000    1.000000    
     11 Ge    c    0.839810 *  0.706090 *  0.726560 *   4.00000    1.000000    
     12 Ge    c    0.660190 *  0.293910 *  0.726560 *   4.00000    1.000000    
     13 Ge    c    0.160190 *  0.706090 *  0.273440 *   4.00000    1.000000    
     14 Ge    c    0.339810 *  0.293910 *  0.273440 *   4.00000    1.000000    
     15 Ge    c    0.660660 *  0.294090 *  0.017440 *   4.00000    1.000000    
     16 Ge    c    0.339340 *  0.294090 *  0.982560 *   4.00000    1.000000    
     17 Ge    c    0.160660 *  0.705910 *  0.982560 *   4.00000    1.000000    
     18 Ge    c    0.339340 *  0.705910 *  0.982560 *   4.00000    1.000000    
     19 Ge    c    0.160660 *  0.294090 *  0.982560 *   4.00000    1.000000    
     20 Ge    c    0.660660 *  0.705910 *  0.017440 *   4.00000    1.000000    
     21 Si    c    0.552090 *  0.000000 *  0.627730 *   4.00000    1.000000    
     22 Si    c    0.443270 *  0.000000 *  0.877870 *   4.00000    1.000000    
     23 Si    c    0.839340 *  0.705910 *  0.017440 *   4.00000    1.000000    
     24 Si    c    0.839340 *  0.294090 *  0.017440 *   4.00000    1.000000    
     25 O1    c    0.106570 *  0.174340 *  0.366200 *   1.73396    1.000000    
     26 O1    c    0.393430 *  0.825660 *  0.366200 *   1.73396    1.000000    
     27 O1    c    0.893430 *  0.174340 *  0.633800 *   1.73396    1.000000    
     28 O3    c    0.606570 *  0.825660 *  0.633800 *   1.33043    1.000000    
     29 O1    c    0.893430 *  0.825660 *  0.633800 *   1.73396    1.000000    
     30 O3    c    0.606570 *  0.174340 *  0.633800 *   1.33043    1.000000    
     31 O1    c    0.106570 *  0.825660 *  0.366200 *   1.73396    1.000000    
     32 O1    c    0.393430 *  0.174340 *  0.366200 *   1.73396    1.000000    
     33 O1    c    0.000000 *  0.000000 *  0.500000 *   1.73396    1.000000    
     34 O3    c    0.500000 *  0.000000 *  0.500000 *   1.33043    1.000000    
     35 O1    c    0.994520 *  0.000000 *  0.250840 *   1.73396    1.000000    
     36 O1    c    0.505480 *  0.000000 *  0.250840 *   1.73396    1.000000    
     37 O1    c    0.005480 *  0.000000 *  0.749160 *   1.73396    1.000000    
     38 O2    c    0.494520 *  0.000000 *  0.749160 *   0.87073    1.000000    
     39 O1    c    0.610230 *  0.175520 *  0.115390 *   1.73396    1.000000    
     40 O3    c    0.889770 *  0.824480 *  0.115390 *   1.33043    1.000000    
     41 O3    c    0.389770 *  0.175520 *  0.884610 *   1.33043    1.000000    
     42 O1    c    0.110230 *  0.824480 *  0.884610 *   1.73396    1.000000    
     43 O3    c    0.389770 *  0.824480 *  0.884610 *   1.33043    1.000000    
     44 O1    c    0.110230 *  0.175520 *  0.884610 *   1.73396    1.000000    
     45 O1    c    0.610230 *  0.824480 *  0.115390 *   1.73396    1.000000    
     46 O3    c    0.889770 *  0.175520 *  0.115390 *   1.33043    1.000000    
     47 O3    c    0.500000 *  0.000000 *  0.000000 *   1.33043    1.000000    
     48 O1    c    0.000000 *  0.000000 *  0.000000 *   1.73396    1.000000    
     49 O1    c    0.151750 *  0.500000 *  0.313330 *   1.73396    1.000000    
     50 O1    c    0.348250 *  0.500000 *  0.313330 *   1.73396    1.000000    
     51 O1    c    0.848250 *  0.500000 *  0.686670 *   1.73396    1.000000    
     52 O1    c    0.651750 *  0.500000 *  0.686670 *   1.73396    1.000000    
     53 O1    c    0.250000 *  0.234950 *  0.285720 *   1.73396    1.000000    
     54 O1    c    0.250000 *  0.765050 *  0.285720 *   1.73396    1.000000    
     55 O1    c    0.750000 *  0.234950 *  0.714280 *   1.73396    1.000000    
     56 O1    c    0.750000 *  0.765050 *  0.714280 *   1.73396    1.000000    
     57 O1    c    0.131410 *  0.268650 *  0.127790 *   1.73396    1.000000    
     58 O1    c    0.368590 *  0.731350 *  0.127790 *   1.73396    1.000000    
     59 O3    c    0.868590 *  0.268650 *  0.872210 *   1.33043    1.000000    
     60 O1    c    0.631410 *  0.731350 *  0.872210 *   1.73396    1.000000    
     61 O3    c    0.868590 *  0.731350 *  0.872210 *   1.33043    1.000000    
     62 O1    c    0.631410 *  0.268650 *  0.872210 *   1.73396    1.000000    
     63 O1    c    0.131410 *  0.731350 *  0.127790 *   1.73396    1.000000    
     64 O1    c    0.368590 *  0.268650 *  0.127790 *   1.73396    1.000000    
     65 O1    c    0.653920 *  0.500000 *  0.058200 *   1.73396    1.000000    
     66 O2    c    0.846080 *  0.500000 *  0.058200 *   0.87073    1.000000    
     67 O1    c    0.346080 *  0.500000 *  0.941800 *   1.73396    1.000000    
     68 O1    c    0.153920 *  0.500000 *  0.941800 *   1.73396    1.000000    
     69 O3    c    0.750000 *  0.231060 *  0.027050 *   1.33043    1.000000    
     70 O3    c    0.750000 *  0.768940 *  0.027050 *   1.33043    1.000000    
     71 O1    c    0.250000 *  0.231060 *  0.972950 *   1.73396    1.000000    
     72 O1    c    0.250000 *  0.768940 *  0.972950 *   1.73396    1.000000    
     73 O1    s    0.106570 *  0.174340 *  0.366200 *  -3.73396    1.000000    
     74 O1    s    0.393430 *  0.825660 *  0.366200 *  -3.73396    1.000000    
     75 O1    s    0.893430 *  0.174340 *  0.633800 *  -3.73396    1.000000    
     76 O3    s    0.606570 *  0.825660 *  0.633800 *  -3.33043    1.000000    
     77 O1    s    0.893430 *  0.825660 *  0.633800 *  -3.73396    1.000000    
     78 O3    s    0.606570 *  0.174340 *  0.633800 *  -3.33043    1.000000    
     79 O1    s    0.106570 *  0.825660 *  0.366200 *  -3.73396    1.000000    
     80 O1    s    0.393430 *  0.174340 *  0.366200 *  -3.73396    1.000000    
     81 O1    s    0.000000 *  0.000000 *  0.500000 *  -3.73396    1.000000    
     82 O3    s    0.500000 *  0.000000 *  0.500000 *  -3.33043    1.000000    
     83 O1    s    0.994520 *  0.000000 *  0.250840 *  -3.73396    1.000000    
     84 O1    s    0.505480 *  0.000000 *  0.250840 *  -3.73396    1.000000    
     85 O1    s    0.005480 *  0.000000 *  0.749160 *  -3.73396    1.000000    
     86 O2    s    0.494520 *  0.000000 *  0.749160 *  -2.87073    1.000000    
     87 O1    s    0.610230 *  0.175520 *  0.115390 *  -3.73396    1.000000    
     88 O3    s    0.889770 *  0.824480 *  0.115390 *  -3.33043    1.000000    
     89 O3    s    0.389770 *  0.175520 *  0.884610 *  -3.33043    1.000000    
     90 O1    s    0.110230 *  0.824480 *  0.884610 *  -3.73396    1.000000    
     91 O3    s    0.389770 *  0.824480 *  0.884610 *  -3.33043    1.000000    
     92 O1    s    0.110230 *  0.175520 *  0.884610 *  -3.73396    1.000000    
     93 O1    s    0.610230 *  0.824480 *  0.115390 *  -3.73396    1.000000    
     94 O3    s    0.889770 *  0.175520 *  0.115390 *  -3.33043    1.000000    
     95 O3    s    0.500000 *  0.000000 *  0.000000 *  -3.33043    1.000000    
     96 O1    s    0.000000 *  0.000000 *  0.000000 *  -3.73396    1.000000    
     97 O1    s    0.151750 *  0.500000 *  0.313330 *  -3.73396    1.000000    
     98 O1    s    0.348250 *  0.500000 *  0.313330 *  -3.73396    1.000000    
     99 O1    s    0.848250 *  0.500000 *  0.686670 *  -3.73396    1.000000    
    100 O1    s    0.651750 *  0.500000 *  0.686670 *  -3.73396    1.000000    
    101 O1    s    0.250000 *  0.234950 *  0.285720 *  -3.73396    1.000000    
    102 O1    s    0.250000 *  0.765050 *  0.285720 *  -3.73396    1.000000    
    103 O1    s    0.750000 *  0.234950 *  0.714280 *  -3.73396    1.000000    
    104 O1    s    0.750000 *  0.765050 *  0.714280 *  -3.73396    1.000000    
    105 O1    s    0.131410 *  0.268650 *  0.127790 *  -3.73396    1.000000    
    106 O1    s    0.368590 *  0.731350 *  0.127790 *  -3.73396    1.000000    
    107 O3    s    0.868590 *  0.268650 *  0.872210 *  -3.33043    1.000000    
    108 O1    s    0.631410 *  0.731350 *  0.872210 *  -3.73396    1.000000    
    109 O3    s    0.868590 *  0.731350 *  0.872210 *  -3.33043    1.000000    
    110 O1    s    0.631410 *  0.268650 *  0.872210 *  -3.73396    1.000000    
    111 O1    s    0.131410 *  0.731350 *  0.127790 *  -3.73396    1.000000    
    112 O1    s    0.368590 *  0.268650 *  0.127790 *  -3.73396    1.000000    
    113 O1    s    0.653920 *  0.500000 *  0.058200 *  -3.73396    1.000000    
    114 O2    s    0.846080 *  0.500000 *  0.058200 *  -2.87073    1.000000    
    115 O1    s    0.346080 *  0.500000 *  0.941800 *  -3.73396    1.000000    
    116 O1    s    0.153920 *  0.500000 *  0.941800 *  -3.73396    1.000000    
    117 O3    s    0.750000 *  0.231060 *  0.027050 *  -3.33043    1.000000    
    118 O3    s    0.750000 *  0.768940 *  0.027050 *  -3.33043    1.000000    
    119 O1    s    0.250000 *  0.231060 *  0.972950 *  -3.73396    1.000000    
    120 O1    s    0.250000 *  0.768940 *  0.972950 *  -3.73396    1.000000    
--------------------------------------------------------------------------------



********************************************************************************
*  General input information                                                   *
********************************************************************************

  Species output for all configurations : 

--------------------------------------------------------------------------------
  Species    Type    Atomic    Atomic    Charge       Radii (Angs)     Library
                     Number     Mass       (e)     Cova   Ionic  VDW   Symbol
--------------------------------------------------------------------------------
    Ge       Core       32      72.61   4.000000   1.170  0.000  1.750 Ge       
    Si       Core       14      28.09   4.000000   1.200  0.000  2.100 Si       
    O1       Core        8      16.00   1.733957   0.730  0.000  1.360 O1       
    O2       Core        8      16.00   0.870733   0.730  0.000  1.360 O2       
    O3       Core        8      16.00   1.330431   0.730  0.000  1.360 O3       
    O1       Shell       8       0.00  -3.733957   0.730  0.000  0.000 O1       
    O2       Shell       8       0.00  -2.870733   0.730  0.000  0.000 O2       
    O3       Shell       8       0.00  -3.330431   0.730  0.000  0.000 O3       
--------------------------------------------------------------------------------


  Lattice summation method               =    Ewald          (3-D)
                                         =    Parry          (2-D)
                                         =    Saunders et al (1-D)
  Accuracy factor for lattice sums       =   12.000


  Analytic derivatives to be used

  Time limit = Infinity

  Maximum range for interatomic potentials =    100000.000000 Angstroms

  General interatomic potentials :

--------------------------------------------------------------------------------
Atom  Types   Potential      Parameter       Value         Units   Cutoffs(Ang)
  1     2                                                            Min /  Max 
--------------------------------------------------------------------------------
Si   c O1   s Buckingham    Buckingham A     1315.2478    eV        0.000 16.000
                            Buckingham rho  0.31775900    Ang       
                            Buckingham C     10.141118    eV*Ang^6  
--------------------------------------------------------------------------------
Si   c O2   s Buckingham    Buckingham A     1315.2478    eV        0.000 16.000
                            Buckingham rho  0.31775900    Ang       
                            Buckingham C     10.141118    eV*Ang^6  
--------------------------------------------------------------------------------
Si   c O3   s Buckingham    Buckingham A     1315.2478    eV        0.000 16.000
                            Buckingham rho  0.31775900    Ang       
                            Buckingham C     10.141118    eV*Ang^6  
--------------------------------------------------------------------------------
Ge   c O1   s Buckingham    Buckingham A     1497.3996    eV        0.000 16.000
                            Buckingham rho  0.32564600    Ang       
                            Buckingham C     16.808599    eV*Ang^6  
--------------------------------------------------------------------------------
Ge   c O2   s Buckingham    Buckingham A     1497.3996    eV        0.000 16.000
                            Buckingham rho  0.32564600    Ang       
                            Buckingham C     16.808599    eV*Ang^6  
--------------------------------------------------------------------------------
Ge   c O3   s Buckingham    Buckingham A     1497.3996    eV        0.000 16.000
                            Buckingham rho  0.32564600    Ang       
                            Buckingham C     16.808599    eV*Ang^6  
--------------------------------------------------------------------------------
O1   s O1   s Buckingham    Buckingham A     22764.000    eV        0.000 16.000
                            Buckingham rho  0.14900000    Ang       
                            Buckingham C     10.937044    eV*Ang^6  
--------------------------------------------------------------------------------
O1   s O2   s Buckingham    Buckingham A     22764.000    eV        0.000 16.000
                            Buckingham rho  0.14900000    Ang       
                            Buckingham C     10.937044    eV*Ang^6  
--------------------------------------------------------------------------------
O1   s O3   s Buckingham    Buckingham A     22764.000    eV        0.000 16.000
                            Buckingham rho  0.14900000    Ang       
                            Buckingham C     10.937044    eV*Ang^6  
--------------------------------------------------------------------------------
O2   s O2   s Buckingham    Buckingham A     22764.000    eV        0.000 16.000
                            Buckingham rho  0.14900000    Ang       
                            Buckingham C     10.937044    eV*Ang^6  
--------------------------------------------------------------------------------
O2   s O3   s Buckingham    Buckingham A     22764.000    eV        0.000 16.000
                            Buckingham rho  0.14900000    Ang       
                            Buckingham C     10.937044    eV*Ang^6  
--------------------------------------------------------------------------------
O3   s O3   s Buckingham    Buckingham A     22764.000    eV        0.000 16.000
                            Buckingham rho  0.14900000    Ang       
                            Buckingham C     10.937044    eV*Ang^6  
--------------------------------------------------------------------------------
O1   c O1   s Spring (c-s)  Spring k 2       180.31577    eV*Ang^-2 0.000  0.800
                            Spring k 4       0.0000000    eV*Ang^-4 
--------------------------------------------------------------------------------
O2   c O2   s Spring (c-s)  Spring k 2       75.969800    eV*Ang^-2 0.000  0.800
                            Spring k 4       0.0000000    eV*Ang^-4 
--------------------------------------------------------------------------------
O3   c O3   s Spring (c-s)  Spring k 2       128.14270    eV*Ang^-2 0.000  0.800
                            Spring k 4       0.0000000    eV*Ang^-4 
--------------------------------------------------------------------------------

  General Three-body potentials :

--------------------------------------------------------------------------------
  Atoms       Potential      Parameter       Value         Units   Cutoffs(Ang)
  1 / 2 / 3                                                          Min /  Max 
--------------------------------------------------------------------------------
Si    core    Harmonic      Three-body cnst  1.2614000    eV*rad^-2 0.000  1.900
O1    shel                  Three-body angl  109.47000    degrees   0.000  1.900
O1    shel                  Three-body k4    0.0000000    eV*rad^-4 0.000  3.500
                            Three-body k3    0.0000000    eV*rad^-3 
--------------------------------------------------------------------------------
Si    core    Harmonic      Three-body cnst  1.2614000    eV*rad^-2 0.000  1.900
O1    shel                  Three-body angl  109.47000    degrees   0.000  1.900
õ(1   shel                  Three-body k4    0.0000000    eV*rad^-4 0.000  3.500
                            Three-body k3    0.0000000    eV*rad^-3 
--------------------------------------------------------------------------------
Si    core    Harmonic      Three-body cnst  1.2614000    eV*rad^-2 0.000  1.900
õ(1   shel                  Three-body angl  109.47000    degrees   0.000  1.900
õ(1   shel                  Three-body k4    0.0000000    eV*rad^-4 0.000  3.500
                            Three-body k3    0.0000000    eV*rad^-3 
--------------------------------------------------------------------------------
Si    core    Harmonic      Three-body cnst  1.2614000    eV*rad^-2 0.000  1.900
O1    shel                  Three-body angl  109.47000    degrees   0.000  1.900
O2    shel                  Three-body k4    0.0000000    eV*rad^-4 0.000  3.500
                            Three-body k3    0.0000000    eV*rad^-3 
--------------------------------------------------------------------------------
Si    core    Harmonic      Three-body cnst  1.2614000    eV*rad^-2 0.000  1.900
O1    shel                  Three-body angl  109.47000    degrees   0.000  1.900
õ(2   shel                  Three-body k4    0.0000000    eV*rad^-4 0.000  3.500
                            Three-body k3    0.0000000    eV*rad^-3 
--------------------------------------------------------------------------------
Si    core    Harmonic      Three-body cnst  1.2614000    eV*rad^-2 0.000  1.900
O2    shel                  Three-body angl  109.47000    degrees   0.000  1.900
õ(1   shel                  Three-body k4    0.0000000    eV*rad^-4 0.000  3.500
                            Three-body k3    0.0000000    eV*rad^-3 
--------------------------------------------------------------------------------
Si    core    Harmonic      Three-body cnst  1.2614000    eV*rad^-2 0.000  1.900
õ(1   shel                  Three-body angl  109.47000    degrees   0.000  1.900
õ(2   shel                  Three-body k4    0.0000000    eV*rad^-4 0.000  3.500
                            Three-body k3    0.0000000    eV*rad^-3 
--------------------------------------------------------------------------------
Si    core    Harmonic      Three-body cnst  1.2614000    eV*rad^-2 0.000  1.900
O2    shel                  Three-body angl  109.47000    degrees   0.000  1.900
O2    shel                  Three-body k4    0.0000000    eV*rad^-4 0.000  3.500
                            Three-body k3    0.0000000    eV*rad^-3 
--------------------------------------------------------------------------------
Si    core    Harmonic      Three-body cnst  1.2614000    eV*rad^-2 0.000  1.900
O2    shel                  Three-body angl  109.47000    degrees   0.000  1.900
õ(2   shel                  Three-body k4    0.0000000    eV*rad^-4 0.000  3.500
                            Three-body k3    0.0000000    eV*rad^-3 
--------------------------------------------------------------------------------
Si    core    Harmonic      Three-body cnst  1.2614000    eV*rad^-2 0.000  1.900
õ(2   shel                  Three-body angl  109.47000    degrees   0.000  1.900
õ(2   shel                  Three-body k4    0.0000000    eV*rad^-4 0.000  3.500
                            Three-body k3    0.0000000    eV*rad^-3 
--------------------------------------------------------------------------------

********************************************************************************
*  Output for configuration   1 : c01007.vasp                                  *
********************************************************************************


  Components of energy : 

--------------------------------------------------------------------------------
  Interatomic potentials     =         896.55019375 eV    
  Three-body potentials      =           0.00000000 eV    
  Monopole - monopole (real) =       -2676.00317478 eV    
  Monopole - monopole (recip)=       -1115.35404472 eV    
  Monopole - monopole (total)=       -3791.35721950 eV    
--------------------------------------------------------------------------------
  Total lattice energy       =       -2894.80702575 eV    
--------------------------------------------------------------------------------
  Total lattice energy       =         -279304.6268 kJ/(mole unit cells)
--------------------------------------------------------------------------------


  Number of variables =      363

  Maximum number of calculations  =          1000
  Maximum Hessian update interval =            10
  Maximum step size               =   0.100000000
  Maximum parameter tolerance     =   0.000010000
  Maximum function  tolerance     =   0.000010000
  Maximum gradient  tolerance     =   0.001000000
  Maximum gradient  component     =   0.010000000

  Symmetry not applied to optimisation

  Cell parameters to be optimised using strains

  Newton-Raphson optimiser to be used

  BFGS hessian update to be used

  Lower half triangular hessian to be used

  Minimiser to switch to RFO
  When gradient norm is less than     0.050000

  Dumpfile to be written after every cycle

  Start of bulk optimisation :

  Cycle:      0 Energy:     -2894.807026  Gnorm:      5.885511  CPU:    0.107
  ** Hessian calculated **
  Cycle:      1 Energy:     -2938.262974  Gnorm:      1.413175  CPU:    0.247
  ** Hessian calculated **
  Cycle:      2 Energy:     -2942.721436  Gnorm:      0.897844  CPU:    0.492
  ** Hessian calculated **
  Cycle:      3 Energy:     -2944.545628  Gnorm:      0.446819  CPU:    0.682
  Cycle:      4 Energy:     -2944.949671  Gnorm:      0.251461  CPU:    0.778
  Cycle:      5 Energy:     -2945.188900  Gnorm:      0.208912  CPU:    0.893
  Cycle:      6 Energy:     -2945.476578  Gnorm:      0.174696  CPU:    1.007
  Cycle:      7 Energy:     -2945.775331  Gnorm:      0.163637  CPU:    1.120
  Cycle:      8 Energy:     -2945.921271  Gnorm:      0.122140  CPU:    1.217
  Cycle:      9 Energy:     -2945.990140  Gnorm:      0.100075  CPU:    1.314
  Cycle:     10 Energy:     -2946.035222  Gnorm:      0.086115  CPU:    1.428
  Cycle:     11 Energy:     -2946.067880  Gnorm:      0.079264  CPU:    1.575
  Cycle:     12 Energy:     -2946.101371  Gnorm:      0.083276  CPU:    1.675
  ** Hessian calculated **
  Cycle:     13 Energy:     -2946.121037  Gnorm:      0.082360  CPU:    1.859
  Cycle:     14 Energy:     -2946.155897  Gnorm:      0.080706  CPU:    1.973
  Cycle:     15 Energy:     -2946.214346  Gnorm:      0.077899  CPU:    2.086
  Cycle:     16 Energy:     -2946.288652  Gnorm:      0.074167  CPU:    2.183
  Cycle:     17 Energy:     -2946.407959  Gnorm:      0.067680  CPU:    2.297
  Cycle:     18 Energy:     -2946.533036  Gnorm:      0.060469  CPU:    2.394
  Cycle:     19 Energy:     -2946.597052  Gnorm:      0.069366  CPU:    2.494
  ** Hessian calculated **
  Cycle:     20 Energy:     -2946.608795  Gnorm:      0.052357  CPU:    2.662
  Cycle:     21 Energy:     -2946.618547  Gnorm:      0.046889  CPU:    2.762
  ** Hessian has required structure
  Cycle:     22 Energy:     -2946.632898  Gnorm:      0.084726  CPU:    2.898
  ** Hessian has required structure
  Cycle:     23 Energy:     -2946.647592  Gnorm:      0.092010  CPU:    3.035
  ** Hessian has required structure
  Cycle:     24 Energy:     -2946.657533  Gnorm:      0.091225  CPU:    3.155
  ** Hessian has required structure
  Cycle:     25 Energy:     -2946.663388  Gnorm:      0.089936  CPU:    3.275
  ** Hessian has required structure
  Cycle:     26 Energy:     -2946.672491  Gnorm:      0.107615  CPU:    3.393
  ** Hessian has required structure
  Cycle:     27 Energy:     -2946.678114  Gnorm:      0.090528  CPU:    3.512
  ** Hessian has required structure
  Cycle:     28 Energy:     -2946.682075  Gnorm:      0.085433  CPU:    3.632
  ** Hessian has required structure
  Cycle:     29 Energy:     -2946.687597  Gnorm:      0.077602  CPU:    3.751
  ** Hessian has wrong structure
  ** Imaginary eigenvectors =   7
  Cycle:     30 Energy:     -2946.718951  Gnorm:      0.079343  CPU:    4.116
  ** Hessian has wrong structure
  ** Imaginary eigenvectors =   6
  Cycle:     31 Energy:     -2946.833030  Gnorm:      0.106847  CPU:    4.433
  ** Hessian has wrong structure
  ** Imaginary eigenvectors =   4
  ** Hessian has wrong structure
  ** Imaginary eigenvectors =   2
  Cycle:     32 Energy:     -2946.887675  Gnorm:      0.112043  CPU:    4.854
  ** Hessian has wrong structure
  ** Imaginary eigenvectors =   1
  ** Hessian has required structure
  Cycle:     33 Energy:     -2947.289682  Gnorm:      0.094396  CPU:    5.218
  ** Hessian has required structure
  Cycle:     34 Energy:     -2947.433334  Gnorm:      0.074958  CPU:    5.336
  ** Hessian has required structure
  Cycle:     35 Energy:     -2947.541863  Gnorm:      0.070043  CPU:    5.474
  ** Hessian has required structure
  Cycle:     36 Energy:     -2947.591306  Gnorm:      0.065541  CPU:    5.610
  ** Hessian has required structure
  Cycle:     37 Energy:     -2947.620218  Gnorm:      0.079365  CPU:    5.762
  ** Hessian has wrong structure
  ** Imaginary eigenvectors =   1
  Cycle:     38 Energy:     -2947.635053  Gnorm:      0.052307  CPU:    5.969
  ** Hessian has wrong structure
  ** Imaginary eigenvectors =   1
  ** Hessian has required structure
  Cycle:     39 Energy:     -2947.706577  Gnorm:      0.074474  CPU:    6.478
  ** Hessian has required structure
  Cycle:     40 Energy:     -2947.765223  Gnorm:      0.041208  CPU:    6.632
  ** Hessian has required structure
  Cycle:     41 Energy:     -2947.785418  Gnorm:      0.035700  CPU:    6.784
  ** Hessian has required structure
  Cycle:     42 Energy:     -2947.803916  Gnorm:      0.040897  CPU:    6.955
  ** Hessian has required structure
  Cycle:     43 Energy:     -2947.818735  Gnorm:      0.015414  CPU:    7.107
  ** Hessian has required structure
  Cycle:     44 Energy:     -2947.824472  Gnorm:      0.015802  CPU:    7.259
  ** Hessian has required structure
  Cycle:     45 Energy:     -2947.827400  Gnorm:      0.010178  CPU:    7.412
  ** Hessian has required structure
  Cycle:     46 Energy:     -2947.828243  Gnorm:      0.006945  CPU:    7.566
  ** Hessian has required structure
  Cycle:     47 Energy:     -2947.828665  Gnorm:      0.003911  CPU:    7.720
  ** Hessian has required structure
  Cycle:     48 Energy:     -2947.828850  Gnorm:      0.002150  CPU:    7.871
  ** Hessian has required structure
  Cycle:     49 Energy:     -2947.829022  Gnorm:      0.001068  CPU:    8.125
  ** Hessian has required structure
  Cycle:     50 Energy:     -2947.829055  Gnorm:      0.000637  CPU:    8.277
  ** Hessian has required structure
  Cycle:     51 Energy:     -2947.829069  Gnorm:      0.000317  CPU:    8.443
  ** Hessian has required structure
  Cycle:     52 Energy:     -2947.829071  Gnorm:      0.000222  CPU:    8.582
  ** Hessian has required structure
  Cycle:     53 Energy:     -2947.829073  Gnorm:      0.000155  CPU:    8.717
  ** Hessian has required structure
  Cycle:     54 Energy:     -2947.829073  Gnorm:      0.000155  CPU:    8.868
  ** Hessian has required structure
  Cycle:     55 Energy:     -2947.829073  Gnorm:      0.000154  CPU:    9.000
  ** Hessian has required structure
  Cycle:     56 Energy:     -2947.829073  Gnorm:      0.000153  CPU:    9.133
  ** Hessian has required structure
  Cycle:     57 Energy:     -2947.829073  Gnorm:      0.000153  CPU:    9.268
  ** Hessian has required structure
  Cycle:     58 Energy:     -2947.829073  Gnorm:      0.000153  CPU:    9.404
  ** Hessian has required structure
  Cycle:     59 Energy:     -2947.829073  Gnorm:      0.000153  CPU:    9.724
  ** Hessian has required structure
  Cycle:     60 Energy:     -2947.829073  Gnorm:      0.000152  CPU:    9.857
  ** Hessian has required structure
  Cycle:     61 Energy:     -2947.829073  Gnorm:      0.000152  CPU:    9.989
  ** Hessian has required structure
  Cycle:     62 Energy:     -2947.829073  Gnorm:      0.000152  CPU:   10.125
  ** Hessian has required structure
  Cycle:     63 Energy:     -2947.829072  Gnorm:      0.000152  CPU:   10.341
  ** Hessian has required structure
  Cycle:     64 Energy:     -2947.829072  Gnorm:      0.000106  CPU:   10.560
  ** Hessian has required structure


  **** Optimisation achieved ****


  Final energy =   -2947.82907261 eV      
  Final Gnorm  =       0.00007436

  Components of energy : 

--------------------------------------------------------------------------------
  Interatomic potentials     =         778.50199960 eV    
  Three-body potentials      =           0.00000000 eV    
  Monopole - monopole (real) =       -1563.57693794 eV    
  Monopole - monopole (recip)=       -2162.75413426 eV    
  Monopole - monopole (total)=       -3726.33107221 eV    
--------------------------------------------------------------------------------
  Total lattice energy       =       -2947.82907261 eV    
--------------------------------------------------------------------------------
  Total lattice energy       =         -284420.4438 kJ/(mole unit cells)
--------------------------------------------------------------------------------

  Final fractional coordinates of atoms :

--------------------------------------------------------------------------------
   No.  Atomic        x           y          z          Radius
        Label       (Frac)      (Frac)     (Frac)       (Angs) 
--------------------------------------------------------------------------------
     1  Ge    c     0.052090    0.000000    0.372270    0.000000
     2  Ge    c     0.452182    0.058049    0.391496    0.000000
     3  Ge    c     0.950203    0.056114    0.627393    0.000000
     4  Ge    c     0.562608    0.994338    0.145012    0.000000
     5  Ge    c     0.946236    0.050790    0.124322    0.000000
     6  Ge    c     0.056206    0.999782    0.881333    0.000000
     7  Ge    c     0.177753    0.287180    0.265883    0.000000
     8  Ge    c     0.329355    0.774002    0.276812    0.000000
     9  Ge    c     0.851104    0.364519    0.702064    0.000000
    10  Ge    c     0.643957    0.690927    0.718417    0.000000
    11  Ge    c     0.825992    0.771701    0.710282    0.000000
    12  Ge    c     0.668835    0.286458    0.714779    0.000000
    13  Ge    c     0.147459    0.688468    0.261407    0.000000
    14  Ge    c     0.360021    0.372109    0.276315    0.000000
    15  Ge    c     0.679960    0.282221    0.027325    0.000000
    16  Ge    c     0.363428    0.372356    0.963627    0.000000
    17  Ge    c     0.157603    0.690293    0.947871    0.000000
    18  Ge    c     0.339274    0.776341    0.965148    0.000000
    19  Ge    c     0.181524    0.288393    0.953612    0.000000
    20  Ge    c     0.653126    0.679976    0.030756    0.000000
    21  Si    c     0.549754    0.002139    0.643995    0.000000
    22  Si    c     0.459152    0.065648    0.894795    0.000000
    23  Si    c     0.832831    0.756643    0.013440    0.000000
    24  Si    c     0.858655    0.363048    0.005464    0.000000
    25  O1    c     0.130128    0.134986    0.355107    0.000000
    26  O1    c     0.373548    0.925727    0.370827    0.000000
    27  O1    c     0.914705    0.257610    0.609712    0.000000
    28  O3    c     0.578951    0.810561    0.631935    0.000000
    29  O1    c     0.874703    0.910449    0.612008    0.000000
    30  O3    c     0.618659    0.139689    0.620335    0.000000
    31  O1    c     0.077494    0.794456    0.339987    0.000000
    32  O1    c     0.426732    0.264869    0.364344    0.000000
    33  O1    c     0.024952    0.013609    0.531440    0.000000
    34  O3    c     0.479521    0.035525    0.551353    0.000000
    35  O1    c     0.973497    0.056081    0.283374    0.000000
    36  O1    c     0.528201    0.004761    0.298102    0.000000
    37  O1    c     0.980328    0.037756    0.785680    0.000000
    38  O2    c     0.525722    0.030094    0.793805    0.000000
    39  O1    c     0.642173    0.125774    0.124184    0.000000
    40  O3    c     0.876220    0.890401    0.105889    0.000000
    41  O3    c     0.428371    0.255814    0.877182    0.000000
    42  O1    c     0.094125    0.801756    0.857202    0.000000
    43  O3    c     0.390312    0.926565    0.876123    0.000000
    44  O1    c     0.130479    0.147775    0.859957    0.000000
    45  O1    c     0.590680    0.788714    0.122271    0.000000
    46  O3    c     0.917828    0.257382    0.089398    0.000000
    47  O3    c     0.490842    0.052237    0.040296    0.000000
    48  O1    c     0.026174    0.005975    0.039659    0.000000
    49  O1    c     0.159820    0.488116    0.324653    0.000000
    50  O1    c     0.345211    0.571621    0.336705    0.000000
    51  O1    c     0.839573    0.568686    0.651205    0.000000
    52  O1    c     0.652136    0.490280    0.657042    0.000000
    53  O1    c     0.274450    0.256893    0.272809    0.000000
    54  O1    c     0.232968    0.804688    0.271057    0.000000
    55  O1    c     0.764851    0.252631    0.701795    0.000000
    56  O1    c     0.730078    0.804157    0.711942    0.000000
    57  O1    c     0.147103    0.274508    0.108528    0.000000
    58  O1    c     0.367180    0.787783    0.124043    0.000000
    59  O3    c     0.886637    0.370291    0.859164    0.000000
    60  O1    c     0.617423    0.669846    0.876362    0.000000
    61  O3    c     0.860969    0.787354    0.867797    0.000000
    62  O1    c     0.642976    0.272265    0.873951    0.000000
    63  O1    c     0.123617    0.665439    0.102236    0.000000
    64  O1    c     0.392426    0.393806    0.121042    0.000000
    65  O1    c     0.660405    0.478136    0.091813    0.000000
    66  O2    c     0.849205    0.558781    0.054586    0.000000
    67  O1    c     0.355029    0.574864    0.903820    0.000000
    68  O1    c     0.171761    0.491103    0.889025    0.000000
    69  O3    c     0.777592    0.261787    0.014214    0.000000
    70  O3    c     0.742527    0.782778    0.022193    0.000000
    71  O1    c     0.278081    0.256692    0.959930    0.000000
    72  O1    c     0.243019    0.807806    0.956250    0.000000
    73  O1    s     0.127813    0.136481    0.349399    0.000000
    74  O1    s     0.376183    0.924060    0.365014    0.000000
    75  O1    s     0.912583    0.250829    0.617839    0.000000
    76  O3    s     0.581121    0.819810    0.639688    0.000000
    77  O1    s     0.876420    0.910233    0.620819    0.000000
    78  O3    s     0.616069    0.138235    0.629982    0.000000
    79  O1    s     0.080889    0.801853    0.336465    0.000000
    80  O1    s     0.423630    0.257261    0.359779    0.000000
    81  O1    s     0.020896    0.016026    0.527566    0.000000
    82  O3    s     0.484701    0.033856    0.548434    0.000000
    83  O1    s     0.977264    0.051528    0.278156    0.000000
    84  O1    s     0.525078    0.008035    0.293317    0.000000
    85  O1    s     0.984349    0.035988    0.782051    0.000000
    86  O2    s     0.520972    0.031147    0.790009    0.000000
    87  O1    s     0.639178    0.128281    0.118086    0.000000
    88  O3    s     0.877348    0.889533    0.098010    0.000000
    89  O3    s     0.426319    0.246711    0.885467    0.000000
    90  O1    s     0.096169    0.807629    0.865744    0.000000
    91  O3    s     0.392756    0.927706    0.885097    0.000000
    92  O1    s     0.129092    0.148070    0.868796    0.000000
    93  O1    s     0.593438    0.795829    0.116821    0.000000
    94  O3    s     0.914086    0.252095    0.083682    0.000000
    95  O3    s     0.493536    0.048899    0.034858    0.000000
    96  O1    s     0.022213    0.008944    0.034941    0.000000
    97  O1    s     0.160183    0.488596    0.315722    0.000000
    98  O1    s     0.345188    0.571198    0.327853    0.000000
    99  O1    s     0.839501    0.567156    0.659538    0.000000
   100  O1    s     0.652691    0.491148    0.665847    0.000000
   101  O1    s     0.273509    0.267531    0.272541    0.000000
   102  O1    s     0.234088    0.794043    0.270786    0.000000
   103  O1    s     0.764024    0.263376    0.702803    0.000000
   104  O1    s     0.731204    0.793423    0.712309    0.000000
   105  O1    s     0.151866    0.276437    0.108844    0.000000
   106  O1    s     0.362407    0.785970    0.123455    0.000000
   107  O3    s     0.881223    0.369136    0.861581    0.000000
   108  O1    s     0.622089    0.672190    0.875913    0.000000
   109  O3    s     0.855725    0.783327    0.869874    0.000000
   110  O1    s     0.647674    0.274069    0.873612    0.000000
   111  O1    s     0.127946    0.669010    0.102931    0.000000
   112  O1    s     0.387850    0.390596    0.120796    0.000000
   113  O1    s     0.661286    0.479183    0.082388    0.000000
   114  O2    s     0.848570    0.558541    0.045770    0.000000
   115  O1    s     0.354557    0.573716    0.912718    0.000000
   116  O1    s     0.171366    0.492107    0.898179    0.000000
   117  O3    s     0.777630    0.273161    0.014406    0.000000
   118  O3    s     0.744423    0.772335    0.021982    0.000000
   119  O1    s     0.277122    0.267499    0.959751    0.000000
   120  O1    s     0.244190    0.797131    0.956346    0.000000
--------------------------------------------------------------------------------

  Final Cartesian lattice vectors (Angstroms) :

       17.486670   -0.271039   -0.056207
       -0.120491    7.815261    0.020043
       -0.033549    0.027076   10.379885


  Final cell parameters and derivatives :

--------------------------------------------------------------------------------
       a           17.488861 Angstrom     dE/de1(xx)    -0.002589 eV/strain
       b            7.816215 Angstrom     dE/de2(yy)     0.000885 eV/strain
       c           10.379974 Angstrom     dE/de3(zz)    -0.000973 eV/strain
       alpha       89.700782 Degrees      dE/de4(yz)    -0.000055 eV/strain
       beta        90.371622 Degrees      dE/de5(xz)     0.000499 eV/strain
       gamma       91.771742 Degrees      dE/de6(xy)     0.001713 eV/strain
--------------------------------------------------------------------------------

  Primitive cell volume =          1418.182225 Angs**3

  Density of cell =      2.731221 g/cm**3

  Non-primitive cell volume =          1418.182225 Angs**3


  Final internal derivatives :

--------------------------------------------------------------------------------
   No.  Atomic          a             b             c           Radius
        Label          (eV)          (eV)          (eV)        (eV/Angs)
--------------------------------------------------------------------------------
      1 Ge    c       0.000000      0.000000      0.000000      0.000000
      2 Ge    c      -0.000212      0.000930      0.000775      0.000000
      3 Ge    c       0.000761      0.000306     -0.001069      0.000000
      4 Ge    c      -0.000095      0.000250     -0.000338      0.000000
      5 Ge    c       0.001270     -0.000472      0.000251      0.000000
      6 Ge    c       0.003906     -0.000035      0.002060      0.000000
      7 Ge    c       0.002149     -0.001334     -0.001718      0.000000
      8 Ge    c      -0.000993      0.001270     -0.002496      0.000000
      9 Ge    c       0.000367      0.000318      0.000441      0.000000
     10 Ge    c      -0.000593     -0.000712     -0.000429      0.000000
     11 Ge    c      -0.000240     -0.000514     -0.000074      0.000000
     12 Ge    c       0.000177      0.000727      0.000003      0.000000
     13 Ge    c      -0.001096      0.001025     -0.000147      0.000000
     14 Ge    c      -0.003531     -0.000823     -0.000949      0.000000
     15 Ge    c       0.000523      0.000501     -0.000309      0.000000
     16 Ge    c       0.000228     -0.001544     -0.000289      0.000000
     17 Ge    c      -0.002613      0.002810      0.002894      0.000000
     18 Ge    c       0.000394      0.001057      0.000324      0.000000
     19 Ge    c       0.001095     -0.000769      0.000986      0.000000
     20 Ge    c       0.000026     -0.000590      0.000053      0.000000
     21 Si    c      -0.000962     -0.000005     -0.000302      0.000000
     22 Si    c      -0.001523      0.000960     -0.000382      0.000000
     23 Si    c       0.000295     -0.000219      0.000096      0.000000
     24 Si    c      -0.000602      0.000630     -0.000385      0.000000
     25 O1    c       0.001523      0.002910      0.001802      0.000000
     26 O1    c      -0.004122     -0.000418      0.001333      0.000000
     27 O1    c       0.000703     -0.000602     -0.000131      0.000000
     28 O3    c      -0.000894      0.000795      0.000256      0.000000
     29 O1    c       0.002452      0.001617      0.000116      0.000000
     30 O3    c      -0.001923     -0.001073      0.000060      0.000000
     31 O1    c       0.002271      0.002305     -0.001679      0.000000
     32 O1    c       0.002001      0.000066     -0.000277      0.000000
     33 O1    c      -0.003317      0.000820      0.002545      0.000000
     34 O3    c       0.001211     -0.000191      0.001054      0.000000
     35 O1    c       0.002900     -0.000864      0.001213      0.000000
     36 O1    c       0.004461     -0.000278     -0.002206      0.000000
     37 O1    c      -0.006439      0.001151     -0.003269      0.000000
     38 O2    c       0.000159     -0.000261     -0.000050      0.000000
     39 O1    c      -0.001502     -0.001102      0.000649      0.000000
     40 O3    c       0.000140      0.000486      0.000188      0.000000
     41 O3    c       0.000415     -0.002127      0.001116      0.000000
     42 O1    c       0.000013     -0.000217      0.000901      0.000000
     43 O3    c       0.001802      0.000148      0.000304      0.000000
     44 O1    c       0.001774     -0.000537     -0.000746      0.000000
     45 O1    c      -0.001198      0.000543      0.000560      0.000000
     46 O3    c       0.001490     -0.000724      0.000991      0.000000
     47 O3    c       0.000407      0.000051     -0.000020      0.000000
     48 O1    c       0.001839      0.000249      0.000924      0.000000
     49 O1    c       0.000505      0.004463      0.001237      0.000000
     50 O1    c       0.000772     -0.001746      0.001510      0.000000
     51 O1    c      -0.000439      0.000440      0.000378      0.000000
     52 O1    c       0.000665      0.000081      0.000547      0.000000
     53 O1    c       0.006624      0.001450      0.000765      0.000000
     54 O1    c      -0.007469     -0.000963      0.001170      0.000000
     55 O1    c      -0.000721      0.000121      0.000031      0.000000
     56 O1    c       0.001567     -0.000126     -0.000091      0.000000
     57 O1    c      -0.002864     -0.001150     -0.000542      0.000000
     58 O1    c      -0.000618      0.000266      0.001337      0.000000
     59 O3    c       0.000403     -0.000130     -0.000631      0.000000
     60 O1    c      -0.000775     -0.000053      0.000679      0.000000
     61 O3    c      -0.000011     -0.000030      0.000037      0.000000
     62 O1    c       0.000303      0.000037      0.000079      0.000000
     63 O1    c       0.005494      0.000103     -0.005030      0.000000
     64 O1    c      -0.000642      0.000045      0.001991      0.000000
     65 O1    c      -0.000315      0.000424     -0.000417      0.000000
     66 O2    c       0.000181      0.000013     -0.000103      0.000000
     67 O1    c       0.001611      0.001504     -0.000317      0.000000
     68 O1    c      -0.002613     -0.003487     -0.001301      0.000000
     69 O3    c      -0.000422     -0.000023      0.000066      0.000000
     70 O3    c       0.000550     -0.000048      0.000011      0.000000
     71 O1    c      -0.000262     -0.000129     -0.000451      0.000000
     72 O1    c      -0.002203     -0.000230     -0.000865      0.000000
     73 O1    s      -0.002588     -0.001562     -0.000343      0.000000
     74 O1    s       0.001392     -0.000747      0.000231      0.000000
     75 O1    s       0.000361     -0.000282     -0.000053      0.000000
     76 O3    s       0.000469      0.000489      0.000119      0.000000
     77 O1    s      -0.000153     -0.000657     -0.000043      0.000000
     78 O3    s       0.000162     -0.000101      0.000185      0.000000
     79 O1    s       0.002087     -0.001130      0.000587      0.000000
     80 O1    s      -0.001760      0.001560      0.000140      0.000000
     81 O1    s       0.000221     -0.000678     -0.001216      0.000000
     82 O3    s       0.001479     -0.000025      0.000157      0.000000
     83 O1    s      -0.002084      0.000468     -0.000136      0.000000
     84 O1    s      -0.000348      0.000070      0.000978      0.000000
     85 O1    s       0.001611     -0.000993      0.001008      0.000000
     86 O2    s       0.000138      0.000525     -0.000235      0.000000
     87 O1    s       0.000592      0.000330     -0.000352      0.000000
     88 O3    s      -0.000405     -0.000053     -0.000229      0.000000
     89 O3    s      -0.000416      0.000502      0.000155      0.000000
     90 O1    s      -0.000715     -0.001552     -0.000698      0.000000
     91 O3    s      -0.000024      0.000073     -0.000101      0.000000
     92 O1    s      -0.000113      0.001063     -0.000525      0.000000
     93 O1    s      -0.000000     -0.000059     -0.000250      0.000000
     94 O3    s      -0.000272      0.000060     -0.000300      0.000000
     95 O3    s      -0.000336      0.000281     -0.000572      0.000000
     96 O1    s      -0.003575      0.000035     -0.000794      0.000000
     97 O1    s       0.000710     -0.000531     -0.000154      0.000000
     98 O1    s      -0.001748      0.000010     -0.000894      0.000000
     99 O1    s       0.000487     -0.000152     -0.000225      0.000000
    100 O1    s      -0.000969     -0.000182     -0.000333      0.000000
    101 O1    s      -0.001099     -0.001212     -0.001553      0.000000
    102 O1    s       0.000853      0.000090     -0.002094      0.000000
    103 O1    s       0.000020     -0.000301      0.000038      0.000000
    104 O1    s      -0.000593      0.000291     -0.000005      0.000000
    105 O1    s       0.002746      0.000256     -0.000381      0.000000
    106 O1    s      -0.001353     -0.000303     -0.001099      0.000000
    107 O3    s      -0.000102      0.000074     -0.000020      0.000000
    108 O1    s       0.000206      0.000175     -0.000306      0.000000
    109 O3    s      -0.000117     -0.000027     -0.000094      0.000000
    110 O1    s      -0.000081     -0.000022     -0.000051      0.000000
    111 O1    s       0.003947     -0.000939      0.003915      0.000000
    112 O1    s      -0.002404     -0.000130     -0.000671      0.000000
    113 O1    s      -0.000042     -0.000349      0.000092      0.000000
    114 O2    s      -0.000196      0.000251     -0.000016      0.000000
    115 O1    s      -0.002717     -0.000882     -0.000314      0.000000
    116 O1    s       0.004422      0.003431      0.000370      0.000000
    117 O3    s      -0.000464     -0.000101      0.000104      0.000000
    118 O3    s      -0.000011     -0.000131     -0.000140      0.000000
    119 O1    s       0.000572      0.000743      0.001000      0.000000
    120 O1    s       0.000087     -0.000664      0.001869      0.000000
--------------------------------------------------------------------------------
  Maximum abs         0.007469      0.004463      0.005030      0.000000
--------------------------------------------------------------------------------


  Born effective charge tensors : 

-------------------------------------------------------------------------------
  Atom             x           y             z
-------------------------------------------------------------------------------
    1 Ge    x       4.2158     -0.2712     -0.3993
            y       0.1671      3.8956      0.1127
            z      -0.1577      0.0176      4.5296
-------------------------------------------------------------------------------
    2 Ge    x       4.0894     -0.2818      0.4190
            y       0.1413      3.9094     -0.0643
            z       0.1799     -0.0304      4.4828
-------------------------------------------------------------------------------
    3 Ge    x       4.1602     -0.2629      0.0116
            y       0.0756      3.9179     -0.0089
            z      -0.8340      0.1746      4.2808
-------------------------------------------------------------------------------
    4 Ge    x       4.1757     -0.2360     -0.4068
            y       0.1562      3.9459      0.0426
            z      -0.4008      0.0125      4.0338
-------------------------------------------------------------------------------
    5 Ge    x       4.1935     -0.2015      0.3847
            y       0.1353      3.9694     -0.0697
            z       0.3195      0.0357      3.9430
-------------------------------------------------------------------------------
    6 Ge    x       4.4138     -0.1985     -0.0745
            y       0.0773      3.9159      0.0117
            z       0.6340     -0.1317      3.6152
-------------------------------------------------------------------------------
    7 Ge    x       4.0404      0.2435     -0.2525
            y       0.2245      4.2008     -0.0643
            z       0.0149     -0.1948      3.5942
-------------------------------------------------------------------------------
    8 Ge    x       4.0146      0.2352      0.2685
            y       0.2232      4.2023      0.0756
            z      -0.0015      0.2246      3.6414
-------------------------------------------------------------------------------
    9 Ge    x       3.8991     -0.0816     -0.2836
            y      -0.4240      4.2178      0.1408
            z      -0.0931      0.1810      3.5137
-------------------------------------------------------------------------------
   10 Ge    x       3.8225     -0.0529      0.1890
            y      -0.4295      4.2644     -0.0810
            z       0.0113     -0.1480      3.4987
-------------------------------------------------------------------------------
   11 Ge    x       3.9772      0.2251     -0.3546
            y       0.2181      4.1548     -0.1308
            z      -0.0505     -0.1632      3.5313
-------------------------------------------------------------------------------
   12 Ge    x       3.9810      0.2341      0.2453
            y       0.2369      4.1609      0.0317
            z      -0.0316      0.0871      3.4896
-------------------------------------------------------------------------------
   13 Ge    x       4.0100     -0.0746     -0.1792
            y      -0.4693      4.1773      0.0679
            z      -0.0840      0.2162      3.5877
-------------------------------------------------------------------------------
   14 Ge    x       3.9582     -0.0571      0.2087
            y      -0.4741      4.1870     -0.0848
            z       0.1022     -0.2141      3.6497
-------------------------------------------------------------------------------
   15 Ge    x       3.9025      0.2816     -0.3114
            y       0.2568      4.1898     -0.0692
            z      -0.0202     -0.1791      3.5054
-------------------------------------------------------------------------------
   16 Ge    x       3.9584     -0.0285     -0.2509
            y      -0.4037      4.2545      0.0813
            z      -0.0446      0.1690      3.3898
-------------------------------------------------------------------------------
   17 Ge    x       4.0905     -0.0854      0.2940
            y      -0.4292      4.1932     -0.0909
            z       0.0795     -0.1840      3.4250
-------------------------------------------------------------------------------
   18 Ge    x       4.0944      0.2317     -0.3021
            y       0.2458      4.1616     -0.0038
            z      -0.0085     -0.0974      3.4141
-------------------------------------------------------------------------------
   19 Ge    x       4.1629      0.2639      0.3439
            y       0.2999      4.1432      0.0530
            z       0.0411      0.1310      3.4526
-------------------------------------------------------------------------------
   20 Ge    x       3.9880     -0.1253     -0.3028
            y      -0.5003      4.1422      0.0747
            z      -0.1366      0.1583      3.4858
-------------------------------------------------------------------------------
   21 Si    x       3.6864     -0.2288      0.0317
            y       0.1073      3.6639     -0.0263
            z       0.8567     -0.1473      3.7044
-------------------------------------------------------------------------------
   22 Si    x       3.6921     -0.1165      0.1823
            y       0.1540      3.6844     -0.0342
            z      -0.4378      0.0959      3.2830
-------------------------------------------------------------------------------
   23 Si    x       3.6933      0.2771      0.2727
            y       0.2900      3.7114      0.2273
            z      -0.0073      0.2389      3.1868
-------------------------------------------------------------------------------
   24 Si    x       3.6728     -0.0746      0.2500
            y      -0.3978      3.6879     -0.2327
            z       0.0881     -0.2889      3.1586
-------------------------------------------------------------------------------
   25 O1    x      -2.2614     -0.9119      0.5040
            y      -0.9536     -2.2921      0.4776
            z       0.4624      0.5117     -1.6397
-------------------------------------------------------------------------------
   26 O1    x      -2.2016     -0.8782     -0.5437
            y      -0.9154     -2.2688     -0.5176
            z      -0.5135     -0.5699     -1.7204
-------------------------------------------------------------------------------
   27 O1    x      -1.9635      0.8614      0.3841
            y       0.8327     -2.4884     -0.3274
            z       0.4659     -0.3718     -1.6482
-------------------------------------------------------------------------------
   28 O3    x      -1.7682      0.8413     -0.2497
            y       0.7876     -2.5157      0.2455
            z      -0.3303      0.2604     -1.4473
-------------------------------------------------------------------------------
   29 O1    x      -2.1730     -0.8760      0.3578
            y      -0.9445     -2.2637      0.4103
            z       0.4250      0.4043     -1.6693
-------------------------------------------------------------------------------
   30 O3    x      -2.0753     -0.8658     -0.1891
            y      -0.8976     -2.1439     -0.2417
            z      -0.2684     -0.2423     -1.4935
-------------------------------------------------------------------------------
   31 O1    x      -2.0128      0.8477      0.5034
            y       0.7851     -2.5185     -0.5201
            z       0.4501     -0.5098     -1.6229
-------------------------------------------------------------------------------
   32 O1    x      -1.9257      0.8307     -0.5343
            y       0.7729     -2.5453      0.5393
            z      -0.4969      0.5584     -1.6951
-------------------------------------------------------------------------------
   33 O1    x      -2.0522      0.2473      0.9588
            y       0.0970     -1.2783     -0.1573
            z       1.1635     -0.2893     -3.1686
-------------------------------------------------------------------------------
   34 O3    x      -1.9337      0.2386     -0.9346
            y       0.0911     -1.2053      0.1569
            z      -1.1428      0.2862     -2.9487
-------------------------------------------------------------------------------
   35 O1    x      -2.1137      0.2333     -0.8650
            y       0.1122     -1.3311      0.1308
            z      -0.8635      0.1606     -2.8179
-------------------------------------------------------------------------------
   36 O1    x      -2.0696      0.2555      0.8434
            y       0.1444     -1.3119     -0.1980
            z       0.9273     -0.2441     -2.8677
-------------------------------------------------------------------------------
   37 O1    x      -2.1703      0.2181     -0.8608
            y       0.1022     -1.3384      0.1606
            z      -0.8314      0.2093     -2.5954
-------------------------------------------------------------------------------
   38 O2    x      -1.6306      0.1477      0.5596
            y       0.0407     -1.1950     -0.1328
            z       0.5197     -0.1814     -2.0574
-------------------------------------------------------------------------------
   39 O1    x      -2.2049     -0.8558      0.5093
            y      -0.8954     -2.3091      0.5513
            z       0.4233      0.5186     -1.5999
-------------------------------------------------------------------------------
   40 O3    x      -1.9716     -0.8785     -0.5317
            y      -0.8737     -2.3275     -0.5670
            z      -0.4653     -0.5747     -1.5320
-------------------------------------------------------------------------------
   41 O3    x      -1.8810      0.8350      0.2947
            y       0.7895     -2.4958     -0.2409
            z       0.3400     -0.2673     -1.3217
-------------------------------------------------------------------------------
   42 O1    x      -2.0918      0.8895     -0.3500
            y       0.8417     -2.4761      0.2632
            z      -0.3951      0.3066     -1.4643
-------------------------------------------------------------------------------
   43 O3    x      -2.1617     -0.9020      0.2700
            y      -0.9205     -2.1849      0.2646
            z       0.3271      0.2792     -1.3488
-------------------------------------------------------------------------------
   44 O1    x      -2.2712     -0.9118     -0.3206
            y      -0.9561     -2.2783     -0.3464
            z      -0.3748     -0.3566     -1.4959
-------------------------------------------------------------------------------
   45 O1    x      -1.9994      0.8442      0.5361
            y       0.7918     -2.5753     -0.5418
            z       0.4790     -0.5130     -1.5717
-------------------------------------------------------------------------------
   46 O3    x      -1.9277      0.8598     -0.5763
            y       0.7504     -2.4159      0.5727
            z      -0.4848      0.5684     -1.4923
-------------------------------------------------------------------------------
   47 O3    x      -1.9222      0.1982     -0.7112
            y       0.1031     -1.3015      0.1901
            z      -0.4913      0.1761     -2.2996
-------------------------------------------------------------------------------
   48 O1    x      -2.2800      0.2251      0.7580
            y       0.1172     -1.3725     -0.1367
            z       0.4892     -0.1172     -2.2091
-------------------------------------------------------------------------------
   49 O1    x      -1.3812      0.2170      0.0665
            y       0.3376     -3.1347      0.0344
            z       0.0253      0.0236     -1.3991
-------------------------------------------------------------------------------
   50 O1    x      -1.3640      0.2165     -0.0633
            y       0.3441     -3.1478     -0.0220
            z      -0.0219     -0.0129     -1.4131
-------------------------------------------------------------------------------
   51 O1    x      -1.3261      0.1845      0.0795
            y       0.2956     -3.1931     -0.0366
            z       0.0206     -0.0123     -1.4028
-------------------------------------------------------------------------------
   52 O1    x      -1.3364      0.1726     -0.0907
            y       0.2927     -3.2427     -0.0402
            z      -0.0389     -0.0375     -1.3784
-------------------------------------------------------------------------------
   53 O1    x      -3.0602     -0.2891     -0.0584
            y      -0.2054     -1.5845      0.0067
            z      -0.0692      0.0427     -1.2284
-------------------------------------------------------------------------------
   54 O1    x      -3.0662     -0.2861     -0.0797
            y      -0.2084     -1.5859     -0.0270
            z      -0.0622     -0.0685     -1.2271
-------------------------------------------------------------------------------
   55 O1    x      -3.0551     -0.2774      0.0545
            y      -0.2151     -1.5802     -0.0297
            z       0.0455     -0.0529     -1.2229
-------------------------------------------------------------------------------
   56 O1    x      -3.0467     -0.2558      0.0270
            y      -0.1264     -1.5653      0.0326
            z      -0.0206      0.0529     -1.2125
-------------------------------------------------------------------------------
   57 O1    x      -1.5163     -0.1044      0.0105
            y      -0.1060     -1.4254     -0.0230
            z      -0.0072     -0.0061     -2.7127
-------------------------------------------------------------------------------
   58 O1    x      -1.5013     -0.1054      0.1258
            y      -0.1195     -1.4285      0.0323
            z       0.1246      0.0094     -2.7435
-------------------------------------------------------------------------------
   59 O3    x      -1.3613      0.0418      0.0440
            y       0.1074     -1.3650     -0.0395
            z       0.0099     -0.0145     -2.5578
-------------------------------------------------------------------------------
   60 O1    x      -1.4779      0.0203     -0.0932
            y       0.0974     -1.4345      0.0628
            z      -0.0548      0.0527     -2.7102
-------------------------------------------------------------------------------
   61 O3    x      -1.3790     -0.1123      0.0284
            y      -0.1214     -1.3863      0.1364
            z       0.0104      0.0894     -2.5366
-------------------------------------------------------------------------------
   62 O1    x      -1.5170     -0.1175     -0.1392
            y      -0.1373     -1.4198     -0.0366
            z      -0.0799      0.0030     -2.6931
-------------------------------------------------------------------------------
   63 O1    x      -1.4741      0.0103      0.0328
            y       0.0784     -1.4363      0.0014
            z       0.0437      0.0032     -2.7274
-------------------------------------------------------------------------------
   64 O1    x      -1.4523      0.0074      0.1005
            y       0.0849     -1.4380     -0.0178
            z       0.0783     -0.0159     -2.7609
-------------------------------------------------------------------------------
   65 O1    x      -1.4016      0.1815      0.1176
            y       0.2895     -3.1230     -0.0061
            z       0.0636     -0.0166     -1.3507
-------------------------------------------------------------------------------
   66 O2    x      -1.2185      0.1357     -0.0701
            y       0.2133     -2.4927     -0.0423
            z      -0.0291     -0.0272     -1.1055
-------------------------------------------------------------------------------
   67 O1    x      -1.3994      0.1813      0.1071
            y       0.2798     -3.2339      0.0023
            z       0.0467      0.0188     -1.3360
-------------------------------------------------------------------------------
   68 O1    x      -1.4038      0.1943     -0.0753
            y       0.2717     -3.1270      0.0102
            z      -0.0123     -0.0107     -1.3518
-------------------------------------------------------------------------------
   69 O3    x      -2.8519     -0.3653      0.1086
            y      -0.3028     -1.5419      0.0375
            z       0.0719      0.0630     -1.1148
-------------------------------------------------------------------------------
   70 O3    x      -2.9672     -0.1677      0.0974
            y      -0.0646     -1.4549     -0.0098
            z       0.1058     -0.0316     -1.1177
-------------------------------------------------------------------------------
   71 O1    x      -3.1316     -0.2831     -0.0435
            y      -0.1463     -1.5787     -0.0166
            z      -0.0019     -0.0473     -1.1797
-------------------------------------------------------------------------------
   72 O1    x      -3.1408     -0.3072     -0.0827
            y      -0.2232     -1.5981     -0.0032
            z      -0.0817      0.0294     -1.1868
-------------------------------------------------------------------------------




  Elastic Constant Matrix: (Units=GPa)

-------------------------------------------------------------------------------
  Indices      1         2         3         4         5         6    
-------------------------------------------------------------------------------
       1     27.6129   11.6578    9.8209    0.3414    0.1081   -7.5287
       2     11.6578   33.2807    7.4461    0.4501    0.2020   -7.5803
       3      9.8209    7.4461   17.7266    0.3165   -0.3797   -2.1549
       4      0.3414    0.4501    0.3165    7.8791   -2.1302   -0.1664
       5      0.1081    0.2020   -0.3797   -2.1302   14.8051    0.4427
       6     -7.5287   -7.5803   -2.1549   -0.1664    0.4427   19.6869
-------------------------------------------------------------------------------


  Elastic Compliance Matrix: (Units=1/GPa)

-------------------------------------------------------------------------------
  Indices      1         2         3         4         5         6    
-------------------------------------------------------------------------------
       1    0.052449 -0.010050 -0.023189 -0.000849 -0.001372  0.013673
       2   -0.010050  0.037862 -0.009150 -0.001473 -0.001181  0.009748
       3   -0.023189 -0.009150  0.072619 -0.000900  0.002162 -0.004498
       4   -0.000849 -0.001473 -0.000900  0.132216  0.019036 -0.000301
       5   -0.001372 -0.001181  0.002162  0.019036  0.070429 -0.002165
       6    0.013673  0.009748 -0.004498 -0.000301 -0.002165  0.059331
-------------------------------------------------------------------------------

  Mechanical properties :

-------------------------------------------------------------------------------
  Convention :                    Reuss         Voigt         Hill
-------------------------------------------------------------------------------
  Bulk  Modulus (GPa)     =      12.79547      15.16330      13.97939
  Shear Modulus (GPa)     =       9.33298      11.78726      10.56012
-------------------------------------------------------------------------------
  Velocity S-wave (km/s)  =       1.84855       2.07744       1.96633
  Velocity P-wave (km/s)  =       3.03992       3.36247       3.20525
-------------------------------------------------------------------------------
  Compressibility (1/GPa) =    0.07815263
-------------------------------------------------------------------------------
  Stress axis :                     x             y             z
-------------------------------------------------------------------------------
  Youngs Moduli (GPa)     =      19.06610      26.41148      13.77057
-------------------------------------------------------------------------------
  Poissons Ratio (x)      =                     0.26543       0.31932
  Poissons Ratio (y)      =       0.19161                     0.12600
  Poissons Ratio (z)      =       0.44212       0.24167
-------------------------------------------------------------------------------


  Piezoelectric Strain Matrix: (Units=C/m**2)

-------------------------------------------------------------------------------
  Indices      1         2         3         4         5         6    
-------------------------------------------------------------------------------
       x     0.29549  -0.11558  -0.04164  -0.13029  -0.61113   0.21678
       y     0.23427  -0.14598  -0.14103  -0.97378   0.25314   0.33184
       z    -0.28990   0.33316   1.10508  -0.06291   0.11951   0.06246
-------------------------------------------------------------------------------


  Piezoelectric Stress Matrix: (Units=10**-11 C/N)

-------------------------------------------------------------------------------
  Indices      1         2         3         4         5         6    
-------------------------------------------------------------------------------
       x     2.15381  -0.39377  -1.09970  -2.89682  -4.63498   1.73255
       y     2.20421  -0.22210  -1.44072 -12.38865  -0.18809   2.18482
       z    -4.34348   0.59764   8.39569  -0.73013   0.94768  -0.22215
-------------------------------------------------------------------------------


  Static dielectric constant tensor : 

-------------------------------------------------------------------------------
              x         y         z
-------------------------------------------------------------------------------
       x     5.26156  -0.00139  -0.01632
       y    -0.00139   6.32369   0.02789
       z    -0.01632   0.02789   4.08611
--------------------------------------------------------------------------------

  High frequency dielectric constant tensor : 

-------------------------------------------------------------------------------
              x         y         z
-------------------------------------------------------------------------------
       x     1.54740  -0.00261   0.00063
       y    -0.00261   1.55362   0.00006
       z     0.00063   0.00006   1.50721
-------------------------------------------------------------------------------

  Static refractive indices : 

-------------------------------------------------------------------------------
    1 =    2.02127      2 =    2.29386      3 =    2.51476
-------------------------------------------------------------------------------

  High frequency refractive indices : 

-------------------------------------------------------------------------------
    1 =    1.22768      2 =    1.24357      3 =    1.24683
-------------------------------------------------------------------------------


  Time to end of optimisation =      10.8766 seconds


  Peak dynamic memory used =       5.01 MB 


  Timing analysis for GULP :

--------------------------------------------------------------------------------
  Task / Subroutine                                          Time (Seconds)
--------------------------------------------------------------------------------
  Calculation of reciprocal space energy and derivatives          0.7349
  Calculation of real space energy and derivatives                7.3104
  Calculation of three-body energy and derivatives                0.1138
  Calculation and manipulation of Hessian matrix                  3.1922
  Calculation of matrix inversion                                 0.0357
  Global summation overhead                                       0.0001
--------------------------------------------------------------------------------
  Total CPU time                                                 10.8766
--------------------------------------------------------------------------------


  Dump file written as c01007.vasp.grs
  CIF file written as c01007.vasp.cif


  Job Finished at 14:51.20 31st October    2025                               

