********************************************************************************
*                       GENERAL UTILITY LATTICE PROGRAM                        *
*                                 Julian Gale                                  *
*                       Curtin Institute for Computation                       *
*                    School of Molecular and Life Sciences                     *
*                    Curtin University, Western Australia                      *
********************************************************************************
* Version = 6.1.2 * Last modified =   3rd November 2022                        *
********************************************************************************
*  optimise     - perform optimisation run                                     *
*  conp         - constant pressure calculation                                *
*  property     - calculate properties for final geometry                      *
********************************************************************************

  Job Started  at 15:09.40 31st October    2025                               

  Number of CPUs =     1


  Total number of configurations input =      1

********************************************************************************
*  Input for Configuration =   1 : c01126.vasp                                 *
********************************************************************************

  Formula = Ge20Si4O48                                                  

  Number of irreducible atoms/shells =     120


  Total number atoms/shells =     120

  Dimensionality = 3               :  Bulk   



  Cartesian lattice vectors (Angstroms) :

       17.182800    0.000000    0.000000
        0.000000    7.513760    0.000000
        0.000000    0.000000   10.447700

  Cell parameters (Angstroms/Degrees):

  a =      17.1828    alpha =  90.0000
  b =       7.5138    beta  =  90.0000
  c =      10.4477    gamma =  90.0000

  Initial cell volume =        1348.875752 Angs**3

  Temperature of configuration =   0.00     K 

  Pressure of configuration =         0.000 GPa 

  Fractional coordinates of asymmetric unit :

--------------------------------------------------------------------------------
   No.  Atomic       x           y          z         Charge      Occupancy
        Label      (Frac)      (Frac)     (Frac)        (e)         (Frac)  
--------------------------------------------------------------------------------
      1 Ge    c    0.052090    0.000000    0.372270     4.00000    1.000000    
      2 Ge    c    0.447910 *  0.000000 *  0.372270 *   4.00000    1.000000    
      3 Ge    c    0.947910 *  0.000000 *  0.627730 *   4.00000    1.000000    
      4 Ge    c    0.556730 *  0.000000 *  0.122130 *   4.00000    1.000000    
      5 Ge    c    0.443270 *  0.000000 *  0.877870 *   4.00000    1.000000    
      6 Ge    c    0.056730 *  0.000000 *  0.877870 *   4.00000    1.000000    
      7 Ge    c    0.160190 *  0.293910 *  0.273440 *   4.00000    1.000000    
      8 Ge    c    0.339810 *  0.706090 *  0.273440 *   4.00000    1.000000    
      9 Ge    c    0.660190 *  0.706090 *  0.726560 *   4.00000    1.000000    
     10 Ge    c    0.660190 *  0.293910 *  0.726560 *   4.00000    1.000000    
     11 Ge    c    0.160190 *  0.706090 *  0.273440 *   4.00000    1.000000    
     12 Ge    c    0.339810 *  0.293910 *  0.273440 *   4.00000    1.000000    
     13 Ge    c    0.660660 *  0.294090 *  0.017440 *   4.00000    1.000000    
     14 Ge    c    0.839340 *  0.705910 *  0.017440 *   4.00000    1.000000    
     15 Ge    c    0.339340 *  0.294090 *  0.982560 *   4.00000    1.000000    
     16 Ge    c    0.160660 *  0.705910 *  0.982560 *   4.00000    1.000000    
     17 Ge    c    0.339340 *  0.705910 *  0.982560 *   4.00000    1.000000    
     18 Ge    c    0.160660 *  0.294090 *  0.982560 *   4.00000    1.000000    
     19 Ge    c    0.660660 *  0.705910 *  0.017440 *   4.00000    1.000000    
     20 Ge    c    0.839340 *  0.294090 *  0.017440 *   4.00000    1.000000    
     21 Si    c    0.552090 *  0.000000 *  0.627730 *   4.00000    1.000000    
     22 Si    c    0.943270 *  0.000000 *  0.122130 *   4.00000    1.000000    
     23 Si    c    0.839810 *  0.293910 *  0.726560 *   4.00000    1.000000    
     24 Si    c    0.839810 *  0.706090 *  0.726560 *   4.00000    1.000000    
     25 O1    c    0.106570 *  0.174340 *  0.366200 *   1.73396    1.000000    
     26 O1    c    0.393430 *  0.825660 *  0.366200 *   1.73396    1.000000    
     27 O3    c    0.893430 *  0.174340 *  0.633800 *   1.33043    1.000000    
     28 O3    c    0.606570 *  0.825660 *  0.633800 *   1.33043    1.000000    
     29 O3    c    0.893430 *  0.825660 *  0.633800 *   1.33043    1.000000    
     30 O3    c    0.606570 *  0.174340 *  0.633800 *   1.33043    1.000000    
     31 O1    c    0.106570 *  0.825660 *  0.366200 *   1.73396    1.000000    
     32 O1    c    0.393430 *  0.174340 *  0.366200 *   1.73396    1.000000    
     33 O1    c    0.000000 *  0.000000 *  0.500000 *   1.73396    1.000000    
     34 O3    c    0.500000 *  0.000000 *  0.500000 *   1.33043    1.000000    
     35 O3    c    0.994520 *  0.000000 *  0.250840 *   1.33043    1.000000    
     36 O1    c    0.505480 *  0.000000 *  0.250840 *   1.73396    1.000000    
     37 O1    c    0.005480 *  0.000000 *  0.749160 *   1.73396    1.000000    
     38 O3    c    0.494520 *  0.000000 *  0.749160 *   1.33043    1.000000    
     39 O1    c    0.610230 *  0.175520 *  0.115390 *   1.73396    1.000000    
     40 O3    c    0.889770 *  0.824480 *  0.115390 *   1.33043    1.000000    
     41 O1    c    0.389770 *  0.175520 *  0.884610 *   1.73396    1.000000    
     42 O1    c    0.110230 *  0.824480 *  0.884610 *   1.73396    1.000000    
     43 O1    c    0.389770 *  0.824480 *  0.884610 *   1.73396    1.000000    
     44 O1    c    0.110230 *  0.175520 *  0.884610 *   1.73396    1.000000    
     45 O1    c    0.610230 *  0.824480 *  0.115390 *   1.73396    1.000000    
     46 O3    c    0.889770 *  0.175520 *  0.115390 *   1.33043    1.000000    
     47 O1    c    0.500000 *  0.000000 *  0.000000 *   1.73396    1.000000    
     48 O3    c    0.000000 *  0.000000 *  0.000000 *   1.33043    1.000000    
     49 O1    c    0.151750 *  0.500000 *  0.313330 *   1.73396    1.000000    
     50 O1    c    0.348250 *  0.500000 *  0.313330 *   1.73396    1.000000    
     51 O2    c    0.848250 *  0.500000 *  0.686670 *   0.87073    1.000000    
     52 O1    c    0.651750 *  0.500000 *  0.686670 *   1.73396    1.000000    
     53 O1    c    0.250000 *  0.234950 *  0.285720 *   1.73396    1.000000    
     54 O1    c    0.250000 *  0.765050 *  0.285720 *   1.73396    1.000000    
     55 O3    c    0.750000 *  0.234950 *  0.714280 *   1.33043    1.000000    
     56 O3    c    0.750000 *  0.765050 *  0.714280 *   1.33043    1.000000    
     57 O1    c    0.131410 *  0.268650 *  0.127790 *   1.73396    1.000000    
     58 O1    c    0.368590 *  0.731350 *  0.127790 *   1.73396    1.000000    
     59 O3    c    0.868590 *  0.268650 *  0.872210 *   1.33043    1.000000    
     60 O1    c    0.631410 *  0.731350 *  0.872210 *   1.73396    1.000000    
     61 O3    c    0.868590 *  0.731350 *  0.872210 *   1.33043    1.000000    
     62 O1    c    0.631410 *  0.268650 *  0.872210 *   1.73396    1.000000    
     63 O1    c    0.131410 *  0.731350 *  0.127790 *   1.73396    1.000000    
     64 O1    c    0.368590 *  0.268650 *  0.127790 *   1.73396    1.000000    
     65 O1    c    0.653920 *  0.500000 *  0.058200 *   1.73396    1.000000    
     66 O1    c    0.846080 *  0.500000 *  0.058200 *   1.73396    1.000000    
     67 O1    c    0.346080 *  0.500000 *  0.941800 *   1.73396    1.000000    
     68 O1    c    0.153920 *  0.500000 *  0.941800 *   1.73396    1.000000    
     69 O1    c    0.750000 *  0.231060 *  0.027050 *   1.73396    1.000000    
     70 O1    c    0.750000 *  0.768940 *  0.027050 *   1.73396    1.000000    
     71 O1    c    0.250000 *  0.231060 *  0.972950 *   1.73396    1.000000    
     72 O1    c    0.250000 *  0.768940 *  0.972950 *   1.73396    1.000000    
     73 O1    s    0.106570 *  0.174340 *  0.366200 *  -3.73396    1.000000    
     74 O1    s    0.393430 *  0.825660 *  0.366200 *  -3.73396    1.000000    
     75 O3    s    0.893430 *  0.174340 *  0.633800 *  -3.33043    1.000000    
     76 O3    s    0.606570 *  0.825660 *  0.633800 *  -3.33043    1.000000    
     77 O3    s    0.893430 *  0.825660 *  0.633800 *  -3.33043    1.000000    
     78 O3    s    0.606570 *  0.174340 *  0.633800 *  -3.33043    1.000000    
     79 O1    s    0.106570 *  0.825660 *  0.366200 *  -3.73396    1.000000    
     80 O1    s    0.393430 *  0.174340 *  0.366200 *  -3.73396    1.000000    
     81 O1    s    0.000000 *  0.000000 *  0.500000 *  -3.73396    1.000000    
     82 O3    s    0.500000 *  0.000000 *  0.500000 *  -3.33043    1.000000    
     83 O3    s    0.994520 *  0.000000 *  0.250840 *  -3.33043    1.000000    
     84 O1    s    0.505480 *  0.000000 *  0.250840 *  -3.73396    1.000000    
     85 O1    s    0.005480 *  0.000000 *  0.749160 *  -3.73396    1.000000    
     86 O3    s    0.494520 *  0.000000 *  0.749160 *  -3.33043    1.000000    
     87 O1    s    0.610230 *  0.175520 *  0.115390 *  -3.73396    1.000000    
     88 O3    s    0.889770 *  0.824480 *  0.115390 *  -3.33043    1.000000    
     89 O1    s    0.389770 *  0.175520 *  0.884610 *  -3.73396    1.000000    
     90 O1    s    0.110230 *  0.824480 *  0.884610 *  -3.73396    1.000000    
     91 O1    s    0.389770 *  0.824480 *  0.884610 *  -3.73396    1.000000    
     92 O1    s    0.110230 *  0.175520 *  0.884610 *  -3.73396    1.000000    
     93 O1    s    0.610230 *  0.824480 *  0.115390 *  -3.73396    1.000000    
     94 O3    s    0.889770 *  0.175520 *  0.115390 *  -3.33043    1.000000    
     95 O1    s    0.500000 *  0.000000 *  0.000000 *  -3.73396    1.000000    
     96 O3    s    0.000000 *  0.000000 *  0.000000 *  -3.33043    1.000000    
     97 O1    s    0.151750 *  0.500000 *  0.313330 *  -3.73396    1.000000    
     98 O1    s    0.348250 *  0.500000 *  0.313330 *  -3.73396    1.000000    
     99 O2    s    0.848250 *  0.500000 *  0.686670 *  -2.87073    1.000000    
    100 O1    s    0.651750 *  0.500000 *  0.686670 *  -3.73396    1.000000    
    101 O1    s    0.250000 *  0.234950 *  0.285720 *  -3.73396    1.000000    
    102 O1    s    0.250000 *  0.765050 *  0.285720 *  -3.73396    1.000000    
    103 O3    s    0.750000 *  0.234950 *  0.714280 *  -3.33043    1.000000    
    104 O3    s    0.750000 *  0.765050 *  0.714280 *  -3.33043    1.000000    
    105 O1    s    0.131410 *  0.268650 *  0.127790 *  -3.73396    1.000000    
    106 O1    s    0.368590 *  0.731350 *  0.127790 *  -3.73396    1.000000    
    107 O3    s    0.868590 *  0.268650 *  0.872210 *  -3.33043    1.000000    
    108 O1    s    0.631410 *  0.731350 *  0.872210 *  -3.73396    1.000000    
    109 O3    s    0.868590 *  0.731350 *  0.872210 *  -3.33043    1.000000    
    110 O1    s    0.631410 *  0.268650 *  0.872210 *  -3.73396    1.000000    
    111 O1    s    0.131410 *  0.731350 *  0.127790 *  -3.73396    1.000000    
    112 O1    s    0.368590 *  0.268650 *  0.127790 *  -3.73396    1.000000    
    113 O1    s    0.653920 *  0.500000 *  0.058200 *  -3.73396    1.000000    
    114 O1    s    0.846080 *  0.500000 *  0.058200 *  -3.73396    1.000000    
    115 O1    s    0.346080 *  0.500000 *  0.941800 *  -3.73396    1.000000    
    116 O1    s    0.153920 *  0.500000 *  0.941800 *  -3.73396    1.000000    
    117 O1    s    0.750000 *  0.231060 *  0.027050 *  -3.73396    1.000000    
    118 O1    s    0.750000 *  0.768940 *  0.027050 *  -3.73396    1.000000    
    119 O1    s    0.250000 *  0.231060 *  0.972950 *  -3.73396    1.000000    
    120 O1    s    0.250000 *  0.768940 *  0.972950 *  -3.73396    1.000000    
--------------------------------------------------------------------------------



********************************************************************************
*  General input information                                                   *
********************************************************************************

  Species output for all configurations : 

--------------------------------------------------------------------------------
  Species    Type    Atomic    Atomic    Charge       Radii (Angs)     Library
                     Number     Mass       (e)     Cova   Ionic  VDW   Symbol
--------------------------------------------------------------------------------
    Ge       Core       32      72.61   4.000000   1.170  0.000  1.750 Ge       
    Si       Core       14      28.09   4.000000   1.200  0.000  2.100 Si       
    O1       Core        8      16.00   1.733957   0.730  0.000  1.360 O1       
    O2       Core        8      16.00   0.870733   0.730  0.000  1.360 O2       
    O3       Core        8      16.00   1.330431   0.730  0.000  1.360 O3       
    O1       Shell       8       0.00  -3.733957   0.730  0.000  0.000 O1       
    O2       Shell       8       0.00  -2.870733   0.730  0.000  0.000 O2       
    O3       Shell       8       0.00  -3.330431   0.730  0.000  0.000 O3       
--------------------------------------------------------------------------------


  Lattice summation method               =    Ewald          (3-D)
                                         =    Parry          (2-D)
                                         =    Saunders et al (1-D)
  Accuracy factor for lattice sums       =   12.000


  Analytic derivatives to be used

  Time limit = Infinity

  Maximum range for interatomic potentials =    100000.000000 Angstroms

  General interatomic potentials :

--------------------------------------------------------------------------------
Atom  Types   Potential      Parameter       Value         Units   Cutoffs(Ang)
  1     2                                                            Min /  Max 
--------------------------------------------------------------------------------
Si   c O1   s Buckingham    Buckingham A     1315.2478    eV        0.000 16.000
                            Buckingham rho  0.31775900    Ang       
                            Buckingham C     10.141118    eV*Ang^6  
--------------------------------------------------------------------------------
Si   c O2   s Buckingham    Buckingham A     1315.2478    eV        0.000 16.000
                            Buckingham rho  0.31775900    Ang       
                            Buckingham C     10.141118    eV*Ang^6  
--------------------------------------------------------------------------------
Si   c O3   s Buckingham    Buckingham A     1315.2478    eV        0.000 16.000
                            Buckingham rho  0.31775900    Ang       
                            Buckingham C     10.141118    eV*Ang^6  
--------------------------------------------------------------------------------
Ge   c O1   s Buckingham    Buckingham A     1497.3996    eV        0.000 16.000
                            Buckingham rho  0.32564600    Ang       
                            Buckingham C     16.808599    eV*Ang^6  
--------------------------------------------------------------------------------
Ge   c O2   s Buckingham    Buckingham A     1497.3996    eV        0.000 16.000
                            Buckingham rho  0.32564600    Ang       
                            Buckingham C     16.808599    eV*Ang^6  
--------------------------------------------------------------------------------
Ge   c O3   s Buckingham    Buckingham A     1497.3996    eV        0.000 16.000
                            Buckingham rho  0.32564600    Ang       
                            Buckingham C     16.808599    eV*Ang^6  
--------------------------------------------------------------------------------
O1   s O1   s Buckingham    Buckingham A     22764.000    eV        0.000 16.000
                            Buckingham rho  0.14900000    Ang       
                            Buckingham C     10.937044    eV*Ang^6  
--------------------------------------------------------------------------------
O1   s O2   s Buckingham    Buckingham A     22764.000    eV        0.000 16.000
                            Buckingham rho  0.14900000    Ang       
                            Buckingham C     10.937044    eV*Ang^6  
--------------------------------------------------------------------------------
O1   s O3   s Buckingham    Buckingham A     22764.000    eV        0.000 16.000
                            Buckingham rho  0.14900000    Ang       
                            Buckingham C     10.937044    eV*Ang^6  
--------------------------------------------------------------------------------
O2   s O2   s Buckingham    Buckingham A     22764.000    eV        0.000 16.000
                            Buckingham rho  0.14900000    Ang       
                            Buckingham C     10.937044    eV*Ang^6  
--------------------------------------------------------------------------------
O2   s O3   s Buckingham    Buckingham A     22764.000    eV        0.000 16.000
                            Buckingham rho  0.14900000    Ang       
                            Buckingham C     10.937044    eV*Ang^6  
--------------------------------------------------------------------------------
O3   s O3   s Buckingham    Buckingham A     22764.000    eV        0.000 16.000
                            Buckingham rho  0.14900000    Ang       
                            Buckingham C     10.937044    eV*Ang^6  
--------------------------------------------------------------------------------
O1   c O1   s Spring (c-s)  Spring k 2       180.31577    eV*Ang^-2 0.000  0.800
                            Spring k 4       0.0000000    eV*Ang^-4 
--------------------------------------------------------------------------------
O2   c O2   s Spring (c-s)  Spring k 2       75.969800    eV*Ang^-2 0.000  0.800
                            Spring k 4       0.0000000    eV*Ang^-4 
--------------------------------------------------------------------------------
O3   c O3   s Spring (c-s)  Spring k 2       128.14270    eV*Ang^-2 0.000  0.800
                            Spring k 4       0.0000000    eV*Ang^-4 
--------------------------------------------------------------------------------

  General Three-body potentials :

--------------------------------------------------------------------------------
  Atoms       Potential      Parameter       Value         Units   Cutoffs(Ang)
  1 / 2 / 3                                                          Min /  Max 
--------------------------------------------------------------------------------
Si    core    Harmonic      Three-body cnst  1.2614000    eV*rad^-2 0.000  1.900
O1    shel                  Three-body angl  109.47000    degrees   0.000  1.900
O1    shel                  Three-body k4    0.0000000    eV*rad^-4 0.000  3.500
                            Three-body k3    0.0000000    eV*rad^-3 
--------------------------------------------------------------------------------
Si    core    Harmonic      Three-body cnst  1.2614000    eV*rad^-2 0.000  1.900
O1    shel                  Three-body angl  109.47000    degrees   0.000  1.900
õ(1   shel                  Three-body k4    0.0000000    eV*rad^-4 0.000  3.500
                            Three-body k3    0.0000000    eV*rad^-3 
--------------------------------------------------------------------------------
Si    core    Harmonic      Three-body cnst  1.2614000    eV*rad^-2 0.000  1.900
õ(1   shel                  Three-body angl  109.47000    degrees   0.000  1.900
õ(1   shel                  Three-body k4    0.0000000    eV*rad^-4 0.000  3.500
                            Three-body k3    0.0000000    eV*rad^-3 
--------------------------------------------------------------------------------
Si    core    Harmonic      Three-body cnst  1.2614000    eV*rad^-2 0.000  1.900
O1    shel                  Three-body angl  109.47000    degrees   0.000  1.900
O2    shel                  Three-body k4    0.0000000    eV*rad^-4 0.000  3.500
                            Three-body k3    0.0000000    eV*rad^-3 
--------------------------------------------------------------------------------
Si    core    Harmonic      Three-body cnst  1.2614000    eV*rad^-2 0.000  1.900
O1    shel                  Three-body angl  109.47000    degrees   0.000  1.900
õ(2   shel                  Three-body k4    0.0000000    eV*rad^-4 0.000  3.500
                            Three-body k3    0.0000000    eV*rad^-3 
--------------------------------------------------------------------------------
Si    core    Harmonic      Three-body cnst  1.2614000    eV*rad^-2 0.000  1.900
O2    shel                  Three-body angl  109.47000    degrees   0.000  1.900
õ(1   shel                  Three-body k4    0.0000000    eV*rad^-4 0.000  3.500
                            Three-body k3    0.0000000    eV*rad^-3 
--------------------------------------------------------------------------------
Si    core    Harmonic      Three-body cnst  1.2614000    eV*rad^-2 0.000  1.900
õ(1   shel                  Three-body angl  109.47000    degrees   0.000  1.900
õ(2   shel                  Three-body k4    0.0000000    eV*rad^-4 0.000  3.500
                            Three-body k3    0.0000000    eV*rad^-3 
--------------------------------------------------------------------------------
Si    core    Harmonic      Three-body cnst  1.2614000    eV*rad^-2 0.000  1.900
O2    shel                  Three-body angl  109.47000    degrees   0.000  1.900
O2    shel                  Three-body k4    0.0000000    eV*rad^-4 0.000  3.500
                            Three-body k3    0.0000000    eV*rad^-3 
--------------------------------------------------------------------------------
Si    core    Harmonic      Three-body cnst  1.2614000    eV*rad^-2 0.000  1.900
O2    shel                  Three-body angl  109.47000    degrees   0.000  1.900
õ(2   shel                  Three-body k4    0.0000000    eV*rad^-4 0.000  3.500
                            Three-body k3    0.0000000    eV*rad^-3 
--------------------------------------------------------------------------------
Si    core    Harmonic      Three-body cnst  1.2614000    eV*rad^-2 0.000  1.900
õ(2   shel                  Three-body angl  109.47000    degrees   0.000  1.900
õ(2   shel                  Three-body k4    0.0000000    eV*rad^-4 0.000  3.500
                            Three-body k3    0.0000000    eV*rad^-3 
--------------------------------------------------------------------------------

********************************************************************************
*  Output for configuration   1 : c01126.vasp                                  *
********************************************************************************


  Components of energy : 

--------------------------------------------------------------------------------
  Interatomic potentials     =         896.60360327 eV    
  Three-body potentials      =           0.00000000 eV    
  Monopole - monopole (real) =       -2676.00317478 eV    
  Monopole - monopole (recip)=       -1115.35404472 eV    
  Monopole - monopole (total)=       -3791.35721950 eV    
--------------------------------------------------------------------------------
  Total lattice energy       =       -2894.75361624 eV    
--------------------------------------------------------------------------------
  Total lattice energy       =         -279299.4736 kJ/(mole unit cells)
--------------------------------------------------------------------------------


  Number of variables =      363

  Maximum number of calculations  =          1000
  Maximum Hessian update interval =            10
  Maximum step size               =   0.100000000
  Maximum parameter tolerance     =   0.000010000
  Maximum function  tolerance     =   0.000010000
  Maximum gradient  tolerance     =   0.001000000
  Maximum gradient  component     =   0.010000000

  Symmetry not applied to optimisation

  Cell parameters to be optimised using strains

  Newton-Raphson optimiser to be used

  BFGS hessian update to be used

  Lower half triangular hessian to be used

  Minimiser to switch to RFO
  When gradient norm is less than     0.050000

  Dumpfile to be written after every cycle

  Start of bulk optimisation :

  Cycle:      0 Energy:     -2894.753616  Gnorm:      5.892686  CPU:    0.101
  ** Hessian calculated **
  Cycle:      1 Energy:     -2938.297525  Gnorm:      1.417475  CPU:    0.217
  ** Hessian calculated **
  Cycle:      2 Energy:     -2944.381356  Gnorm:      0.627157  CPU:    0.441
  ** Hessian calculated **
  Cycle:      3 Energy:     -2945.317061  Gnorm:      0.325580  CPU:    0.610
  Cycle:      4 Energy:     -2945.539804  Gnorm:      0.193925  CPU:    0.690
  Cycle:      5 Energy:     -2945.685364  Gnorm:      0.160538  CPU:    0.791
  Cycle:      6 Energy:     -2945.860611  Gnorm:      0.132639  CPU:    0.886
  Cycle:      7 Energy:     -2946.020498  Gnorm:      0.123907  CPU:    0.987
  Cycle:      8 Energy:     -2946.091789  Gnorm:      0.091467  CPU:    1.068
  Cycle:      9 Energy:     -2946.127381  Gnorm:      0.080697  CPU:    1.151
  Cycle:     10 Energy:     -2946.157808  Gnorm:      0.075825  CPU:    1.247
  Cycle:     11 Energy:     -2946.186680  Gnorm:      0.076803  CPU:    1.346
  Cycle:     12 Energy:     -2946.221178  Gnorm:      0.082815  CPU:    1.442
  ** Hessian calculated **
  Cycle:     13 Energy:     -2946.237658  Gnorm:      0.082001  CPU:    1.622
  Cycle:     14 Energy:     -2946.267539  Gnorm:      0.080431  CPU:    1.733
  Cycle:     15 Energy:     -2946.320767  Gnorm:      0.077246  CPU:    1.844
  Cycle:     16 Energy:     -2946.397310  Gnorm:      0.072276  CPU:    1.942
  Cycle:     17 Energy:     -2946.532235  Gnorm:      0.063487  CPU:    2.056
  Cycle:     18 Energy:     -2946.634064  Gnorm:      0.055790  CPU:    2.154
  Cycle:     19 Energy:     -2946.751081  Gnorm:      0.062809  CPU:    2.250
  ** Hessian calculated **
  Cycle:     20 Energy:     -2946.925388  Gnorm:      0.044433  CPU:    2.432
  ** Hessian has wrong structure
  ** Imaginary eigenvectors =   7
  Cycle:     21 Energy:     -2946.948638  Gnorm:      0.122738  CPU:    2.640
  ** Hessian has wrong structure
  ** Imaginary eigenvectors =   5
  ** Hessian has wrong structure
  ** Imaginary eigenvectors =   3
  Cycle:     22 Energy:     -2947.051558  Gnorm:      0.134558  CPU:    3.055
  ** Hessian has wrong structure
  ** Imaginary eigenvectors =   3
  ** Hessian has wrong structure
  ** Imaginary eigenvectors =   2
  Cycle:     23 Energy:     -2947.060046  Gnorm:      0.138304  CPU:    3.440
  ** Hessian has wrong structure
  ** Imaginary eigenvectors =   2
  ** Hessian has wrong structure
  ** Imaginary eigenvectors =   1
  Cycle:     24 Energy:     -2947.327569  Gnorm:      0.146535  CPU:    3.833
  ** Hessian has wrong structure
  ** Imaginary eigenvectors =   1
  ** Hessian has required structure
  Cycle:     25 Energy:     -2947.656603  Gnorm:      0.075808  CPU:    4.169
  ** Hessian has required structure
  Cycle:     26 Energy:     -2947.743820  Gnorm:      0.044441  CPU:    4.320
  ** Hessian has required structure
  Cycle:     27 Energy:     -2947.783479  Gnorm:      0.025920  CPU:    4.469
  ** Hessian has required structure
  Cycle:     28 Energy:     -2947.800201  Gnorm:      0.020564  CPU:    4.619
  ** Hessian has required structure
  Cycle:     29 Energy:     -2947.806971  Gnorm:      0.006074  CPU:    4.755
  ** Hessian has required structure
  Cycle:     30 Energy:     -2947.810907  Gnorm:      0.006146  CPU:    4.905
  ** Hessian has required structure
  Cycle:     31 Energy:     -2947.812219  Gnorm:      0.005303  CPU:    5.055
  ** Hessian has required structure
  Cycle:     32 Energy:     -2947.814150  Gnorm:      0.007305  CPU:    5.221
  ** Hessian has wrong structure
  ** Imaginary eigenvectors =   1
  Cycle:     33 Energy:     -2947.814304  Gnorm:      0.005684  CPU:    5.387
  ** Hessian has wrong structure
  ** Imaginary eigenvectors =   1
  Cycle:     34 Energy:     -2947.825495  Gnorm:      0.014231  CPU:    5.701
  ** Hessian has wrong structure
  ** Imaginary eigenvectors =   1
  Cycle:     35 Energy:     -2947.846007  Gnorm:      0.037711  CPU:    6.087
  ** Hessian has required structure
  Cycle:     36 Energy:     -2947.878279  Gnorm:      0.027857  CPU:    6.305
  ** Hessian has required structure
  Cycle:     37 Energy:     -2947.895628  Gnorm:      0.022336  CPU:    6.452
  ** Hessian has required structure
  Cycle:     38 Energy:     -2947.907040  Gnorm:      0.009207  CPU:    6.605
  ** Hessian has required structure
  Cycle:     39 Energy:     -2947.911176  Gnorm:      0.014820  CPU:    6.741
  ** Hessian has required structure
  Cycle:     40 Energy:     -2947.913717  Gnorm:      0.007488  CPU:    6.878
  ** Hessian has required structure
  Cycle:     41 Energy:     -2947.914501  Gnorm:      0.004142  CPU:    7.030
  ** Hessian has required structure
  Cycle:     42 Energy:     -2947.914754  Gnorm:      0.002420  CPU:    7.166
  ** Hessian has required structure
  Cycle:     43 Energy:     -2947.914850  Gnorm:      0.001301  CPU:    7.303
  ** Hessian has required structure
  Cycle:     44 Energy:     -2947.914878  Gnorm:      0.000649  CPU:    7.456
  ** Hessian has required structure
  Cycle:     45 Energy:     -2947.914887  Gnorm:      0.000375  CPU:    7.609
  ** Hessian has required structure
  Cycle:     46 Energy:     -2947.914888  Gnorm:      0.000262  CPU:    7.806
  ** Hessian has required structure
  Cycle:     47 Energy:     -2947.914889  Gnorm:      0.000184  CPU:    7.924
  ** Hessian has required structure
  Cycle:     48 Energy:     -2947.914889  Gnorm:      0.000129  CPU:    8.043
  ** Hessian has required structure
  Cycle:     49 Energy:     -2947.914890  Gnorm:      0.000090  CPU:    8.162
  ** Hessian has required structure
  Cycle:     50 Energy:     -2947.914890  Gnorm:      0.000063  CPU:    8.281
  ** Hessian has required structure
  Cycle:     51 Energy:     -2947.914890  Gnorm:      0.000044  CPU:    8.400
  ** Hessian has required structure


  **** Optimisation achieved ****


  Final energy =   -2947.91488966 eV      
  Final Gnorm  =       0.00003097

  Components of energy : 

--------------------------------------------------------------------------------
  Interatomic potentials     =         779.77080354 eV    
  Three-body potentials      =           0.00000000 eV    
  Monopole - monopole (real) =       -1555.55202260 eV    
  Monopole - monopole (recip)=       -2172.13367060 eV    
  Monopole - monopole (total)=       -3727.68569320 eV    
--------------------------------------------------------------------------------
  Total lattice energy       =       -2947.91488966 eV    
--------------------------------------------------------------------------------
  Total lattice energy       =         -284428.7238 kJ/(mole unit cells)
--------------------------------------------------------------------------------

  Final fractional coordinates of atoms :

--------------------------------------------------------------------------------
   No.  Atomic        x           y          z          Radius
        Label       (Frac)      (Frac)     (Frac)       (Angs) 
--------------------------------------------------------------------------------
     1  Ge    c     0.052090    0.000000    0.372270    0.000000
     2  Ge    c     0.454089    0.054005    0.423226    0.000000
     3  Ge    c     0.943875    0.048347    0.619492    0.000000
     4  Ge    c     0.563211    0.002890    0.174788    0.000000
     5  Ge    c     0.459876    0.067363    0.916740    0.000000
     6  Ge    c     0.061037    0.000833    0.861142    0.000000
     7  Ge    c     0.178451    0.282415    0.299720    0.000000
     8  Ge    c     0.331186    0.770832    0.306955    0.000000
     9  Ge    c     0.653956    0.687911    0.733749    0.000000
    10  Ge    c     0.674563    0.289713    0.742590    0.000000
    11  Ge    c     0.149465    0.685646    0.300394    0.000000
    12  Ge    c     0.360232    0.366852    0.303803    0.000000
    13  Ge    c     0.683137    0.290875    0.059073    0.000000
    14  Ge    c     0.840400    0.774366    0.041182    0.000000
    15  Ge    c     0.362320    0.378190    0.985212    0.000000
    16  Ge    c     0.153392    0.690590    0.983332    0.000000
    17  Ge    c     0.334305    0.781195    0.990678    0.000000
    18  Ge    c     0.182264    0.285717    0.981785    0.000000
    19  Ge    c     0.658798    0.695015    0.052939    0.000000
    20  Ge    c     0.864714    0.366860    0.045750    0.000000
    21  Si    c     0.559376    0.000578    0.668804    0.000000
    22  Si    c     0.960887    0.061506    0.111916    0.000000
    23  Si    c     0.854835    0.359414    0.739217    0.000000
    24  Si    c     0.833507    0.752864    0.732497    0.000000
    25  O1    c     0.127572    0.142144    0.396223    0.000000
    26  O1    c     0.376784    0.917640    0.406173    0.000000
    27  O3    c     0.908097    0.249201    0.647005    0.000000
    28  O3    c     0.591276    0.812334    0.646188    0.000000
    29  O3    c     0.876813    0.883418    0.636678    0.000000
    30  O3    c     0.628785    0.137275    0.646334    0.000000
    31  O1    c     0.084563    0.796571    0.390225    0.000000
    32  O1    c     0.427307    0.259009    0.391961    0.000000
    33  O1    c     0.972640    0.043009    0.458843    0.000000
    34  O3    c     0.485204    0.040062    0.585371    0.000000
    35  O3    c     0.030161    0.022366    0.205664    0.000000
    36  O1    c     0.531220    0.998119    0.332838    0.000000
    37  O1    c     0.026539    0.014484    0.704127    0.000000
    38  O3    c     0.536383    0.018179    0.821710    0.000000
    39  O1    c     0.639346    0.144662    0.159061    0.000000
    40  O3    c     0.891740    0.922143    0.131726    0.000000
    41  O1    c     0.427455    0.270678    0.894081    0.000000
    42  O1    c     0.088756    0.795416    0.889045    0.000000
    43  O1    c     0.384659    0.923477    0.896129    0.000000
    44  O1    c     0.137431    0.140276    0.880969    0.000000
    45  O1    c     0.591586    0.799861    0.138227    0.000000
    46  O3    c     0.930161    0.251937    0.134419    0.000000
    47  O1    c     0.488566    0.061166    0.078168    0.000000
    48  O3    c     0.986185    0.051945    0.961043    0.000000
    49  O1    c     0.163098    0.485409    0.359741    0.000000
    50  O1    c     0.346216    0.567372    0.365373    0.000000
    51  O2    c     0.844181    0.554588    0.687718    0.000000
    52  O1    c     0.654434    0.484852    0.673818    0.000000
    53  O1    c     0.275005    0.250319    0.305216    0.000000
    54  O1    c     0.234905    0.802076    0.302025    0.000000
    55  O3    c     0.772233    0.264763    0.744432    0.000000
    56  O3    c     0.743892    0.786956    0.730876    0.000000
    57  O1    c     0.148638    0.268972    0.138964    0.000000
    58  O1    c     0.366354    0.793048    0.150509    0.000000
    59  O3    c     0.891831    0.371200    0.882210    0.000000
    60  O1    c     0.627549    0.671503    0.894146    0.000000
    61  O3    c     0.867136    0.782224    0.877566    0.000000
    62  O1    c     0.645528    0.276577    0.902695    0.000000
    63  O1    c     0.119714    0.669395    0.140112    0.000000
    64  O1    c     0.391402    0.393667    0.146275    0.000000
    65  O1    c     0.671501    0.495454    0.116786    0.000000
    66  O1    c     0.858913    0.571816    0.099880    0.000000
    67  O1    c     0.348992    0.579141    0.927816    0.000000
    68  O1    c     0.168467    0.490368    0.923608    0.000000
    69  O1    c     0.779044    0.256955    0.054564    0.000000
    70  O1    c     0.744933    0.808330    0.053811    0.000000
    71  O1    c     0.278722    0.255935    0.984686    0.000000
    72  O1    c     0.237848    0.810622    0.988020    0.000000
    73  O1    s     0.125856    0.142298    0.387147    0.000000
    74  O1    s     0.379267    0.916911    0.399849    0.000000
    75  O3    s     0.905649    0.244229    0.653950    0.000000
    76  O3    s     0.593090    0.820596    0.655085    0.000000
    77  O3    s     0.877797    0.883411    0.645056    0.000000
    78  O3    s     0.625931    0.136638    0.656106    0.000000
    79  O1    s     0.086877    0.803593    0.382384    0.000000
    80  O1    s     0.424311    0.251535    0.387748    0.000000
    81  O1    s     0.976821    0.039999    0.463891    0.000000
    82  O3    s     0.490354    0.037160    0.581697    0.000000
    83  O3    s     0.024601    0.024734    0.208065    0.000000
    84  O1    s     0.527745    0.002774    0.327786    0.000000
    85  O1    s     0.022865    0.016018    0.709412    0.000000
    86  O3    s     0.532249    0.020583    0.815679    0.000000
    87  O1    s     0.637049    0.145501    0.152362    0.000000
    88  O3    s     0.893886    0.922775    0.122433    0.000000
    89  O1    s     0.425058    0.263738    0.902381    0.000000
    90  O1    s     0.091613    0.802879    0.894139    0.000000
    91  O1    s     0.386316    0.923086    0.904986    0.000000
    92  O1    s     0.135073    0.140912    0.887284    0.000000
    93  O1    s     0.594773    0.806747    0.134209    0.000000
    94  O3    s     0.927912    0.243382    0.125480    0.000000
    95  O1    s     0.492143    0.057182    0.073817    0.000000
    96  O3    s     0.989715    0.048763    0.967333    0.000000
    97  O1    s     0.163136    0.486521    0.350832    0.000000
    98  O1    s     0.346178    0.567128    0.356556    0.000000
    99  O2    s     0.844204    0.554596    0.697157    0.000000
   100  O1    s     0.655857    0.486411    0.683454    0.000000
   101  O1    s     0.274025    0.261024    0.304704    0.000000
   102  O1    s     0.236010    0.791466    0.302261    0.000000
   103  O3    s     0.772397    0.275804    0.743797    0.000000
   104  O3    s     0.745687    0.775940    0.731289    0.000000
   105  O1    s     0.153308    0.271186    0.139013    0.000000
   106  O1    s     0.361531    0.790632    0.150359    0.000000
   107  O3    s     0.886134    0.369719    0.880600    0.000000
   108  O1    s     0.631907    0.674491    0.893721    0.000000
   109  O3    s     0.861917    0.778880    0.876164    0.000000
   110  O1    s     0.650339    0.278562    0.902144    0.000000
   111  O1    s     0.124403    0.672162    0.140272    0.000000
   112  O1    s     0.386942    0.390533    0.146331    0.000000
   113  O1    s     0.671389    0.495642    0.107756    0.000000
   114  O1    s     0.858042    0.570348    0.091451    0.000000
   115  O1    s     0.348988    0.577719    0.936787    0.000000
   116  O1    s     0.168313    0.490906    0.932313    0.000000
   117  O1    s     0.778237    0.267903    0.054211    0.000000
   118  O1    s     0.746006    0.797583    0.052774    0.000000
   119  O1    s     0.277548    0.266904    0.984538    0.000000
   120  O1    s     0.239045    0.799906    0.987893    0.000000
--------------------------------------------------------------------------------

  Final Cartesian lattice vectors (Angstroms) :

       17.520707   -0.253134   -0.048137
       -0.113355    7.816344    0.004823
       -0.028842    0.006175   10.218304


  Final cell parameters and derivatives :

--------------------------------------------------------------------------------
       a           17.522601 Angstrom     dE/de1(xx)     0.001361 eV/strain
       b            7.817167 Angstrom     dE/de2(yy)     0.001234 eV/strain
       c           10.218346 Angstrom     dE/de3(zz)     0.001021 eV/strain
       alpha       89.927687 Degrees      dE/de4(yz)     0.000009 eV/strain
       beta        90.319604 Degrees      dE/de5(xz)     0.000148 eV/strain
       gamma       91.658691 Degrees      dE/de6(xy)    -0.000045 eV/strain
--------------------------------------------------------------------------------

  Primitive cell volume =          1399.070368 Angs**3

  Density of cell =      2.768530 g/cm**3

  Non-primitive cell volume =          1399.070368 Angs**3


  Final internal derivatives :

--------------------------------------------------------------------------------
   No.  Atomic          a             b             c           Radius
        Label          (eV)          (eV)          (eV)        (eV/Angs)
--------------------------------------------------------------------------------
      1 Ge    c       0.000000      0.000000      0.000000      0.000000
      2 Ge    c      -0.000058     -0.000046      0.000054      0.000000
      3 Ge    c      -0.000270     -0.000059      0.000140      0.000000
      4 Ge    c       0.001666      0.000494      0.001611      0.000000
      5 Ge    c      -0.001044      0.000204     -0.000276      0.000000
      6 Ge    c      -0.000051      0.000033      0.000066      0.000000
      7 Ge    c       0.000033     -0.000064     -0.000003      0.000000
      8 Ge    c      -0.000092      0.000068      0.000129      0.000000
      9 Ge    c       0.000181     -0.000093     -0.000143      0.000000
     10 Ge    c       0.000323     -0.000087      0.000228      0.000000
     11 Ge    c      -0.000031      0.000062      0.000017      0.000000
     12 Ge    c      -0.000182     -0.000126      0.000201      0.000000
     13 Ge    c       0.000477     -0.000178     -0.000915      0.000000
     14 Ge    c       0.000104      0.000321     -0.000350      0.000000
     15 Ge    c       0.000180     -0.000101     -0.000043      0.000000
     16 Ge    c      -0.000205      0.000007     -0.000031      0.000000
     17 Ge    c      -0.000067      0.000156     -0.000020      0.000000
     18 Ge    c      -0.000051      0.000011     -0.000035      0.000000
     19 Ge    c       0.001743     -0.000280      0.000086      0.000000
     20 Ge    c      -0.000789     -0.000001      0.000143      0.000000
     21 Si    c       0.000272      0.000003     -0.000049      0.000000
     22 Si    c      -0.000045      0.000233     -0.000206      0.000000
     23 Si    c      -0.000062     -0.000048     -0.000011      0.000000
     24 Si    c      -0.000010      0.000020     -0.000058      0.000000
     25 O1    c       0.000211      0.000082      0.000017      0.000000
     26 O1    c      -0.000146     -0.000025      0.000029      0.000000
     27 O3    c       0.000236     -0.000101      0.000012      0.000000
     28 O3    c       0.000070     -0.000189     -0.000178      0.000000
     29 O3    c       0.000139      0.000216      0.000078      0.000000
     30 O3    c       0.000313      0.000150     -0.000240      0.000000
     31 O1    c       0.000031     -0.000042     -0.000008      0.000000
     32 O1    c      -0.000061      0.000231     -0.000064      0.000000
     33 O1    c      -0.000616      0.000069      0.000153      0.000000
     34 O3    c      -0.000944      0.000033     -0.000353      0.000000
     35 O3    c       0.000459     -0.000078      0.000218      0.000000
     36 O1    c       0.001613     -0.000233     -0.001137      0.000000
     37 O1    c      -0.000327     -0.000023     -0.000134      0.000000
     38 O3    c       0.001482     -0.000063     -0.000272      0.000000
     39 O1    c       0.000571     -0.000128      0.000810      0.000000
     40 O3    c      -0.000727     -0.000293      0.000281      0.000000
     41 O1    c       0.000019     -0.000046     -0.000017      0.000000
     42 O1    c       0.000040      0.000000      0.000003      0.000000
     43 O1    c      -0.000146     -0.000054     -0.000000      0.000000
     44 O1    c      -0.000217     -0.000103     -0.000066      0.000000
     45 O1    c       0.000767     -0.001418     -0.000055      0.000000
     46 O3    c       0.000283     -0.000056     -0.000155      0.000000
     47 O1    c      -0.007513      0.000412     -0.002363      0.000000
     48 O3    c       0.000014     -0.000027      0.000070      0.000000
     49 O1    c      -0.000012      0.000009      0.000098      0.000000
     50 O1    c      -0.000032      0.000060      0.000155      0.000000
     51 O2    c      -0.000044      0.000083      0.000003      0.000000
     52 O1    c      -0.000062      0.000147     -0.000170      0.000000
     53 O1    c       0.000055     -0.000018     -0.000007      0.000000
     54 O1    c      -0.000039     -0.000003      0.000004      0.000000
     55 O3    c      -0.000120      0.000066     -0.000022      0.000000
     56 O3    c       0.000158     -0.000056      0.000075      0.000000
     57 O1    c      -0.000057      0.000008      0.000090      0.000000
     58 O1    c       0.000165      0.000104     -0.000206      0.000000
     59 O3    c      -0.000061      0.000058     -0.000099      0.000000
     60 O1    c      -0.001032      0.000156     -0.000566      0.000000
     61 O3    c       0.000098     -0.000029      0.000252      0.000000
     62 O1    c       0.000134     -0.000107      0.000048      0.000000
     63 O1    c      -0.000014     -0.000021      0.000060      0.000000
     64 O1    c       0.000336     -0.000079     -0.000422      0.000000
     65 O1    c       0.000064      0.001690      0.000452      0.000000
     66 O1    c       0.000021     -0.001231      0.000229      0.000000
     67 O1    c      -0.000028     -0.000074     -0.000207      0.000000
     68 O1    c       0.000050     -0.000109     -0.000053      0.000000
     69 O1    c       0.002862      0.000319     -0.000010      0.000000
     70 O1    c      -0.002206     -0.000189      0.000057      0.000000
     71 O1    c      -0.000243     -0.000112      0.000028      0.000000
     72 O1    c       0.000232      0.000125      0.000003      0.000000
     73 O1    s      -0.000059     -0.000049     -0.000016      0.000000
     74 O1    s      -0.000263     -0.000049      0.000030      0.000000
     75 O3    s       0.000010      0.000018      0.000033      0.000000
     76 O3    s       0.000120     -0.000125      0.000038      0.000000
     77 O3    s      -0.000057     -0.000050     -0.000041      0.000000
     78 O3    s       0.000152      0.000059     -0.000008      0.000000
     79 O1    s      -0.000013     -0.000007     -0.000035      0.000000
     80 O1    s      -0.000028      0.000008      0.000083      0.000000
     81 O1    s       0.000239     -0.000040      0.000028      0.000000
     82 O3    s       0.000014      0.000012      0.000363      0.000000
     83 O3    s       0.000088      0.000005     -0.000092      0.000000
     84 O1    s      -0.000854      0.000137      0.001208      0.000000
     85 O1    s       0.000059     -0.000014      0.000043      0.000000
     86 O3    s      -0.000900     -0.000099      0.000106      0.000000
     87 O1    s       0.000520      0.000522      0.000061      0.000000
     88 O3    s       0.000434      0.000208     -0.000004      0.000000
     89 O1    s      -0.000018      0.000122      0.000020      0.000000
     90 O1    s      -0.000073      0.000028      0.000014      0.000000
     91 O1    s      -0.000052     -0.000038     -0.000032      0.000000
     92 O1    s       0.000107      0.000036      0.000047      0.000000
     93 O1    s       0.000240     -0.000054      0.000567      0.000000
     94 O3    s      -0.000379      0.000266     -0.000060      0.000000
     95 O1    s       0.002006     -0.000326      0.001243      0.000000
     96 O3    s       0.000135      0.000043     -0.000112      0.000000
     97 O1    s       0.000012      0.000006     -0.000070      0.000000
     98 O1    s      -0.000003     -0.000013     -0.000120      0.000000
     99 O2    s       0.000087     -0.000043     -0.000103      0.000000
    100 O1    s       0.000067     -0.000084      0.000186      0.000000
    101 O1    s      -0.000163      0.000004      0.000024      0.000000
    102 O1    s      -0.000095     -0.000002     -0.000012      0.000000
    103 O3    s       0.000289     -0.000056      0.000075      0.000000
    104 O3    s      -0.000036      0.000173     -0.000176      0.000000
    105 O1    s       0.000020     -0.000029     -0.000039      0.000000
    106 O1    s       0.000033     -0.000121      0.000057      0.000000
    107 O3    s      -0.000233     -0.000084      0.000232      0.000000
    108 O1    s       0.000228     -0.000185      0.000201      0.000000
    109 O3    s       0.000117      0.000101     -0.000272      0.000000
    110 O1    s      -0.000421      0.000188     -0.000362      0.000000
    111 O1    s      -0.000039      0.000031      0.000015      0.000000
    112 O1    s      -0.000056      0.000153      0.000160      0.000000
    113 O1    s      -0.000177     -0.000540     -0.000085      0.000000
    114 O1    s      -0.000037      0.000421     -0.000082      0.000000
    115 O1    s       0.000110      0.000062      0.000216      0.000000
    116 O1    s      -0.000040      0.000040     -0.000007      0.000000
    117 O1    s      -0.000270     -0.000531     -0.000121      0.000000
    118 O1    s       0.001087      0.000309      0.000008      0.000000
    119 O1    s       0.000167      0.000053     -0.000049      0.000000
    120 O1    s      -0.000083     -0.000065      0.000017      0.000000
--------------------------------------------------------------------------------
  Maximum abs         0.007513      0.001690      0.002363      0.000000
--------------------------------------------------------------------------------


  Born effective charge tensors : 

-------------------------------------------------------------------------------
  Atom             x           y             z
-------------------------------------------------------------------------------
    1 Ge    x       4.1757     -0.2629      0.0624
            y       0.1012      3.9037     -0.0094
            z      -0.8783      0.1651      4.1808
-------------------------------------------------------------------------------
    2 Ge    x       4.1965     -0.2690      0.4532
            y       0.1442      3.9071     -0.0976
            z       0.2224     -0.0056      4.3549
-------------------------------------------------------------------------------
    3 Ge    x       4.0697     -0.2005     -0.4232
            y       0.0759      3.9394      0.0669
            z      -0.2556      0.0039      4.4595
-------------------------------------------------------------------------------
    4 Ge    x       4.2500     -0.2048     -0.3664
            y       0.1333      3.9311      0.0719
            z      -0.3397     -0.0403      4.0675
-------------------------------------------------------------------------------
    5 Ge    x       4.2211     -0.1719      0.0708
            y       0.1305      3.9259     -0.0094
            z      -0.6229      0.1720      3.6695
-------------------------------------------------------------------------------
    6 Ge    x       4.2194     -0.1955      0.4443
            y       0.1659      3.9389     -0.0696
            z       0.3697     -0.0403      3.9090
-------------------------------------------------------------------------------
    7 Ge    x       4.0945      0.2582     -0.2714
            y       0.2727      4.1500     -0.0552
            z       0.0020     -0.1277      3.5922
-------------------------------------------------------------------------------
    8 Ge    x       4.0378      0.2416      0.3245
            y       0.2379      4.1921      0.0771
            z       0.0294      0.1838      3.6464
-------------------------------------------------------------------------------
    9 Ge    x       3.8256     -0.1092      0.1724
            y      -0.4528      4.2101     -0.0718
            z       0.0250     -0.1458      3.4758
-------------------------------------------------------------------------------
   10 Ge    x       3.8648      0.2846      0.2686
            y       0.2669      4.1384     -0.0252
            z      -0.0074      0.0641      3.4844
-------------------------------------------------------------------------------
   11 Ge    x       3.9682     -0.1050     -0.2059
            y      -0.4660      4.2197      0.0921
            z      -0.0416      0.1783      3.5853
-------------------------------------------------------------------------------
   12 Ge    x       3.9976     -0.0660      0.2077
            y      -0.4633      4.1952     -0.1105
            z       0.1005     -0.2310      3.6426
-------------------------------------------------------------------------------
   13 Ge    x       4.0236      0.2187     -0.3513
            y       0.2361      4.1860     -0.1062
            z      -0.0451     -0.1917      3.5605
-------------------------------------------------------------------------------
   14 Ge    x       3.9825      0.1931      0.3135
            y       0.1843      4.1665      0.0741
            z       0.0130      0.1294      3.3639
-------------------------------------------------------------------------------
   15 Ge    x       4.0372     -0.0798     -0.3067
            y      -0.4380      4.2165      0.0873
            z      -0.1146      0.1792      3.4715
-------------------------------------------------------------------------------
   16 Ge    x       4.0469     -0.0588      0.3043
            y      -0.4426      4.1881     -0.1055
            z       0.1131     -0.1883      3.5020
-------------------------------------------------------------------------------
   17 Ge    x       4.1369      0.2561     -0.3486
            y       0.2786      4.1522     -0.0639
            z      -0.0540     -0.1507      3.4966
-------------------------------------------------------------------------------
   18 Ge    x       4.0983      0.2376      0.3311
            y       0.2526      4.1898      0.0941
            z       0.0194      0.1721      3.5274
-------------------------------------------------------------------------------
   19 Ge    x       4.0408     -0.0635     -0.3075
            y      -0.4473      4.1620      0.0711
            z      -0.1674      0.1833      3.5428
-------------------------------------------------------------------------------
   20 Ge    x       3.8604     -0.0372      0.2983
            y      -0.3820      4.2568     -0.0779
            z       0.0511     -0.1338      3.3294
-------------------------------------------------------------------------------
   21 Si    x       3.8653     -0.2620     -0.1160
            y       0.0867      3.6794      0.0504
            z       0.7772     -0.1227      3.8285
-------------------------------------------------------------------------------
   22 Si    x       3.8814     -0.1888     -0.0006
            y       0.1129      3.6997      0.0099
            z       0.6819     -0.1522      3.4538
-------------------------------------------------------------------------------
   23 Si    x       3.6117     -0.0621     -0.2011
            y      -0.3893      3.6964      0.2619
            z      -0.0224      0.3252      3.2838
-------------------------------------------------------------------------------
   24 Si    x       3.6496      0.2526     -0.2050
            y       0.3024      3.6920     -0.2147
            z       0.0360     -0.2494      3.2931
-------------------------------------------------------------------------------
   25 O1    x      -2.2500     -0.9021      0.2824
            y      -0.9613     -2.2365      0.3374
            z       0.3636      0.3336     -1.6361
-------------------------------------------------------------------------------
   26 O1    x      -2.2330     -0.8976     -0.5550
            y      -0.9263     -2.2602     -0.5109
            z      -0.5049     -0.5471     -1.7123
-------------------------------------------------------------------------------
   27 O3    x      -1.8080      0.8420      0.5470
            y       0.7907     -2.4239     -0.5922
            z       0.4893     -0.6065     -1.6365
-------------------------------------------------------------------------------
   28 O3    x      -1.8115      0.8405     -0.2349
            y       0.8092     -2.5086      0.2097
            z      -0.3256      0.2363     -1.4213
-------------------------------------------------------------------------------
   29 O3    x      -1.8815     -0.8408      0.5035
            y      -0.8688     -2.3152      0.5642
            z       0.4742      0.6001     -1.6434
-------------------------------------------------------------------------------
   30 O3    x      -2.0656     -0.8515     -0.2153
            y      -0.9042     -2.1975     -0.2781
            z      -0.2843     -0.2641     -1.4531
-------------------------------------------------------------------------------
   31 O1    x      -1.9777      0.8893      0.3400
            y       0.8285     -2.5272     -0.2896
            z       0.4225     -0.3183     -1.6056
-------------------------------------------------------------------------------
   32 O1    x      -1.9780      0.8581     -0.5522
            y       0.7869     -2.5329      0.5559
            z      -0.5005      0.5595     -1.6869
-------------------------------------------------------------------------------
   33 O1    x      -2.1188      0.2284      0.9521
            y       0.0967     -1.2860     -0.1172
            z       1.2452     -0.2389     -3.1469
-------------------------------------------------------------------------------
   34 O3    x      -2.0692      0.2583     -0.8925
            y       0.1094     -1.2155      0.1358
            z      -1.1250      0.2509     -2.7594
-------------------------------------------------------------------------------
   35 O3    x      -2.0149      0.2344     -0.8240
            y       0.1009     -1.2804      0.1787
            z      -0.7909      0.2424     -2.4605
-------------------------------------------------------------------------------
   36 O1    x      -2.0878      0.2253      0.8081
            y       0.1193     -1.2997     -0.1388
            z       0.8731     -0.1666     -2.8091
-------------------------------------------------------------------------------
   37 O1    x      -2.2159      0.2102     -0.8257
            y       0.0966     -1.3008      0.1242
            z      -0.8436      0.1651     -2.6945
-------------------------------------------------------------------------------
   38 O3    x      -1.9213      0.2053      0.7277
            y       0.0843     -1.2874     -0.1651
            z       0.6958     -0.2277     -2.5122
-------------------------------------------------------------------------------
   39 O1    x      -2.1948     -0.8836      0.5258
            y      -0.9003     -2.2797      0.5160
            z       0.4604      0.5223     -1.6331
-------------------------------------------------------------------------------
   40 O3    x      -2.1114     -0.8780     -0.2523
            y      -0.9084     -2.1927     -0.2719
            z      -0.3087     -0.2740     -1.3862
-------------------------------------------------------------------------------
   41 O1    x      -2.0706      0.8694      0.3860
            y       0.8077     -2.5034     -0.2749
            z       0.4241     -0.3165     -1.4776
-------------------------------------------------------------------------------
   42 O1    x      -2.0249      0.8409     -0.5567
            y       0.7633     -2.5184      0.5446
            z      -0.4654      0.4987     -1.5645
-------------------------------------------------------------------------------
   43 O1    x      -2.2902     -0.9195      0.3493
            y      -0.9588     -2.2671      0.3553
            z       0.4083      0.3673     -1.5080
-------------------------------------------------------------------------------
   44 O1    x      -2.2572     -0.8971     -0.5389
            y      -0.9139     -2.2729     -0.5289
            z      -0.4456     -0.5032     -1.6051
-------------------------------------------------------------------------------
   45 O1    x      -2.0412      0.8366      0.5618
            y       0.7907     -2.5011     -0.5639
            z       0.5148     -0.5433     -1.5930
-------------------------------------------------------------------------------
   46 O3    x      -1.8474      0.8085     -0.2750
            y       0.7602     -2.4671      0.2062
            z      -0.3237      0.2372     -1.3634
-------------------------------------------------------------------------------
   47 O1    x      -2.1304      0.2377     -0.7254
            y       0.1419     -1.3733      0.1865
            z      -0.5029      0.1622     -2.3740
-------------------------------------------------------------------------------
   48 O3    x      -1.9102      0.1834      0.6423
            y       0.0937     -1.3027     -0.1600
            z       0.4329     -0.1414     -2.2447
-------------------------------------------------------------------------------
   49 O1    x      -1.3704      0.2055      0.0668
            y       0.3259     -3.1567      0.0068
            z       0.0208      0.0134     -1.3876
-------------------------------------------------------------------------------
   50 O1    x      -1.3743      0.2150     -0.0675
            y       0.3255     -3.1601     -0.0303
            z      -0.0217     -0.0299     -1.4037
-------------------------------------------------------------------------------
   51 O2    x      -1.1723      0.1105      0.0496
            y       0.1808     -2.4904      0.0249
            z       0.0073      0.0272     -1.1598
-------------------------------------------------------------------------------
   52 O1    x      -1.3605      0.1238     -0.1268
            y       0.2369     -3.1970      0.0359
            z      -0.0741      0.0017     -1.3786
-------------------------------------------------------------------------------
   53 O1    x      -3.0696     -0.2872     -0.0249
            y      -0.1967     -1.5927      0.0154
            z      -0.0618      0.0433     -1.2256
-------------------------------------------------------------------------------
   54 O1    x      -3.0792     -0.2833     -0.0428
            y      -0.1982     -1.5915     -0.0141
            z      -0.0253     -0.0470     -1.2281
-------------------------------------------------------------------------------
   55 O3    x      -2.8784     -0.3408      0.0224
            y      -0.2922     -1.5219     -0.0029
            z       0.0278     -0.0342     -1.1311
-------------------------------------------------------------------------------
   56 O3    x      -2.9550     -0.1126      0.0062
            y       0.0043     -1.4501      0.0164
            z      -0.0283      0.0478     -1.1309
-------------------------------------------------------------------------------
   57 O1    x      -1.5142     -0.1120      0.0208
            y      -0.1208     -1.4225      0.0122
            z       0.0079      0.0061     -2.7230
-------------------------------------------------------------------------------
   58 O1    x      -1.5179     -0.1102      0.0518
            y      -0.1211     -1.4267      0.0347
            z       0.0574      0.0389     -2.7343
-------------------------------------------------------------------------------
   59 O3    x      -1.3749      0.0372     -0.2478
            y       0.1129     -1.3690      0.0307
            z      -0.2031     -0.0137     -2.5514
-------------------------------------------------------------------------------
   60 O1    x      -1.4573      0.0135      0.0331
            y       0.0884     -1.4374     -0.0090
            z      -0.0062     -0.0027     -2.7508
-------------------------------------------------------------------------------
   61 O3    x      -1.3736     -0.1228     -0.1977
            y      -0.1334     -1.3903     -0.1402
            z      -0.1560     -0.1197     -2.5680
-------------------------------------------------------------------------------
   62 O1    x      -1.5279     -0.1153     -0.0127
            y      -0.1359     -1.4209     -0.0091
            z      -0.0367     -0.0102     -2.7029
-------------------------------------------------------------------------------
   63 O1    x      -1.4790      0.0155     -0.0045
            y       0.0823     -1.4326      0.0080
            z       0.0025      0.0115     -2.7277
-------------------------------------------------------------------------------
   64 O1    x      -1.4661      0.0104      0.0543
            y       0.0810     -1.4353      0.0353
            z       0.0625      0.0380     -2.7654
-------------------------------------------------------------------------------
   65 O1    x      -1.3746      0.1884      0.0810
            y       0.2759     -3.1589      0.0458
            z       0.0301      0.0244     -1.3731
-------------------------------------------------------------------------------
   66 O1    x      -1.3576      0.1682     -0.1174
            y       0.2883     -3.2697      0.0041
            z      -0.0507     -0.0003     -1.3557
-------------------------------------------------------------------------------
   67 O1    x      -1.4083      0.2151      0.0905
            y       0.3107     -3.1477     -0.0119
            z       0.0357      0.0044     -1.3442
-------------------------------------------------------------------------------
   68 O1    x      -1.4138      0.2281     -0.0716
            y       0.3198     -3.1676     -0.0233
            z      -0.0193     -0.0170     -1.3423
-------------------------------------------------------------------------------
   69 O1    x      -3.0717     -0.2561      0.0823
            y      -0.1527     -1.5576      0.0391
            z       0.0850      0.0699     -1.2086
-------------------------------------------------------------------------------
   70 O1    x      -3.0689     -0.2748      0.0861
            y      -0.2028     -1.5778     -0.0257
            z       0.1186     -0.0455     -1.2124
-------------------------------------------------------------------------------
   71 O1    x      -3.0925     -0.3121     -0.0161
            y      -0.2108     -1.6103     -0.0109
            z       0.0067     -0.0442     -1.1937
-------------------------------------------------------------------------------
   72 O1    x      -3.0860     -0.3077     -0.0407
            y      -0.2068     -1.6023      0.0050
            z      -0.0540      0.0328     -1.1947
-------------------------------------------------------------------------------




  Elastic Constant Matrix: (Units=GPa)

-------------------------------------------------------------------------------
  Indices      1         2         3         4         5         6    
-------------------------------------------------------------------------------
       1     29.1491   12.2145    9.5422    0.0449   -0.4016   -7.9332
       2     12.2145   33.8435    7.3925    0.1209    0.1249   -7.6095
       3      9.5422    7.3925   15.8948   -0.1520   -0.3516   -2.0779
       4      0.0449    0.1209   -0.1520    8.8292   -2.1934   -0.1155
       5     -0.4016    0.1249   -0.3516   -2.1934   16.7877   -0.2706
       6     -7.9332   -7.6095   -2.0779   -0.1155   -0.2706   19.6478
-------------------------------------------------------------------------------


  Elastic Compliance Matrix: (Units=1/GPa)

-------------------------------------------------------------------------------
  Indices      1         2         3         4         5         6    
-------------------------------------------------------------------------------
       1    0.049906 -0.009736 -0.023595 -0.000101  0.000983  0.013897
       2   -0.009736  0.037458 -0.010360 -0.000683 -0.000665  0.009467
       3   -0.023595 -0.010360  0.081304  0.001943  0.001390 -0.004910
       4   -0.000101 -0.000683  0.001943  0.117130  0.015360  0.000800
       5    0.000983 -0.000665  0.001390  0.015360  0.061652  0.001226
       6    0.013897  0.009467 -0.004910  0.000800  0.001226  0.059676
-------------------------------------------------------------------------------

  Mechanical properties :

-------------------------------------------------------------------------------
  Convention :                    Reuss         Voigt         Hill
-------------------------------------------------------------------------------
  Bulk  Modulus (GPa)     =      12.30215      15.24287      13.77251
  Shear Modulus (GPa)     =       9.58581      12.36882      10.97731
-------------------------------------------------------------------------------
  Velocity S-wave (km/s)  =       1.86076       2.11368       1.99124
  Velocity P-wave (km/s)  =       3.01000       3.38565       3.20334
-------------------------------------------------------------------------------
  Compressibility (1/GPa) =    0.08128663
-------------------------------------------------------------------------------
  Stress axis :                     x             y             z
-------------------------------------------------------------------------------
  Youngs Moduli (GPa)     =      20.03763      26.69639      12.29948
-------------------------------------------------------------------------------
  Poissons Ratio (x)      =                     0.25993       0.29020
  Poissons Ratio (y)      =       0.19509                     0.12742
  Poissons Ratio (z)      =       0.47278       0.27657
-------------------------------------------------------------------------------


  Piezoelectric Strain Matrix: (Units=C/m**2)

-------------------------------------------------------------------------------
  Indices      1         2         3         4         5         6    
-------------------------------------------------------------------------------
       x     0.27843   0.02514   0.27137  -0.02955   0.11764   0.25701
       y     0.60904   0.23736   0.06762   0.10470   0.09441   0.38327
       z    -0.01092  -0.24950  -0.23706   0.12550  -0.09956   0.05979
-------------------------------------------------------------------------------


  Piezoelectric Stress Matrix: (Units=10**-11 C/N)

-------------------------------------------------------------------------------
  Indices      1         2         3         4         5         6    
-------------------------------------------------------------------------------
       x     1.09381  -0.22052   1.40775  -0.09661   0.77483   1.82332
       y     3.18970   0.57550  -1.28786   1.39287   0.84335   3.34511
       z     0.81981  -0.62372  -1.66194   1.29298  -0.43116   0.21966
-------------------------------------------------------------------------------


  Static dielectric constant tensor : 

-------------------------------------------------------------------------------
              x         y         z
-------------------------------------------------------------------------------
       x     5.33964   0.01940  -0.04262
       y     0.01940   6.26820  -0.00194
       z    -0.04262  -0.00194   4.16656
--------------------------------------------------------------------------------

  High frequency dielectric constant tensor : 

-------------------------------------------------------------------------------
              x         y         z
-------------------------------------------------------------------------------
       x     1.55458  -0.00261   0.00112
       y    -0.00261   1.56027  -0.00012
       z     0.00112  -0.00012   1.51507
-------------------------------------------------------------------------------

  Static refractive indices : 

-------------------------------------------------------------------------------
    1 =    2.04084      2 =    2.31101      3 =    2.50372
-------------------------------------------------------------------------------

  High frequency refractive indices : 

-------------------------------------------------------------------------------
    1 =    1.23087      2 =    1.24643      3 =    1.24951
-------------------------------------------------------------------------------


  Time to end of optimisation =       8.6783 seconds


  Peak dynamic memory used =       5.01 MB 


  Timing analysis for GULP :

--------------------------------------------------------------------------------
  Task / Subroutine                                          Time (Seconds)
--------------------------------------------------------------------------------
  Calculation of reciprocal space energy and derivatives          0.6675
  Calculation of real space energy and derivatives                5.9550
  Calculation of three-body energy and derivatives                0.0840
  Calculation and manipulation of Hessian matrix                  2.5188
  Calculation of matrix inversion                                 0.0320
  Global summation overhead                                       0.0001
--------------------------------------------------------------------------------
  Total CPU time                                                  8.6783
--------------------------------------------------------------------------------


  Dump file written as c01126.vasp.grs
  CIF file written as c01126.vasp.cif


  Job Finished at 15:09.48 31st October    2025                               

