********************************************************************************
*                       GENERAL UTILITY LATTICE PROGRAM                        *
*                                 Julian Gale                                  *
*                       Curtin Institute for Computation                       *
*                    School of Molecular and Life Sciences                     *
*                    Curtin University, Western Australia                      *
********************************************************************************
* Version = 6.1.2 * Last modified =   3rd November 2022                        *
********************************************************************************
*  optimise     - perform optimisation run                                     *
*  conp         - constant pressure calculation                                *
*  property     - calculate properties for final geometry                      *
********************************************************************************

  Job Started  at 15:13.17 31st October    2025                               

  Number of CPUs =     1


  Total number of configurations input =      1

********************************************************************************
*  Input for Configuration =   1 : c01149.vasp                                 *
********************************************************************************

  Formula = Ge20Si4O48                                                  

  Number of irreducible atoms/shells =     120


  Total number atoms/shells =     120

  Dimensionality = 3               :  Bulk   



  Cartesian lattice vectors (Angstroms) :

       17.182800    0.000000    0.000000
        0.000000    7.513760    0.000000
        0.000000    0.000000   10.447700

  Cell parameters (Angstroms/Degrees):

  a =      17.1828    alpha =  90.0000
  b =       7.5138    beta  =  90.0000
  c =      10.4477    gamma =  90.0000

  Initial cell volume =        1348.875752 Angs**3

  Temperature of configuration =   0.00     K 

  Pressure of configuration =         0.000 GPa 

  Fractional coordinates of asymmetric unit :

--------------------------------------------------------------------------------
   No.  Atomic       x           y          z         Charge      Occupancy
        Label      (Frac)      (Frac)     (Frac)        (e)         (Frac)  
--------------------------------------------------------------------------------
      1 Ge    c    0.052090    0.000000    0.372270     4.00000    1.000000    
      2 Ge    c    0.447910 *  0.000000 *  0.372270 *   4.00000    1.000000    
      3 Ge    c    0.947910 *  0.000000 *  0.627730 *   4.00000    1.000000    
      4 Ge    c    0.943270 *  0.000000 *  0.122130 *   4.00000    1.000000    
      5 Ge    c    0.443270 *  0.000000 *  0.877870 *   4.00000    1.000000    
      6 Ge    c    0.056730 *  0.000000 *  0.877870 *   4.00000    1.000000    
      7 Ge    c    0.160190 *  0.293910 *  0.273440 *   4.00000    1.000000    
      8 Ge    c    0.339810 *  0.706090 *  0.273440 *   4.00000    1.000000    
      9 Ge    c    0.839810 *  0.293910 *  0.726560 *   4.00000    1.000000    
     10 Ge    c    0.660190 *  0.706090 *  0.726560 *   4.00000    1.000000    
     11 Ge    c    0.839810 *  0.706090 *  0.726560 *   4.00000    1.000000    
     12 Ge    c    0.660190 *  0.293910 *  0.726560 *   4.00000    1.000000    
     13 Ge    c    0.160190 *  0.706090 *  0.273440 *   4.00000    1.000000    
     14 Ge    c    0.339810 *  0.293910 *  0.273440 *   4.00000    1.000000    
     15 Ge    c    0.660660 *  0.294090 *  0.017440 *   4.00000    1.000000    
     16 Ge    c    0.839340 *  0.705910 *  0.017440 *   4.00000    1.000000    
     17 Ge    c    0.339340 *  0.294090 *  0.982560 *   4.00000    1.000000    
     18 Ge    c    0.160660 *  0.705910 *  0.982560 *   4.00000    1.000000    
     19 Ge    c    0.339340 *  0.705910 *  0.982560 *   4.00000    1.000000    
     20 Ge    c    0.839340 *  0.294090 *  0.017440 *   4.00000    1.000000    
     21 Si    c    0.552090 *  0.000000 *  0.627730 *   4.00000    1.000000    
     22 Si    c    0.556730 *  0.000000 *  0.122130 *   4.00000    1.000000    
     23 Si    c    0.160660 *  0.294090 *  0.982560 *   4.00000    1.000000    
     24 Si    c    0.660660 *  0.705910 *  0.017440 *   4.00000    1.000000    
     25 O1    c    0.106570 *  0.174340 *  0.366200 *   1.73396    1.000000    
     26 O1    c    0.393430 *  0.825660 *  0.366200 *   1.73396    1.000000    
     27 O1    c    0.893430 *  0.174340 *  0.633800 *   1.73396    1.000000    
     28 O3    c    0.606570 *  0.825660 *  0.633800 *   1.33043    1.000000    
     29 O1    c    0.893430 *  0.825660 *  0.633800 *   1.73396    1.000000    
     30 O3    c    0.606570 *  0.174340 *  0.633800 *   1.33043    1.000000    
     31 O1    c    0.106570 *  0.825660 *  0.366200 *   1.73396    1.000000    
     32 O1    c    0.393430 *  0.174340 *  0.366200 *   1.73396    1.000000    
     33 O1    c    0.000000 *  0.000000 *  0.500000 *   1.73396    1.000000    
     34 O3    c    0.500000 *  0.000000 *  0.500000 *   1.33043    1.000000    
     35 O1    c    0.994520 *  0.000000 *  0.250840 *   1.73396    1.000000    
     36 O3    c    0.505480 *  0.000000 *  0.250840 *   1.33043    1.000000    
     37 O1    c    0.005480 *  0.000000 *  0.749160 *   1.73396    1.000000    
     38 O3    c    0.494520 *  0.000000 *  0.749160 *   1.33043    1.000000    
     39 O3    c    0.610230 *  0.175520 *  0.115390 *   1.33043    1.000000    
     40 O1    c    0.889770 *  0.824480 *  0.115390 *   1.73396    1.000000    
     41 O1    c    0.389770 *  0.175520 *  0.884610 *   1.73396    1.000000    
     42 O1    c    0.110230 *  0.824480 *  0.884610 *   1.73396    1.000000    
     43 O1    c    0.389770 *  0.824480 *  0.884610 *   1.73396    1.000000    
     44 O3    c    0.110230 *  0.175520 *  0.884610 *   1.33043    1.000000    
     45 O2    c    0.610230 *  0.824480 *  0.115390 *   0.87073    1.000000    
     46 O1    c    0.889770 *  0.175520 *  0.115390 *   1.73396    1.000000    
     47 O3    c    0.500000 *  0.000000 *  0.000000 *   1.33043    1.000000    
     48 O1    c    0.000000 *  0.000000 *  0.000000 *   1.73396    1.000000    
     49 O1    c    0.151750 *  0.500000 *  0.313330 *   1.73396    1.000000    
     50 O1    c    0.348250 *  0.500000 *  0.313330 *   1.73396    1.000000    
     51 O1    c    0.848250 *  0.500000 *  0.686670 *   1.73396    1.000000    
     52 O1    c    0.651750 *  0.500000 *  0.686670 *   1.73396    1.000000    
     53 O1    c    0.250000 *  0.234950 *  0.285720 *   1.73396    1.000000    
     54 O1    c    0.250000 *  0.765050 *  0.285720 *   1.73396    1.000000    
     55 O1    c    0.750000 *  0.234950 *  0.714280 *   1.73396    1.000000    
     56 O1    c    0.750000 *  0.765050 *  0.714280 *   1.73396    1.000000    
     57 O3    c    0.131410 *  0.268650 *  0.127790 *   1.33043    1.000000    
     58 O1    c    0.368590 *  0.731350 *  0.127790 *   1.73396    1.000000    
     59 O1    c    0.868590 *  0.268650 *  0.872210 *   1.73396    1.000000    
     60 O3    c    0.631410 *  0.731350 *  0.872210 *   1.33043    1.000000    
     61 O1    c    0.868590 *  0.731350 *  0.872210 *   1.73396    1.000000    
     62 O1    c    0.631410 *  0.268650 *  0.872210 *   1.73396    1.000000    
     63 O1    c    0.131410 *  0.731350 *  0.127790 *   1.73396    1.000000    
     64 O1    c    0.368590 *  0.268650 *  0.127790 *   1.73396    1.000000    
     65 O3    c    0.653920 *  0.500000 *  0.058200 *   1.33043    1.000000    
     66 O1    c    0.846080 *  0.500000 *  0.058200 *   1.73396    1.000000    
     67 O1    c    0.346080 *  0.500000 *  0.941800 *   1.73396    1.000000    
     68 O3    c    0.153920 *  0.500000 *  0.941800 *   1.33043    1.000000    
     69 O1    c    0.750000 *  0.231060 *  0.027050 *   1.73396    1.000000    
     70 O3    c    0.750000 *  0.768940 *  0.027050 *   1.33043    1.000000    
     71 O3    c    0.250000 *  0.231060 *  0.972950 *   1.33043    1.000000    
     72 O1    c    0.250000 *  0.768940 *  0.972950 *   1.73396    1.000000    
     73 O1    s    0.106570 *  0.174340 *  0.366200 *  -3.73396    1.000000    
     74 O1    s    0.393430 *  0.825660 *  0.366200 *  -3.73396    1.000000    
     75 O1    s    0.893430 *  0.174340 *  0.633800 *  -3.73396    1.000000    
     76 O3    s    0.606570 *  0.825660 *  0.633800 *  -3.33043    1.000000    
     77 O1    s    0.893430 *  0.825660 *  0.633800 *  -3.73396    1.000000    
     78 O3    s    0.606570 *  0.174340 *  0.633800 *  -3.33043    1.000000    
     79 O1    s    0.106570 *  0.825660 *  0.366200 *  -3.73396    1.000000    
     80 O1    s    0.393430 *  0.174340 *  0.366200 *  -3.73396    1.000000    
     81 O1    s    0.000000 *  0.000000 *  0.500000 *  -3.73396    1.000000    
     82 O3    s    0.500000 *  0.000000 *  0.500000 *  -3.33043    1.000000    
     83 O1    s    0.994520 *  0.000000 *  0.250840 *  -3.73396    1.000000    
     84 O3    s    0.505480 *  0.000000 *  0.250840 *  -3.33043    1.000000    
     85 O1    s    0.005480 *  0.000000 *  0.749160 *  -3.73396    1.000000    
     86 O3    s    0.494520 *  0.000000 *  0.749160 *  -3.33043    1.000000    
     87 O3    s    0.610230 *  0.175520 *  0.115390 *  -3.33043    1.000000    
     88 O1    s    0.889770 *  0.824480 *  0.115390 *  -3.73396    1.000000    
     89 O1    s    0.389770 *  0.175520 *  0.884610 *  -3.73396    1.000000    
     90 O1    s    0.110230 *  0.824480 *  0.884610 *  -3.73396    1.000000    
     91 O1    s    0.389770 *  0.824480 *  0.884610 *  -3.73396    1.000000    
     92 O3    s    0.110230 *  0.175520 *  0.884610 *  -3.33043    1.000000    
     93 O2    s    0.610230 *  0.824480 *  0.115390 *  -2.87073    1.000000    
     94 O1    s    0.889770 *  0.175520 *  0.115390 *  -3.73396    1.000000    
     95 O3    s    0.500000 *  0.000000 *  0.000000 *  -3.33043    1.000000    
     96 O1    s    0.000000 *  0.000000 *  0.000000 *  -3.73396    1.000000    
     97 O1    s    0.151750 *  0.500000 *  0.313330 *  -3.73396    1.000000    
     98 O1    s    0.348250 *  0.500000 *  0.313330 *  -3.73396    1.000000    
     99 O1    s    0.848250 *  0.500000 *  0.686670 *  -3.73396    1.000000    
    100 O1    s    0.651750 *  0.500000 *  0.686670 *  -3.73396    1.000000    
    101 O1    s    0.250000 *  0.234950 *  0.285720 *  -3.73396    1.000000    
    102 O1    s    0.250000 *  0.765050 *  0.285720 *  -3.73396    1.000000    
    103 O1    s    0.750000 *  0.234950 *  0.714280 *  -3.73396    1.000000    
    104 O1    s    0.750000 *  0.765050 *  0.714280 *  -3.73396    1.000000    
    105 O3    s    0.131410 *  0.268650 *  0.127790 *  -3.33043    1.000000    
    106 O1    s    0.368590 *  0.731350 *  0.127790 *  -3.73396    1.000000    
    107 O1    s    0.868590 *  0.268650 *  0.872210 *  -3.73396    1.000000    
    108 O3    s    0.631410 *  0.731350 *  0.872210 *  -3.33043    1.000000    
    109 O1    s    0.868590 *  0.731350 *  0.872210 *  -3.73396    1.000000    
    110 O1    s    0.631410 *  0.268650 *  0.872210 *  -3.73396    1.000000    
    111 O1    s    0.131410 *  0.731350 *  0.127790 *  -3.73396    1.000000    
    112 O1    s    0.368590 *  0.268650 *  0.127790 *  -3.73396    1.000000    
    113 O3    s    0.653920 *  0.500000 *  0.058200 *  -3.33043    1.000000    
    114 O1    s    0.846080 *  0.500000 *  0.058200 *  -3.73396    1.000000    
    115 O1    s    0.346080 *  0.500000 *  0.941800 *  -3.73396    1.000000    
    116 O3    s    0.153920 *  0.500000 *  0.941800 *  -3.33043    1.000000    
    117 O1    s    0.750000 *  0.231060 *  0.027050 *  -3.73396    1.000000    
    118 O3    s    0.750000 *  0.768940 *  0.027050 *  -3.33043    1.000000    
    119 O3    s    0.250000 *  0.231060 *  0.972950 *  -3.33043    1.000000    
    120 O1    s    0.250000 *  0.768940 *  0.972950 *  -3.73396    1.000000    
--------------------------------------------------------------------------------



********************************************************************************
*  General input information                                                   *
********************************************************************************

  Species output for all configurations : 

--------------------------------------------------------------------------------
  Species    Type    Atomic    Atomic    Charge       Radii (Angs)     Library
                     Number     Mass       (e)     Cova   Ionic  VDW   Symbol
--------------------------------------------------------------------------------
    Ge       Core       32      72.61   4.000000   1.170  0.000  1.750 Ge       
    Si       Core       14      28.09   4.000000   1.200  0.000  2.100 Si       
    O1       Core        8      16.00   1.733957   0.730  0.000  1.360 O1       
    O2       Core        8      16.00   0.870733   0.730  0.000  1.360 O2       
    O3       Core        8      16.00   1.330431   0.730  0.000  1.360 O3       
    O1       Shell       8       0.00  -3.733957   0.730  0.000  0.000 O1       
    O2       Shell       8       0.00  -2.870733   0.730  0.000  0.000 O2       
    O3       Shell       8       0.00  -3.330431   0.730  0.000  0.000 O3       
--------------------------------------------------------------------------------


  Lattice summation method               =    Ewald          (3-D)
                                         =    Parry          (2-D)
                                         =    Saunders et al (1-D)
  Accuracy factor for lattice sums       =   12.000


  Analytic derivatives to be used

  Time limit = Infinity

  Maximum range for interatomic potentials =    100000.000000 Angstroms

  General interatomic potentials :

--------------------------------------------------------------------------------
Atom  Types   Potential      Parameter       Value         Units   Cutoffs(Ang)
  1     2                                                            Min /  Max 
--------------------------------------------------------------------------------
Si   c O1   s Buckingham    Buckingham A     1315.2478    eV        0.000 16.000
                            Buckingham rho  0.31775900    Ang       
                            Buckingham C     10.141118    eV*Ang^6  
--------------------------------------------------------------------------------
Si   c O2   s Buckingham    Buckingham A     1315.2478    eV        0.000 16.000
                            Buckingham rho  0.31775900    Ang       
                            Buckingham C     10.141118    eV*Ang^6  
--------------------------------------------------------------------------------
Si   c O3   s Buckingham    Buckingham A     1315.2478    eV        0.000 16.000
                            Buckingham rho  0.31775900    Ang       
                            Buckingham C     10.141118    eV*Ang^6  
--------------------------------------------------------------------------------
Ge   c O1   s Buckingham    Buckingham A     1497.3996    eV        0.000 16.000
                            Buckingham rho  0.32564600    Ang       
                            Buckingham C     16.808599    eV*Ang^6  
--------------------------------------------------------------------------------
Ge   c O2   s Buckingham    Buckingham A     1497.3996    eV        0.000 16.000
                            Buckingham rho  0.32564600    Ang       
                            Buckingham C     16.808599    eV*Ang^6  
--------------------------------------------------------------------------------
Ge   c O3   s Buckingham    Buckingham A     1497.3996    eV        0.000 16.000
                            Buckingham rho  0.32564600    Ang       
                            Buckingham C     16.808599    eV*Ang^6  
--------------------------------------------------------------------------------
O1   s O1   s Buckingham    Buckingham A     22764.000    eV        0.000 16.000
                            Buckingham rho  0.14900000    Ang       
                            Buckingham C     10.937044    eV*Ang^6  
--------------------------------------------------------------------------------
O1   s O2   s Buckingham    Buckingham A     22764.000    eV        0.000 16.000
                            Buckingham rho  0.14900000    Ang       
                            Buckingham C     10.937044    eV*Ang^6  
--------------------------------------------------------------------------------
O1   s O3   s Buckingham    Buckingham A     22764.000    eV        0.000 16.000
                            Buckingham rho  0.14900000    Ang       
                            Buckingham C     10.937044    eV*Ang^6  
--------------------------------------------------------------------------------
O2   s O2   s Buckingham    Buckingham A     22764.000    eV        0.000 16.000
                            Buckingham rho  0.14900000    Ang       
                            Buckingham C     10.937044    eV*Ang^6  
--------------------------------------------------------------------------------
O2   s O3   s Buckingham    Buckingham A     22764.000    eV        0.000 16.000
                            Buckingham rho  0.14900000    Ang       
                            Buckingham C     10.937044    eV*Ang^6  
--------------------------------------------------------------------------------
O3   s O3   s Buckingham    Buckingham A     22764.000    eV        0.000 16.000
                            Buckingham rho  0.14900000    Ang       
                            Buckingham C     10.937044    eV*Ang^6  
--------------------------------------------------------------------------------
O1   c O1   s Spring (c-s)  Spring k 2       180.31577    eV*Ang^-2 0.000  0.800
                            Spring k 4       0.0000000    eV*Ang^-4 
--------------------------------------------------------------------------------
O2   c O2   s Spring (c-s)  Spring k 2       75.969800    eV*Ang^-2 0.000  0.800
                            Spring k 4       0.0000000    eV*Ang^-4 
--------------------------------------------------------------------------------
O3   c O3   s Spring (c-s)  Spring k 2       128.14270    eV*Ang^-2 0.000  0.800
                            Spring k 4       0.0000000    eV*Ang^-4 
--------------------------------------------------------------------------------

  General Three-body potentials :

--------------------------------------------------------------------------------
  Atoms       Potential      Parameter       Value         Units   Cutoffs(Ang)
  1 / 2 / 3                                                          Min /  Max 
--------------------------------------------------------------------------------
Si    core    Harmonic      Three-body cnst  1.2614000    eV*rad^-2 0.000  1.900
O1    shel                  Three-body angl  109.47000    degrees   0.000  1.900
O1    shel                  Three-body k4    0.0000000    eV*rad^-4 0.000  3.500
                            Three-body k3    0.0000000    eV*rad^-3 
--------------------------------------------------------------------------------
Si    core    Harmonic      Three-body cnst  1.2614000    eV*rad^-2 0.000  1.900
O1    shel                  Three-body angl  109.47000    degrees   0.000  1.900
õ(1   shel                  Three-body k4    0.0000000    eV*rad^-4 0.000  3.500
                            Three-body k3    0.0000000    eV*rad^-3 
--------------------------------------------------------------------------------
Si    core    Harmonic      Three-body cnst  1.2614000    eV*rad^-2 0.000  1.900
õ(1   shel                  Three-body angl  109.47000    degrees   0.000  1.900
õ(1   shel                  Three-body k4    0.0000000    eV*rad^-4 0.000  3.500
                            Three-body k3    0.0000000    eV*rad^-3 
--------------------------------------------------------------------------------
Si    core    Harmonic      Three-body cnst  1.2614000    eV*rad^-2 0.000  1.900
O1    shel                  Three-body angl  109.47000    degrees   0.000  1.900
O2    shel                  Three-body k4    0.0000000    eV*rad^-4 0.000  3.500
                            Three-body k3    0.0000000    eV*rad^-3 
--------------------------------------------------------------------------------
Si    core    Harmonic      Three-body cnst  1.2614000    eV*rad^-2 0.000  1.900
O1    shel                  Three-body angl  109.47000    degrees   0.000  1.900
õ(2   shel                  Three-body k4    0.0000000    eV*rad^-4 0.000  3.500
                            Three-body k3    0.0000000    eV*rad^-3 
--------------------------------------------------------------------------------
Si    core    Harmonic      Three-body cnst  1.2614000    eV*rad^-2 0.000  1.900
O2    shel                  Three-body angl  109.47000    degrees   0.000  1.900
õ(1   shel                  Three-body k4    0.0000000    eV*rad^-4 0.000  3.500
                            Three-body k3    0.0000000    eV*rad^-3 
--------------------------------------------------------------------------------
Si    core    Harmonic      Three-body cnst  1.2614000    eV*rad^-2 0.000  1.900
õ(1   shel                  Three-body angl  109.47000    degrees   0.000  1.900
õ(2   shel                  Three-body k4    0.0000000    eV*rad^-4 0.000  3.500
                            Three-body k3    0.0000000    eV*rad^-3 
--------------------------------------------------------------------------------
Si    core    Harmonic      Three-body cnst  1.2614000    eV*rad^-2 0.000  1.900
O2    shel                  Three-body angl  109.47000    degrees   0.000  1.900
O2    shel                  Three-body k4    0.0000000    eV*rad^-4 0.000  3.500
                            Three-body k3    0.0000000    eV*rad^-3 
--------------------------------------------------------------------------------
Si    core    Harmonic      Three-body cnst  1.2614000    eV*rad^-2 0.000  1.900
O2    shel                  Three-body angl  109.47000    degrees   0.000  1.900
õ(2   shel                  Three-body k4    0.0000000    eV*rad^-4 0.000  3.500
                            Three-body k3    0.0000000    eV*rad^-3 
--------------------------------------------------------------------------------
Si    core    Harmonic      Three-body cnst  1.2614000    eV*rad^-2 0.000  1.900
õ(2   shel                  Three-body angl  109.47000    degrees   0.000  1.900
õ(2   shel                  Three-body k4    0.0000000    eV*rad^-4 0.000  3.500
                            Three-body k3    0.0000000    eV*rad^-3 
--------------------------------------------------------------------------------

********************************************************************************
*  Output for configuration   1 : c01149.vasp                                  *
********************************************************************************


  Components of energy : 

--------------------------------------------------------------------------------
  Interatomic potentials     =         896.55019375 eV    
  Three-body potentials      =           0.00000000 eV    
  Monopole - monopole (real) =       -2676.00317478 eV    
  Monopole - monopole (recip)=       -1115.35404472 eV    
  Monopole - monopole (total)=       -3791.35721950 eV    
--------------------------------------------------------------------------------
  Total lattice energy       =       -2894.80702575 eV    
--------------------------------------------------------------------------------
  Total lattice energy       =         -279304.6268 kJ/(mole unit cells)
--------------------------------------------------------------------------------


  Number of variables =      363

  Maximum number of calculations  =          1000
  Maximum Hessian update interval =            10
  Maximum step size               =   0.100000000
  Maximum parameter tolerance     =   0.000010000
  Maximum function  tolerance     =   0.000010000
  Maximum gradient  tolerance     =   0.001000000
  Maximum gradient  component     =   0.010000000

  Symmetry not applied to optimisation

  Cell parameters to be optimised using strains

  Newton-Raphson optimiser to be used

  BFGS hessian update to be used

  Lower half triangular hessian to be used

  Minimiser to switch to RFO
  When gradient norm is less than     0.050000

  Dumpfile to be written after every cycle

  Start of bulk optimisation :

  Cycle:      0 Energy:     -2894.807026  Gnorm:      5.888397  CPU:    0.101
  ** Hessian calculated **
  Cycle:      1 Energy:     -2938.341828  Gnorm:      1.418171  CPU:    0.230
  ** Hessian calculated **
  Cycle:      2 Energy:     -2943.309767  Gnorm:      0.816590  CPU:    0.422
  Cycle:      3 Energy:     -2944.271712  Gnorm:      0.389506  CPU:    0.514
  Cycle:      4 Energy:     -2944.791737  Gnorm:      0.315346  CPU:    0.617
  Cycle:      5 Energy:     -2945.417863  Gnorm:      0.264866  CPU:    0.723
  Cycle:      6 Energy:     -2946.070647  Gnorm:      0.221622  CPU:    0.829
  Cycle:      7 Energy:     -2946.373146  Gnorm:      0.160121  CPU:    0.916
  Cycle:      8 Energy:     -2946.481591  Gnorm:      0.111791  CPU:    1.007
  Cycle:      9 Energy:     -2946.530406  Gnorm:      0.087322  CPU:    1.111
  Cycle:     10 Energy:     -2946.566087  Gnorm:      0.078007  CPU:    1.217
  Cycle:     11 Energy:     -2946.603960  Gnorm:      0.080373  CPU:    1.323
  ** Hessian calculated **
  Cycle:     12 Energy:     -2946.625546  Gnorm:      0.079055  CPU:    1.512
  Cycle:     13 Energy:     -2946.661863  Gnorm:      0.076733  CPU:    1.635
  Cycle:     14 Energy:     -2946.718664  Gnorm:      0.072738  CPU:    1.757
  Cycle:     15 Energy:     -2946.789049  Gnorm:      0.066992  CPU:    1.861
  Cycle:     16 Energy:     -2946.878319  Gnorm:      0.058060  CPU:    1.981
  Cycle:     17 Energy:     -2946.927462  Gnorm:      0.051931  CPU:    2.086
  ** Hessian calculated **
  Cycle:     18 Energy:     -2947.010924  Gnorm:      0.045864  CPU:    2.278
  ** Hessian has wrong structure
  ** Imaginary eigenvectors =   5
  Cycle:     19 Energy:     -2947.085460  Gnorm:      0.091312  CPU:    2.521
  ** Hessian has wrong structure
  ** Imaginary eigenvectors =   4
  ** Hessian has wrong structure
  ** Imaginary eigenvectors =   3
  Cycle:     20 Energy:     -2947.103741  Gnorm:      0.096114  CPU:    2.934
  ** Hessian has wrong structure
  ** Imaginary eigenvectors =   2
  Cycle:     21 Energy:     -2947.243747  Gnorm:      0.132297  CPU:    3.199
  ** Hessian has required structure
  Cycle:     22 Energy:     -2947.560120  Gnorm:      0.072509  CPU:    3.418
  ** Hessian has required structure
  Cycle:     23 Energy:     -2947.684753  Gnorm:      0.048117  CPU:    3.565
  ** Hessian has required structure
  Cycle:     24 Energy:     -2947.754081  Gnorm:      0.032530  CPU:    3.715
  ** Hessian has required structure
  Cycle:     25 Energy:     -2947.797669  Gnorm:      0.039394  CPU:    3.906
  ** Hessian has required structure
  Cycle:     26 Energy:     -2947.831114  Gnorm:      0.033158  CPU:    4.034
  ** Hessian has required structure
  Cycle:     27 Energy:     -2947.850588  Gnorm:      0.034557  CPU:    4.163
  ** Hessian has required structure
  Cycle:     28 Energy:     -2947.859573  Gnorm:      0.043972  CPU:    4.294
  ** Hessian has required structure
  Cycle:     29 Energy:     -2947.875266  Gnorm:      0.024314  CPU:    4.444
  ** Hessian has required structure
  Cycle:     30 Energy:     -2947.883580  Gnorm:      0.022757  CPU:    4.594
  ** Hessian has required structure
  Cycle:     31 Energy:     -2947.889786  Gnorm:      0.018841  CPU:    4.742
  ** Hessian has required structure
  Cycle:     32 Energy:     -2947.898338  Gnorm:      0.014784  CPU:    4.990
  ** Hessian has required structure
  Cycle:     33 Energy:     -2947.906642  Gnorm:      0.017600  CPU:    5.156
  ** Hessian has required structure
  Cycle:     34 Energy:     -2947.914815  Gnorm:      0.023463  CPU:    5.305
  ** Hessian has required structure
  Cycle:     35 Energy:     -2947.920238  Gnorm:      0.015686  CPU:    5.446
  ** Hessian has required structure
  Cycle:     36 Energy:     -2947.926008  Gnorm:      0.018744  CPU:    5.595
  ** Hessian has required structure
  Cycle:     37 Energy:     -2947.934296  Gnorm:      0.023824  CPU:    5.745
  ** Hessian has required structure
  Cycle:     38 Energy:     -2947.942067  Gnorm:      0.023505  CPU:    5.878
  ** Hessian has required structure
  Cycle:     39 Energy:     -2947.952169  Gnorm:      0.023907  CPU:    6.027
  ** Hessian has required structure
  Cycle:     40 Energy:     -2947.961331  Gnorm:      0.015556  CPU:    6.178
  ** Hessian has required structure
  Cycle:     41 Energy:     -2947.968562  Gnorm:      0.016998  CPU:    6.328
  ** Hessian has required structure
  Cycle:     42 Energy:     -2947.982004  Gnorm:      0.011496  CPU:    6.555
  ** Hessian has required structure
  Cycle:     43 Energy:     -2947.987784  Gnorm:      0.008698  CPU:    6.706
  ** Hessian has required structure
  Cycle:     44 Energy:     -2947.991402  Gnorm:      0.006015  CPU:    6.856
  ** Hessian has required structure
  Cycle:     45 Energy:     -2947.994204  Gnorm:      0.007629  CPU:    7.007
  ** Hessian has required structure
  Cycle:     46 Energy:     -2947.996872  Gnorm:      0.006125  CPU:    7.142
  ** Hessian has required structure
  Cycle:     47 Energy:     -2947.998535  Gnorm:      0.005826  CPU:    7.277
  ** Hessian has required structure
  Cycle:     48 Energy:     -2948.000053  Gnorm:      0.006719  CPU:    7.412
  ** Hessian has required structure
  Cycle:     49 Energy:     -2948.001397  Gnorm:      0.004305  CPU:    7.548
  ** Hessian has required structure
  Cycle:     50 Energy:     -2948.002181  Gnorm:      0.005498  CPU:    7.684
  ** Hessian has required structure
  Cycle:     51 Energy:     -2948.002596  Gnorm:      0.005008  CPU:    7.835
  ** Hessian has required structure
  Cycle:     52 Energy:     -2948.003170  Gnorm:      0.002783  CPU:    8.062
  ** Hessian has required structure
  Cycle:     53 Energy:     -2948.003325  Gnorm:      0.001890  CPU:    8.198
  ** Hessian has required structure
  Cycle:     54 Energy:     -2948.003415  Gnorm:      0.001089  CPU:    8.350
  ** Hessian has required structure
  Cycle:     55 Energy:     -2948.003444  Gnorm:      0.000609  CPU:    8.503
  ** Hessian has required structure
  Cycle:     56 Energy:     -2948.003451  Gnorm:      0.000437  CPU:    8.625
  ** Hessian has required structure
  Cycle:     57 Energy:     -2948.003457  Gnorm:      0.000188  CPU:    8.792
  ** Hessian has required structure
  Cycle:     58 Energy:     -2948.003458  Gnorm:      0.000170  CPU:    8.912
  ** Hessian has required structure
  Cycle:     59 Energy:     -2948.003458  Gnorm:      0.000165  CPU:    9.031
  ** Hessian has required structure
  Cycle:     60 Energy:     -2948.003458  Gnorm:      0.000164  CPU:    9.151
  ** Hessian has required structure
  Cycle:     61 Energy:     -2948.003458  Gnorm:      0.000132  CPU:    9.320
  ** Hessian has required structure
  Cycle:     62 Energy:     -2948.003458  Gnorm:      0.000118  CPU:    9.514
  ** Hessian has required structure
  Cycle:     63 Energy:     -2948.003458  Gnorm:      0.000119  CPU:    9.698
  ** Hessian has required structure
  Cycle:     64 Energy:     -2948.003458  Gnorm:      0.000118  CPU:    9.818
  ** Hessian has required structure
  Cycle:     65 Energy:     -2948.003458  Gnorm:      0.000118  CPU:    9.938
  ** Hessian has required structure
  Cycle:     66 Energy:     -2948.003458  Gnorm:      0.000117  CPU:   10.058
  ** Hessian has required structure
  Cycle:     67 Energy:     -2948.003458  Gnorm:      0.000117  CPU:   10.178
  ** Hessian has required structure
  Cycle:     68 Energy:     -2948.003458  Gnorm:      0.000116  CPU:   10.298
  ** Hessian has required structure
  Cycle:     69 Energy:     -2948.003458  Gnorm:      0.000116  CPU:   10.416
  ** Hessian has required structure
  Cycle:     70 Energy:     -2948.003458  Gnorm:      0.000116  CPU:   10.537
  ** Hessian has required structure
  Cycle:     71 Energy:     -2948.003458  Gnorm:      0.000116  CPU:   10.658
  ** Hessian has required structure
  Cycle:     72 Energy:     -2948.003458  Gnorm:      0.000117  CPU:   10.949
  ** Hessian calculated **
  Cycle:     73 Energy:     -2948.003458  Gnorm:      0.000082  CPU:   11.102
  ** Hessian has required structure
  ** Hessian has required structure
  Cycle:     74 Energy:     -2948.003458  Gnorm:      0.000057  CPU:   11.346
  ** Hessian has required structure


  **** Optimisation achieved ****


  Final energy =   -2948.00345804 eV      
  Final Gnorm  =       0.00004020

  Components of energy : 

--------------------------------------------------------------------------------
  Interatomic potentials     =         779.88748038 eV    
  Three-body potentials      =           0.00000000 eV    
  Monopole - monopole (real) =       -1556.88470864 eV    
  Monopole - monopole (recip)=       -2171.00622977 eV    
  Monopole - monopole (total)=       -3727.89093841 eV    
--------------------------------------------------------------------------------
  Total lattice energy       =       -2948.00345804 eV    
--------------------------------------------------------------------------------
  Total lattice energy       =         -284437.2693 kJ/(mole unit cells)
--------------------------------------------------------------------------------

  Final fractional coordinates of atoms :

--------------------------------------------------------------------------------
   No.  Atomic        x           y          z          Radius
        Label       (Frac)      (Frac)     (Frac)       (Angs) 
--------------------------------------------------------------------------------
     1  Ge    c     0.052090    0.000000    0.372270    0.000000
     2  Ge    c     0.460494    0.918963    0.368610    0.000000
     3  Ge    c     0.940964    0.983782    0.618702    0.000000
     4  Ge    c     0.945188    0.942944    0.116034    0.000000
     5  Ge    c     0.427171    0.948205    0.849628    0.000000
     6  Ge    c     0.050053    0.017056    0.870696    0.000000
     7  Ge    c     0.153336    0.309126    0.305598    0.000000
     8  Ge    c     0.355631    0.621683    0.287084    0.000000
     9  Ge    c     0.820192    0.268826    0.722071    0.000000
    10  Ge    c     0.661671    0.709954    0.730867    0.000000
    11  Ge    c     0.838538    0.682872    0.735951    0.000000
    12  Ge    c     0.631933    0.320589    0.719778    0.000000
    13  Ge    c     0.174884    0.712946    0.295749    0.000000
    14  Ge    c     0.331574    0.213554    0.289293    0.000000
    15  Ge    c     0.635018    0.299064    0.030515    0.000000
    16  Ge    c     0.836401    0.648060    0.063475    0.000000
    17  Ge    c     0.316274    0.223201    0.972556    0.000000
    18  Ge    c     0.167081    0.714041    0.980395    0.000000
    19  Ge    c     0.350375    0.622466    0.970459    0.000000
    20  Ge    c     0.823872    0.240680    0.034879    0.000000
    21  Si    c     0.541711    0.007119    0.629776    0.000000
    22  Si    c     0.542732    0.984633    0.092596    0.000000
    23  Si    c     0.138918    0.322478    0.994278    0.000000
    24  Si    c     0.662847    0.676343    0.042880    0.000000
    25  O1    c     0.088015    0.199678    0.391546    0.000000
    26  O1    c     0.420203    0.724558    0.383044    0.000000
    27  O1    c     0.865990    0.130811    0.619676    0.000000
    28  O3    c     0.598802    0.882644    0.719563    0.000000
    29  O1    c     0.910676    0.786070    0.664047    0.000000
    30  O3    c     0.572429    0.195746    0.624792    0.000000
    31  O1    c     0.125885    0.849132    0.395198    0.000000
    32  O1    c     0.391539    0.078523    0.381389    0.000000
    33  O1    c     0.973780    0.967879    0.461853    0.000000
    34  O3    c     0.533552    0.939148    0.483254    0.000000
    35  O1    c     0.022478    0.984917    0.210441    0.000000
    36  O3    c     0.498184    0.917672    0.214316    0.000000
    37  O1    c     0.018687    0.042133    0.710746    0.000000
    38  O3    c     0.459450    0.991807    0.695040    0.000000
    39  O3    c     0.584731    0.157814    0.125347    0.000000
    40  O1    c     0.904623    0.750408    0.150211    0.000000
    41  O1    c     0.344047    0.067886    0.868161    0.000000
    42  O1    c     0.124159    0.866624    0.878857    0.000000
    43  O1    c     0.410847    0.735915    0.873916    0.000000
    44  O3    c     0.073896    0.218357    0.923167    0.000000
    45  O2    c     0.604164    0.836675    0.049720    0.000000
    46  O1    c     0.869541    0.088691    0.131448    0.000000
    47  O3    c     0.487759    0.025786    0.968163    0.000000
    48  O1    c     0.975639    0.945070    0.957392    0.000000
    49  O1    c     0.166628    0.508932    0.361918    0.000000
    50  O1    c     0.342612    0.419038    0.343016    0.000000
    51  O1    c     0.838232    0.476361    0.683034    0.000000
    52  O1    c     0.628747    0.528517    0.659297    0.000000
    53  O1    c     0.235991    0.181275    0.306459    0.000000
    54  O1    c     0.271126    0.743643    0.287862    0.000000
    55  O1    c     0.723846    0.238975    0.713964    0.000000
    56  O1    c     0.749506    0.769504    0.684845    0.000000
    57  O3    c     0.120378    0.347725    0.145397    0.000000
    58  O1    c     0.385736    0.608471    0.128470    0.000000
    59  O1    c     0.856119    0.224599    0.877628    0.000000
    60  O3    c     0.678628    0.628443    0.890980    0.000000
    61  O1    c     0.850413    0.698570    0.901612    0.000000
    62  O1    c     0.596731    0.305379    0.874414    0.000000
    63  O1    c     0.137708    0.738607    0.137982    0.000000
    64  O1    c     0.355305    0.192681    0.128234    0.000000
    65  O3    c     0.630892    0.500416    0.101130    0.000000
    66  O1    c     0.845342    0.435302    0.097525    0.000000
    67  O1    c     0.340197    0.421052    0.912670    0.000000
    68  O3    c     0.146180    0.509230    0.928463    0.000000
    69  O1    c     0.727234    0.220488    0.026338    0.000000
    70  O3    c     0.744018    0.717136    0.106448    0.000000
    71  O3    c     0.218667    0.214062    0.987124    0.000000
    72  O1    c     0.263769    0.732371    0.974533    0.000000
    73  O1    s     0.090328    0.193387    0.383697    0.000000
    74  O1    s     0.418451    0.731649    0.374813    0.000000
    75  O1    s     0.868195    0.130159    0.627388    0.000000
    76  O3    s     0.598785    0.879665    0.712332    0.000000
    77  O1    s     0.907330    0.793000    0.666271    0.000000
    78  O3    s     0.573801    0.186239    0.632401    0.000000
    79  O1    s     0.124213    0.849840    0.386069    0.000000
    80  O1    s     0.392202    0.076712    0.373359    0.000000
    81  O1    s     0.977588    0.971616    0.466248    0.000000
    82  O3    s     0.528585    0.943998    0.488309    0.000000
    83  O1    s     0.018420    0.982689    0.214519    0.000000
    84  O3    s     0.499868    0.925018    0.213853    0.000000
    85  O1    s     0.015303    0.035962    0.715781    0.000000
    86  O3    s     0.464554    0.989689    0.701100    0.000000
    87  O3    s     0.584543    0.152157    0.115016    0.000000
    88  O1    s     0.902386    0.756478    0.141217    0.000000
    89  O1    s     0.348070    0.071116    0.874927    0.000000
    90  O1    s     0.121923    0.866037    0.886143    0.000000
    91  O1    s     0.407733    0.743723    0.879026    0.000000
    92  O3    s     0.078526    0.213173    0.926223    0.000000
    93  O2    s     0.604513    0.833738    0.053268    0.000000
    94  O1    s     0.871367    0.090313    0.122617    0.000000
    95  O3    s     0.488373    0.015515    0.971100    0.000000
    96  O1    s     0.979115    0.950458    0.962351    0.000000
    97  O1    s     0.166183    0.507760    0.352854    0.000000
    98  O1    s     0.342826    0.419980    0.334720    0.000000
    99  O1    s     0.836860    0.475946    0.690051    0.000000
   100  O1    s     0.631334    0.526783    0.668720    0.000000
   101  O1    s     0.237110    0.192689    0.305124    0.000000
   102  O1    s     0.270051    0.732833    0.288375    0.000000
   103  O1    s     0.724141    0.247512    0.715031    0.000000
   104  O1    s     0.748912    0.759067    0.691833    0.000000
   105  O3    s     0.124702    0.342361    0.142970    0.000000
   106  O1    s     0.380894    0.610487    0.128235    0.000000
   107  O1    s     0.851204    0.228915    0.877556    0.000000
   108  O3    s     0.676225    0.637617    0.892800    0.000000
   109  O1    s     0.848404    0.693610    0.900958    0.000000
   110  O1    s     0.602201    0.306102    0.874616    0.000000
   111  O1    s     0.142506    0.734992    0.137611    0.000000
   112  O1    s     0.350725    0.196375    0.128792    0.000000
   113  O3    s     0.634115    0.501743    0.090606    0.000000
   114  O1    s     0.842990    0.437722    0.090066    0.000000
   115  O1    s     0.339243    0.421989    0.921411    0.000000
   116  O3    s     0.147030    0.506645    0.938528    0.000000
   117  O1    s     0.727599    0.228206    0.027301    0.000000
   118  O3    s     0.742686    0.708198    0.097159    0.000000
   119  O3    s     0.218849    0.225007    0.986665    0.000000
   120  O1    s     0.262879    0.722741    0.974693    0.000000
--------------------------------------------------------------------------------

  Final Cartesian lattice vectors (Angstroms) :

       17.532112    0.352142   -0.237359
        0.156411    7.823148    0.083570
       -0.137503    0.107363   10.223864


  Final cell parameters and derivatives :

--------------------------------------------------------------------------------
       a           17.537254 Angstrom     dE/de1(xx)     0.001304 eV/strain
       b            7.825158 Angstrom     dE/de2(yy)     0.000485 eV/strain
       c           10.225352 Angstrom     dE/de3(zz)     0.001170 eV/strain
       alpha       88.802070 Degrees      dE/de4(yz)    -0.000094 eV/strain
       beta        91.533710 Degrees      dE/de5(xz)    -0.000018 eV/strain
       gamma       87.712584 Degrees      dE/de6(xy)     0.000025 eV/strain
--------------------------------------------------------------------------------

  Primitive cell volume =          1401.283623 Angs**3

  Density of cell =      2.764157 g/cm**3

  Non-primitive cell volume =          1401.283623 Angs**3


  Final internal derivatives :

--------------------------------------------------------------------------------
   No.  Atomic          a             b             c           Radius
        Label          (eV)          (eV)          (eV)        (eV/Angs)
--------------------------------------------------------------------------------
      1 Ge    c       0.000000      0.000000      0.000000      0.000000
      2 Ge    c      -0.001374     -0.000121      0.001139      0.000000
      3 Ge    c      -0.000290     -0.000079     -0.000084      0.000000
      4 Ge    c       0.000059     -0.000017     -0.000192      0.000000
      5 Ge    c      -0.002045     -0.000655     -0.001244      0.000000
      6 Ge    c      -0.000032      0.000044     -0.000051      0.000000
      7 Ge    c      -0.000155      0.000043     -0.000081      0.000000
      8 Ge    c       0.000396     -0.000023     -0.000031      0.000000
      9 Ge    c       0.000009      0.000045     -0.000064      0.000000
     10 Ge    c       0.000415     -0.000204      0.000444      0.000000
     11 Ge    c       0.000393      0.000115      0.000317      0.000000
     12 Ge    c      -0.000132      0.000096      0.000054      0.000000
     13 Ge    c      -0.000066     -0.000036     -0.000043      0.000000
     14 Ge    c       0.000212      0.000155      0.000133      0.000000
     15 Ge    c      -0.000596     -0.000084      0.000156      0.000000
     16 Ge    c      -0.000350     -0.000008     -0.000624      0.000000
     17 Ge    c      -0.000129      0.000314     -0.000030      0.000000
     18 Ge    c      -0.000044     -0.000003      0.000090      0.000000
     19 Ge    c       0.000388     -0.000074     -0.000039      0.000000
     20 Ge    c      -0.000272      0.000129     -0.000134      0.000000
     21 Si    c      -0.000203      0.000051      0.000052      0.000000
     22 Si    c       0.006610      0.001227     -0.000848      0.000000
     23 Si    c      -0.000166     -0.000000      0.000114      0.000000
     24 Si    c      -0.000526     -0.000099      0.000031      0.000000
     25 O1    c       0.000001     -0.000005     -0.000005      0.000000
     26 O1    c       0.000068     -0.000068     -0.000089      0.000000
     27 O1    c       0.000048      0.000059      0.000182      0.000000
     28 O3    c      -0.000439      0.000126     -0.000425      0.000000
     29 O1    c      -0.000318      0.000098     -0.000004      0.000000
     30 O3    c      -0.000054     -0.000013     -0.000083      0.000000
     31 O1    c       0.000120     -0.000051      0.000035      0.000000
     32 O1    c       0.000137      0.000067      0.000176      0.000000
     33 O1    c      -0.000571     -0.000027      0.000299      0.000000
     34 O3    c       0.001543      0.000214      0.000464      0.000000
     35 O1    c       0.000506      0.000106      0.000286      0.000000
     36 O3    c      -0.009057     -0.002163      0.003509      0.000000
     37 O1    c       0.000474      0.000044      0.000177      0.000000
     38 O3    c      -0.000445     -0.000008     -0.000077      0.000000
     39 O3    c      -0.001032     -0.000510     -0.000079      0.000000
     40 O1    c       0.000387      0.000128      0.000224      0.000000
     41 O1    c       0.000552     -0.000353     -0.000637      0.000000
     42 O1    c       0.000050     -0.000023     -0.000039      0.000000
     43 O1    c       0.000459      0.000115      0.000022      0.000000
     44 O3    c       0.000093      0.000001      0.000013      0.000000
     45 O2    c       0.001132     -0.000992     -0.001013      0.000000
     46 O1    c      -0.000175     -0.000073      0.000229      0.000000
     47 O3    c       0.000737      0.001573     -0.000842      0.000000
     48 O1    c      -0.000355     -0.000028      0.000163      0.000000
     49 O1    c       0.000045      0.000009      0.000007      0.000000
     50 O1    c       0.000051     -0.000020      0.000034      0.000000
     51 O1    c      -0.000344     -0.000379     -0.000028      0.000000
     52 O1    c      -0.000130     -0.000164     -0.000061      0.000000
     53 O1    c      -0.000239     -0.000025      0.000048      0.000000
     54 O1    c       0.000087      0.000014      0.000029      0.000000
     55 O1    c       0.000625     -0.000015      0.000037      0.000000
     56 O1    c      -0.001153     -0.000037     -0.000006      0.000000
     57 O3    c       0.000226     -0.000070     -0.000038      0.000000
     58 O1    c       0.000263      0.000037      0.000094      0.000000
     59 O1    c       0.000188      0.000054     -0.000036      0.000000
     60 O3    c      -0.000240      0.000134     -0.000324      0.000000
     61 O1    c      -0.000362     -0.000040      0.000781      0.000000
     62 O1    c      -0.000219      0.000059      0.000030      0.000000
     63 O1    c       0.000217     -0.000025     -0.000046      0.000000
     64 O1    c      -0.000680      0.000303      0.000134      0.000000
     65 O3    c      -0.000232     -0.000080     -0.000039      0.000000
     66 O1    c       0.000046     -0.000000      0.000047      0.000000
     67 O1    c       0.000154      0.000081     -0.000062      0.000000
     68 O3    c       0.000020     -0.000028     -0.000021      0.000000
     69 O1    c       0.000153      0.000021     -0.000040      0.000000
     70 O3    c       0.000255     -0.000137     -0.000030      0.000000
     71 O3    c      -0.000174      0.000008     -0.000015      0.000000
     72 O1    c       0.000005      0.000021     -0.000047      0.000000
     73 O1    s       0.000069      0.000009     -0.000046      0.000000
     74 O1    s      -0.000459     -0.000101      0.000199      0.000000
     75 O1    s      -0.000074     -0.000008     -0.000037      0.000000
     76 O3    s       0.000122     -0.000013      0.000610      0.000000
     77 O1    s       0.000291     -0.000015     -0.000007      0.000000
     78 O3    s       0.000200     -0.000147      0.000251      0.000000
     79 O1    s      -0.000053      0.000028     -0.000081      0.000000
     80 O1    s      -0.000814      0.000048     -0.000169      0.000000
     81 O1    s       0.000284      0.000006     -0.000138      0.000000
     82 O3    s      -0.000218     -0.000172      0.000204      0.000000
     83 O1    s      -0.000146     -0.000081     -0.000142      0.000000
     84 O3    s       0.001776      0.001007     -0.000216      0.000000
     85 O1    s      -0.000424     -0.000047     -0.000031      0.000000
     86 O3    s       0.000949     -0.000025     -0.000100      0.000000
     87 O3    s       0.002393      0.000992      0.000043      0.000000
     88 O1    s      -0.000179     -0.000238     -0.000159      0.000000
     89 O1    s      -0.001135      0.000243      0.000622      0.000000
     90 O1    s      -0.000019      0.000023      0.000064      0.000000
     91 O1    s      -0.000904     -0.000255     -0.000131      0.000000
     92 O3    s       0.000018      0.000021      0.000043      0.000000
     93 O2    s       0.003209     -0.000197     -0.000559      0.000000
     94 O1    s      -0.000001      0.000050     -0.000030      0.000000
     95 O3    s      -0.001153     -0.000003     -0.001255      0.000000
     96 O1    s       0.000422      0.000033     -0.000152      0.000000
     97 O1    s      -0.000095     -0.000024     -0.000098      0.000000
     98 O1    s      -0.000129     -0.000018     -0.000077      0.000000
     99 O1    s       0.000205      0.000129     -0.000065      0.000000
    100 O1    s       0.000150      0.000214      0.000032      0.000000
    101 O1    s       0.000086     -0.000006     -0.000078      0.000000
    102 O1    s      -0.000124      0.000028     -0.000067      0.000000
    103 O1    s      -0.000271     -0.000046     -0.000099      0.000000
    104 O1    s       0.000198      0.000186      0.000055      0.000000
    105 O3    s       0.000040      0.000050     -0.000029      0.000000
    106 O1    s      -0.000527     -0.000040     -0.000041      0.000000
    107 O1    s       0.000076     -0.000130     -0.000143      0.000000
    108 O3    s       0.000728      0.000122      0.000203      0.000000
    109 O1    s       0.000156     -0.000002     -0.000225      0.000000
    110 O1    s       0.000246     -0.000150     -0.000243      0.000000
    111 O1    s      -0.000145      0.000010      0.000024      0.000000
    112 O1    s       0.001109     -0.000541     -0.000266      0.000000
    113 O3    s       0.000452      0.000169      0.000064      0.000000
    114 O1    s      -0.000015      0.000163     -0.000007      0.000000
    115 O1    s      -0.000278     -0.000091      0.000147      0.000000
    116 O3    s      -0.000081     -0.000020      0.000089      0.000000
    117 O1    s      -0.000100     -0.000108      0.000056      0.000000
    118 O3    s      -0.000241      0.000122     -0.000088      0.000000
    119 O3    s      -0.000002     -0.000005      0.000073      0.000000
    120 O1    s      -0.000114      0.000027      0.000094      0.000000
--------------------------------------------------------------------------------
  Maximum abs         0.009057      0.002163      0.003509      0.000000
--------------------------------------------------------------------------------


  Born effective charge tensors : 

-------------------------------------------------------------------------------
  Atom             x           y             z
-------------------------------------------------------------------------------
    1 Ge    x       4.2450      0.2308      0.0504
            y      -0.1111      3.8996      0.0637
            z      -0.8062     -0.0799      4.1869
-------------------------------------------------------------------------------
    2 Ge    x       3.9564      0.1126     -0.0951
            y       0.0085      3.9331      0.0592
            z       0.6369      0.1816      4.3724
-------------------------------------------------------------------------------
    3 Ge    x       4.2583      0.1961     -0.4303
            y      -0.1457      3.8922     -0.0985
            z      -0.2796      0.1334      4.4718
-------------------------------------------------------------------------------
    4 Ge    x       4.4680      0.2507     -0.1063
            y      -0.0318      3.8829     -0.0714
            z       0.6383      0.1586      3.6367
-------------------------------------------------------------------------------
    5 Ge    x       4.0588      0.3394     -0.3807
            y      -0.2615      3.9157     -0.0464
            z      -0.4082     -0.0625      3.8376
-------------------------------------------------------------------------------
    6 Ge    x       4.2591      0.1760      0.3946
            y      -0.2131      3.9236      0.1235
            z       0.2918     -0.1085      3.9434
-------------------------------------------------------------------------------
    7 Ge    x       3.9072      0.0676     -0.2780
            y       0.4546      4.2123     -0.1035
            z      -0.1084     -0.2236      3.4985
-------------------------------------------------------------------------------
    8 Ge    x       3.9363      0.0899      0.2331
            y       0.4791      4.2135      0.1362
            z       0.0515      0.1898      3.6090
-------------------------------------------------------------------------------
    9 Ge    x       4.0579     -0.2393     -0.2682
            y      -0.1963      4.2258      0.1523
            z      -0.0159      0.1500      3.5903
-------------------------------------------------------------------------------
   10 Ge    x       3.9561     -0.1389     -0.0823
            y      -0.1185      4.1633      0.1677
            z       0.2392     -0.3060      3.3114
-------------------------------------------------------------------------------
   11 Ge    x       4.1247      0.1959     -0.0628
            y       0.4776      4.1191     -0.0097
            z      -0.2111     -0.0514      3.6499
-------------------------------------------------------------------------------
   12 Ge    x       3.8720      0.1080      0.1212
            y       0.4018      4.2902      0.0990
            z      -0.0259      0.1605      3.5661
-------------------------------------------------------------------------------
   13 Ge    x       4.0142     -0.2601     -0.3238
            y      -0.3055      4.1698      0.0742
            z      -0.0208      0.1339      3.5865
-------------------------------------------------------------------------------
   14 Ge    x       4.0744     -0.2597      0.2577
            y      -0.3546      4.1420     -0.0396
            z       0.0688     -0.1163      3.6260
-------------------------------------------------------------------------------
   15 Ge    x       3.9254      0.1992     -0.2376
            y       0.3447      4.2321     -0.0815
            z       0.0169     -0.1743      3.3538
-------------------------------------------------------------------------------
   16 Ge    x       4.1307      0.2342      0.1539
            y       0.4435      4.1530      0.0579
            z       0.2210     -0.0100      3.4235
-------------------------------------------------------------------------------
   17 Ge    x       3.9101     -0.2881     -0.4034
            y      -0.1637      4.1941      0.1341
            z      -0.0136      0.1844      3.5410
-------------------------------------------------------------------------------
   18 Ge    x       4.0205     -0.2663      0.2623
            y      -0.2077      4.1860     -0.1489
            z      -0.0416     -0.2298      3.4703
-------------------------------------------------------------------------------
   19 Ge    x       3.9988      0.0852     -0.3143
            y       0.4252      4.2345     -0.0983
            z      -0.1388     -0.1650      3.5152
-------------------------------------------------------------------------------
   20 Ge    x       4.1138     -0.3194      0.3359
            y      -0.2133      4.1864     -0.0573
            z       0.0729     -0.0846      3.4577
-------------------------------------------------------------------------------
   21 Si    x       3.6231      0.3673      0.4918
            y       0.0295      3.6940     -0.2292
            z      -0.0086      0.2732      4.1646
-------------------------------------------------------------------------------
   22 Si    x       3.7625      0.2323     -0.1173
            y       0.0950      3.6373      0.1261
            z      -0.4243     -0.3859      3.5866
-------------------------------------------------------------------------------
   23 Si    x       3.7642      0.0825      0.2385
            y       0.4118      3.9159      0.0496
            z       0.1428      0.2437      3.2235
-------------------------------------------------------------------------------
   24 Si    x       3.6147     -0.0671      0.1158
            y      -0.0172      3.7185     -0.1248
            z      -0.1761      0.2603      3.0433
-------------------------------------------------------------------------------
   25 O1    x      -2.0321     -0.8971      0.3550
            y      -0.8595     -2.4671      0.2772
            z       0.4512      0.3415     -1.5938
-------------------------------------------------------------------------------
   26 O1    x      -2.0385     -0.8998     -0.3846
            y      -0.9170     -2.4689     -0.3339
            z      -0.4368     -0.3436     -1.6547
-------------------------------------------------------------------------------
   27 O1    x      -2.1952      0.8968      0.4888
            y       0.9195     -2.2647     -0.4731
            z       0.4464     -0.4935     -1.6977
-------------------------------------------------------------------------------
   28 O3    x      -1.9887      0.8180     -0.4261
            y       0.8533     -2.2027      0.4131
            z      -0.4151      0.4356     -1.5451
-------------------------------------------------------------------------------
   29 O1    x      -2.1143     -0.8951      0.5151
            y      -0.8646     -2.4528      0.5404
            z       0.5194      0.5181     -1.6343
-------------------------------------------------------------------------------
   30 O3    x      -1.7098     -0.8215     -0.3736
            y      -0.7801     -2.5543     -0.3089
            z      -0.3212     -0.4146     -1.4942
-------------------------------------------------------------------------------
   31 O1    x      -2.1664      0.8706      0.3240
            y       0.9485     -2.2805     -0.3866
            z       0.3948     -0.3823     -1.6442
-------------------------------------------------------------------------------
   32 O1    x      -2.2305      0.9342     -0.3610
            y       0.9942     -2.2777      0.3289
            z      -0.4566      0.3571     -1.6453
-------------------------------------------------------------------------------
   33 O1    x      -2.1840     -0.1386      0.9731
            y      -0.0388     -1.2560      0.0234
            z       1.2376      0.0369     -3.0443
-------------------------------------------------------------------------------
   34 O3    x      -1.6312     -0.1979     -0.7111
            y      -0.0941     -1.3046     -0.3202
            z      -0.8120     -0.5308     -3.0911
-------------------------------------------------------------------------------
   35 O1    x      -2.1809     -0.2383     -0.8244
            y      -0.1113     -1.3388     -0.1651
            z      -0.8222     -0.2352     -2.5785
-------------------------------------------------------------------------------
   36 O3    x      -1.8016     -0.2140      0.9376
            y      -0.1318     -1.3121      0.1968
            z       0.8298      0.3085     -2.7884
-------------------------------------------------------------------------------
   37 O1    x      -2.1281     -0.2076     -0.8451
            y      -0.1056     -1.3240     -0.1077
            z      -0.8266     -0.1082     -2.7545
-------------------------------------------------------------------------------
   38 O3    x      -2.1602     -0.2325      0.7129
            y      -0.0511     -1.2197      0.1615
            z       0.7928      0.1810     -2.3449
-------------------------------------------------------------------------------
   39 O3    x      -1.8346     -0.8822      0.2283
            y      -0.8227     -2.5616      0.1539
            z       0.2387      0.2588     -1.3600
-------------------------------------------------------------------------------
   40 O1    x      -2.1984     -0.9054     -0.2965
            y      -0.9125     -2.4328     -0.1923
            z      -0.4272     -0.2446     -1.4655
-------------------------------------------------------------------------------
   41 O1    x      -2.2274      0.8189      0.5376
            y       0.8047     -2.2385     -0.5872
            z       0.4045     -0.5511     -1.6591
-------------------------------------------------------------------------------
   42 O1    x      -2.1522      0.9209     -0.4564
            y       0.9122     -2.4231      0.4832
            z      -0.3806      0.4992     -1.5569
-------------------------------------------------------------------------------
   43 O1    x      -1.8885     -0.8065      0.5205
            y      -0.6612     -2.6123      0.5539
            z       0.4397      0.5231     -1.5837
-------------------------------------------------------------------------------
   44 O3    x      -2.0145     -0.8553     -0.5629
            y      -0.7402     -2.3180     -0.5696
            z      -0.4776     -0.5543     -1.4684
-------------------------------------------------------------------------------
   45 O2    x      -1.7808      0.7035      0.1823
            y       0.7013     -1.9677     -0.1816
            z       0.2968     -0.2381     -1.1567
-------------------------------------------------------------------------------
   46 O1    x      -2.2042      0.8968     -0.3079
            y       0.9279     -2.3489      0.3893
            z      -0.3519      0.3592     -1.4888
-------------------------------------------------------------------------------
   47 O3    x      -2.0787     -0.0762     -0.7994
            y       0.0310     -1.3390     -0.0590
            z      -0.5871     -0.0250     -2.1185
-------------------------------------------------------------------------------
   48 O1    x      -2.2129     -0.2930      0.7461
            y      -0.1745     -1.4133      0.1856
            z       0.4937      0.1721     -2.2372
-------------------------------------------------------------------------------
   49 O1    x      -1.3380     -0.1839      0.0619
            y      -0.2675     -3.1520      0.0096
            z      -0.0030     -0.0443     -1.4273
-------------------------------------------------------------------------------
   50 O1    x      -1.3646     -0.2134     -0.0640
            y      -0.2881     -3.2033      0.0099
            z      -0.0251      0.0273     -1.3677
-------------------------------------------------------------------------------
   51 O1    x      -1.3766     -0.1401      0.0708
            y      -0.2362     -3.2751     -0.1254
            z       0.0645     -0.0716     -1.3348
-------------------------------------------------------------------------------
   52 O1    x      -1.3586     -0.1866     -0.1307
            y      -0.3246     -3.1131     -0.0826
            z      -0.1677     -0.0624     -1.4730
-------------------------------------------------------------------------------
   53 O1    x      -2.9778      0.3138      0.1038
            y       0.1910     -1.6200      0.0135
            z       0.0836      0.0490     -1.2424
-------------------------------------------------------------------------------
   54 O1    x      -3.0103      0.2918      0.0792
            y       0.1771     -1.6162     -0.0208
            z       0.0208     -0.0482     -1.2200
-------------------------------------------------------------------------------
   55 O1    x      -3.1920      0.1766      0.0197
            y       0.0893     -1.4992     -0.0552
            z       0.0034     -0.0641     -1.2330
-------------------------------------------------------------------------------
   56 O1    x      -2.9944      0.0448      0.0360
            y       0.0553     -1.5063      0.1055
            z       0.0362      0.1680     -1.3359
-------------------------------------------------------------------------------
   57 O3    x      -1.3473     -0.0009     -0.0041
            y      -0.0723     -1.3736     -0.0288
            z      -0.0526     -0.0026     -2.5970
-------------------------------------------------------------------------------
   58 O1    x      -1.4787     -0.0246     -0.0051
            y      -0.1000     -1.4250     -0.0164
            z       0.0149     -0.0221     -2.7300
-------------------------------------------------------------------------------
   59 O1    x      -1.5481      0.1519     -0.0071
            y       0.1501     -1.4368      0.0760
            z      -0.0339      0.0771     -2.6641
-------------------------------------------------------------------------------
   60 O3    x      -1.3563      0.1284      0.0968
            y       0.1019     -1.5161     -0.0130
            z       0.0712      0.0127     -2.5348
-------------------------------------------------------------------------------
   61 O1    x      -1.4428     -0.1175      0.0134
            y      -0.1387     -1.4400      0.0983
            z       0.0195      0.0905     -2.8280
-------------------------------------------------------------------------------
   62 O1    x      -1.4659     -0.0922      0.0161
            y      -0.1521     -1.4677      0.0097
            z       0.0252      0.0457     -2.6858
-------------------------------------------------------------------------------
   63 O1    x      -1.4996      0.1257     -0.0485
            y       0.1315     -1.4564     -0.0689
            z      -0.0526     -0.0262     -2.6800
-------------------------------------------------------------------------------
   64 O1    x      -1.5175      0.1287     -0.0839
            y       0.1427     -1.4261      0.0307
            z      -0.0758      0.0080     -2.7324
-------------------------------------------------------------------------------
   65 O3    x      -1.3568     -0.2756      0.1295
            y      -0.3351     -2.9111      0.0327
            z       0.1567      0.0409     -1.2942
-------------------------------------------------------------------------------
   66 O1    x      -1.4176     -0.0468     -0.1208
            y      -0.1365     -3.2217     -0.1666
            z      -0.1049     -0.1051     -1.2846
-------------------------------------------------------------------------------
   67 O1    x      -1.4282     -0.2663      0.1243
            y      -0.3872     -3.1385     -0.0227
            z       0.0629     -0.0094     -1.3386
-------------------------------------------------------------------------------
   68 O3    x      -1.3235     -0.1924     -0.0635
            y      -0.3040     -2.9823      0.1728
            z      -0.0162      0.1424     -1.2756
-------------------------------------------------------------------------------
   69 O1    x      -3.2345      0.2167      0.0051
            y       0.1299     -1.5162      0.0099
            z       0.0021      0.0287     -1.1791
-------------------------------------------------------------------------------
   70 O3    x      -2.8778      0.0279     -0.1952
            y      -0.0079     -1.3515     -0.0795
            z      -0.1649     -0.1265     -1.2641
-------------------------------------------------------------------------------
   71 O3    x      -2.8734      0.4051      0.1355
            y       0.3334     -1.5256     -0.0520
            z       0.0944     -0.0777     -1.1443
-------------------------------------------------------------------------------
   72 O1    x      -3.1184      0.3016      0.1036
            y       0.1889     -1.5822      0.0070
            z       0.1093      0.0289     -1.1937
-------------------------------------------------------------------------------




  Elastic Constant Matrix: (Units=GPa)

-------------------------------------------------------------------------------
  Indices      1         2         3         4         5         6    
-------------------------------------------------------------------------------
       1     25.6144   10.4056    6.8895    0.2600   -1.6767    7.7116
       2     10.4056   32.4516    2.5982    0.0775   -1.7972    7.6590
       3      6.8895    2.5982   11.8852   -0.0189   -0.5521    0.5899
       4      0.2600    0.0775   -0.0189    8.3031    2.2987    0.1610
       5     -1.6767   -1.7972   -0.5521    2.2987   12.0525    1.7217
       6      7.7116    7.6590    0.5899    0.1610    1.7217   19.2824
-------------------------------------------------------------------------------


  Elastic Compliance Matrix: (Units=1/GPa)

-------------------------------------------------------------------------------
  Indices      1         2         3         4         5         6    
-------------------------------------------------------------------------------
       1    0.057756 -0.011328 -0.029709 -0.003718  0.008323 -0.018402
       2   -0.011328  0.037383 -0.000804 -0.001384  0.005768 -0.010797
       3   -0.029709 -0.000804  0.101026  0.001319 -0.001192  0.009206
       4   -0.003718 -0.001384  0.001319  0.127552 -0.025448  0.003203
       5    0.008323  0.005768 -0.001192 -0.025448  0.091724 -0.013560
       6   -0.018402 -0.010797  0.009206  0.003203 -0.013560  0.064411
-------------------------------------------------------------------------------

  Mechanical properties :

-------------------------------------------------------------------------------
  Convention :                    Reuss         Voigt         Hill
-------------------------------------------------------------------------------
  Bulk  Modulus (GPa)     =       8.89030      12.19308      10.54169
  Shear Modulus (GPa)     =       8.31907      11.26479       9.79193
-------------------------------------------------------------------------------
  Velocity S-wave (km/s)  =       1.73483       2.01874       1.88214
  Velocity P-wave (km/s)  =       2.68870       3.13765       2.92181
-------------------------------------------------------------------------------
  Compressibility (1/GPa) =    0.11248219
-------------------------------------------------------------------------------
  Stress axis :                     x             y             z
-------------------------------------------------------------------------------
  Youngs Moduli (GPa)     =      17.31420      26.75035       9.89847
-------------------------------------------------------------------------------
  Poissons Ratio (x)      =                     0.30302       0.29407
  Poissons Ratio (y)      =       0.19613                     0.00796
  Poissons Ratio (z)      =       0.51439       0.02151
-------------------------------------------------------------------------------


  Piezoelectric Strain Matrix: (Units=C/m**2)

-------------------------------------------------------------------------------
  Indices      1         2         3         4         5         6    
-------------------------------------------------------------------------------
       x    -0.70503  -1.42386  -0.26348  -0.05674   0.77426  -0.38481
       y     0.18711   0.62556  -0.17531   0.33187   0.28244   0.06559
       z    -0.15398  -0.80104  -2.41684  -0.25473   0.53513  -0.33211
-------------------------------------------------------------------------------


  Piezoelectric Stress Matrix: (Units=10**-11 C/N)

-------------------------------------------------------------------------------
  Indices      1         2         3         4         5         6    
-------------------------------------------------------------------------------
       x    -0.30261  -3.63303  -0.90682  -2.39300   6.39146  -0.95456
       y     0.88388   2.18683  -2.30680   3.35609   2.19460  -1.03538
       z     8.34952  -1.92327 -24.29750  -4.86795   5.70492  -4.02310
-------------------------------------------------------------------------------


  Static dielectric constant tensor : 

-------------------------------------------------------------------------------
              x         y         z
-------------------------------------------------------------------------------
       x     5.71975   0.28579  -0.10235
       y     0.28579   6.07690   0.02471
       z    -0.10235   0.02471   4.36474
--------------------------------------------------------------------------------

  High frequency dielectric constant tensor : 

-------------------------------------------------------------------------------
              x         y         z
-------------------------------------------------------------------------------
       x     1.55421   0.00504  -0.00151
       y     0.00504   1.55937   0.00174
       z    -0.00151   0.00174   1.51426
-------------------------------------------------------------------------------

  Static refractive indices : 

-------------------------------------------------------------------------------
    1 =    2.08705      2 =    2.36006      3 =    2.49715
-------------------------------------------------------------------------------

  High frequency refractive indices : 

-------------------------------------------------------------------------------
    1 =    1.23050      2 =    1.24550      3 =    1.24998
-------------------------------------------------------------------------------


  Time to end of optimisation =      11.6275 seconds


  Peak dynamic memory used =       5.01 MB 


  Timing analysis for GULP :

--------------------------------------------------------------------------------
  Task / Subroutine                                          Time (Seconds)
--------------------------------------------------------------------------------
  Calculation of reciprocal space energy and derivatives          0.7017
  Calculation of real space energy and derivatives                7.7722
  Calculation of three-body energy and derivatives                0.1120
  Calculation and manipulation of Hessian matrix                  3.2070
  Calculation of matrix inversion                                 0.0347
  Global summation overhead                                       0.0002
--------------------------------------------------------------------------------
  Total CPU time                                                 11.6275
--------------------------------------------------------------------------------


  Dump file written as c01149.vasp.grs
  CIF file written as c01149.vasp.cif


  Job Finished at 15:13.29 31st October    2025                               

