********************************************************************************
*                       GENERAL UTILITY LATTICE PROGRAM                        *
*                                 Julian Gale                                  *
*                       Curtin Institute for Computation                       *
*                    School of Molecular and Life Sciences                     *
*                    Curtin University, Western Australia                      *
********************************************************************************
* Version = 6.1.2 * Last modified =   3rd November 2022                        *
********************************************************************************
*  optimise     - perform optimisation run                                     *
*  conp         - constant pressure calculation                                *
*  property     - calculate properties for final geometry                      *
********************************************************************************

  Job Started  at 15:14.19 31st October    2025                               

  Number of CPUs =     1


  Total number of configurations input =      1

********************************************************************************
*  Input for Configuration =   1 : c01155.vasp                                 *
********************************************************************************

  Formula = Ge20Si4O48                                                  

  Number of irreducible atoms/shells =     120


  Total number atoms/shells =     120

  Dimensionality = 3               :  Bulk   



  Cartesian lattice vectors (Angstroms) :

       17.182800    0.000000    0.000000
        0.000000    7.513760    0.000000
        0.000000    0.000000   10.447700

  Cell parameters (Angstroms/Degrees):

  a =      17.1828    alpha =  90.0000
  b =       7.5138    beta  =  90.0000
  c =      10.4477    gamma =  90.0000

  Initial cell volume =        1348.875752 Angs**3

  Temperature of configuration =   0.00     K 

  Pressure of configuration =         0.000 GPa 

  Fractional coordinates of asymmetric unit :

--------------------------------------------------------------------------------
   No.  Atomic       x           y          z         Charge      Occupancy
        Label      (Frac)      (Frac)     (Frac)        (e)         (Frac)  
--------------------------------------------------------------------------------
      1 Ge    c    0.052090    0.000000    0.372270     4.00000    1.000000    
      2 Ge    c    0.447910 *  0.000000 *  0.372270 *   4.00000    1.000000    
      3 Ge    c    0.947910 *  0.000000 *  0.627730 *   4.00000    1.000000    
      4 Ge    c    0.943270 *  0.000000 *  0.122130 *   4.00000    1.000000    
      5 Ge    c    0.443270 *  0.000000 *  0.877870 *   4.00000    1.000000    
      6 Ge    c    0.056730 *  0.000000 *  0.877870 *   4.00000    1.000000    
      7 Ge    c    0.160190 *  0.293910 *  0.273440 *   4.00000    1.000000    
      8 Ge    c    0.339810 *  0.706090 *  0.273440 *   4.00000    1.000000    
      9 Ge    c    0.839810 *  0.293910 *  0.726560 *   4.00000    1.000000    
     10 Ge    c    0.660190 *  0.706090 *  0.726560 *   4.00000    1.000000    
     11 Ge    c    0.839810 *  0.706090 *  0.726560 *   4.00000    1.000000    
     12 Ge    c    0.660190 *  0.293910 *  0.726560 *   4.00000    1.000000    
     13 Ge    c    0.160190 *  0.706090 *  0.273440 *   4.00000    1.000000    
     14 Ge    c    0.339810 *  0.293910 *  0.273440 *   4.00000    1.000000    
     15 Ge    c    0.660660 *  0.294090 *  0.017440 *   4.00000    1.000000    
     16 Ge    c    0.839340 *  0.705910 *  0.017440 *   4.00000    1.000000    
     17 Ge    c    0.339340 *  0.294090 *  0.982560 *   4.00000    1.000000    
     18 Ge    c    0.339340 *  0.705910 *  0.982560 *   4.00000    1.000000    
     19 Ge    c    0.660660 *  0.705910 *  0.017440 *   4.00000    1.000000    
     20 Ge    c    0.839340 *  0.294090 *  0.017440 *   4.00000    1.000000    
     21 Si    c    0.552090 *  0.000000 *  0.627730 *   4.00000    1.000000    
     22 Si    c    0.556730 *  0.000000 *  0.122130 *   4.00000    1.000000    
     23 Si    c    0.160660 *  0.705910 *  0.982560 *   4.00000    1.000000    
     24 Si    c    0.160660 *  0.294090 *  0.982560 *   4.00000    1.000000    
     25 O1    c    0.106570 *  0.174340 *  0.366200 *   1.73396    1.000000    
     26 O1    c    0.393430 *  0.825660 *  0.366200 *   1.73396    1.000000    
     27 O1    c    0.893430 *  0.174340 *  0.633800 *   1.73396    1.000000    
     28 O3    c    0.606570 *  0.825660 *  0.633800 *   1.33043    1.000000    
     29 O1    c    0.893430 *  0.825660 *  0.633800 *   1.73396    1.000000    
     30 O3    c    0.606570 *  0.174340 *  0.633800 *   1.33043    1.000000    
     31 O1    c    0.106570 *  0.825660 *  0.366200 *   1.73396    1.000000    
     32 O1    c    0.393430 *  0.174340 *  0.366200 *   1.73396    1.000000    
     33 O1    c    0.000000 *  0.000000 *  0.500000 *   1.73396    1.000000    
     34 O3    c    0.500000 *  0.000000 *  0.500000 *   1.33043    1.000000    
     35 O1    c    0.994520 *  0.000000 *  0.250840 *   1.73396    1.000000    
     36 O3    c    0.505480 *  0.000000 *  0.250840 *   1.33043    1.000000    
     37 O1    c    0.005480 *  0.000000 *  0.749160 *   1.73396    1.000000    
     38 O3    c    0.494520 *  0.000000 *  0.749160 *   1.33043    1.000000    
     39 O3    c    0.610230 *  0.175520 *  0.115390 *   1.33043    1.000000    
     40 O1    c    0.889770 *  0.824480 *  0.115390 *   1.73396    1.000000    
     41 O1    c    0.389770 *  0.175520 *  0.884610 *   1.73396    1.000000    
     42 O3    c    0.110230 *  0.824480 *  0.884610 *   1.33043    1.000000    
     43 O1    c    0.389770 *  0.824480 *  0.884610 *   1.73396    1.000000    
     44 O3    c    0.110230 *  0.175520 *  0.884610 *   1.33043    1.000000    
     45 O3    c    0.610230 *  0.824480 *  0.115390 *   1.33043    1.000000    
     46 O1    c    0.889770 *  0.175520 *  0.115390 *   1.73396    1.000000    
     47 O3    c    0.500000 *  0.000000 *  0.000000 *   1.33043    1.000000    
     48 O1    c    0.000000 *  0.000000 *  0.000000 *   1.73396    1.000000    
     49 O1    c    0.151750 *  0.500000 *  0.313330 *   1.73396    1.000000    
     50 O1    c    0.348250 *  0.500000 *  0.313330 *   1.73396    1.000000    
     51 O1    c    0.848250 *  0.500000 *  0.686670 *   1.73396    1.000000    
     52 O1    c    0.651750 *  0.500000 *  0.686670 *   1.73396    1.000000    
     53 O1    c    0.250000 *  0.234950 *  0.285720 *   1.73396    1.000000    
     54 O1    c    0.250000 *  0.765050 *  0.285720 *   1.73396    1.000000    
     55 O1    c    0.750000 *  0.234950 *  0.714280 *   1.73396    1.000000    
     56 O1    c    0.750000 *  0.765050 *  0.714280 *   1.73396    1.000000    
     57 O3    c    0.131410 *  0.268650 *  0.127790 *   1.33043    1.000000    
     58 O1    c    0.368590 *  0.731350 *  0.127790 *   1.73396    1.000000    
     59 O1    c    0.868590 *  0.268650 *  0.872210 *   1.73396    1.000000    
     60 O1    c    0.631410 *  0.731350 *  0.872210 *   1.73396    1.000000    
     61 O1    c    0.868590 *  0.731350 *  0.872210 *   1.73396    1.000000    
     62 O1    c    0.631410 *  0.268650 *  0.872210 *   1.73396    1.000000    
     63 O3    c    0.131410 *  0.731350 *  0.127790 *   1.33043    1.000000    
     64 O1    c    0.368590 *  0.268650 *  0.127790 *   1.73396    1.000000    
     65 O1    c    0.653920 *  0.500000 *  0.058200 *   1.73396    1.000000    
     66 O1    c    0.846080 *  0.500000 *  0.058200 *   1.73396    1.000000    
     67 O1    c    0.346080 *  0.500000 *  0.941800 *   1.73396    1.000000    
     68 O2    c    0.153920 *  0.500000 *  0.941800 *   0.87073    1.000000    
     69 O1    c    0.750000 *  0.231060 *  0.027050 *   1.73396    1.000000    
     70 O1    c    0.750000 *  0.768940 *  0.027050 *   1.73396    1.000000    
     71 O3    c    0.250000 *  0.231060 *  0.972950 *   1.33043    1.000000    
     72 O3    c    0.250000 *  0.768940 *  0.972950 *   1.33043    1.000000    
     73 O1    s    0.106570 *  0.174340 *  0.366200 *  -3.73396    1.000000    
     74 O1    s    0.393430 *  0.825660 *  0.366200 *  -3.73396    1.000000    
     75 O1    s    0.893430 *  0.174340 *  0.633800 *  -3.73396    1.000000    
     76 O3    s    0.606570 *  0.825660 *  0.633800 *  -3.33043    1.000000    
     77 O1    s    0.893430 *  0.825660 *  0.633800 *  -3.73396    1.000000    
     78 O3    s    0.606570 *  0.174340 *  0.633800 *  -3.33043    1.000000    
     79 O1    s    0.106570 *  0.825660 *  0.366200 *  -3.73396    1.000000    
     80 O1    s    0.393430 *  0.174340 *  0.366200 *  -3.73396    1.000000    
     81 O1    s    0.000000 *  0.000000 *  0.500000 *  -3.73396    1.000000    
     82 O3    s    0.500000 *  0.000000 *  0.500000 *  -3.33043    1.000000    
     83 O1    s    0.994520 *  0.000000 *  0.250840 *  -3.73396    1.000000    
     84 O3    s    0.505480 *  0.000000 *  0.250840 *  -3.33043    1.000000    
     85 O1    s    0.005480 *  0.000000 *  0.749160 *  -3.73396    1.000000    
     86 O3    s    0.494520 *  0.000000 *  0.749160 *  -3.33043    1.000000    
     87 O3    s    0.610230 *  0.175520 *  0.115390 *  -3.33043    1.000000    
     88 O1    s    0.889770 *  0.824480 *  0.115390 *  -3.73396    1.000000    
     89 O1    s    0.389770 *  0.175520 *  0.884610 *  -3.73396    1.000000    
     90 O3    s    0.110230 *  0.824480 *  0.884610 *  -3.33043    1.000000    
     91 O1    s    0.389770 *  0.824480 *  0.884610 *  -3.73396    1.000000    
     92 O3    s    0.110230 *  0.175520 *  0.884610 *  -3.33043    1.000000    
     93 O3    s    0.610230 *  0.824480 *  0.115390 *  -3.33043    1.000000    
     94 O1    s    0.889770 *  0.175520 *  0.115390 *  -3.73396    1.000000    
     95 O3    s    0.500000 *  0.000000 *  0.000000 *  -3.33043    1.000000    
     96 O1    s    0.000000 *  0.000000 *  0.000000 *  -3.73396    1.000000    
     97 O1    s    0.151750 *  0.500000 *  0.313330 *  -3.73396    1.000000    
     98 O1    s    0.348250 *  0.500000 *  0.313330 *  -3.73396    1.000000    
     99 O1    s    0.848250 *  0.500000 *  0.686670 *  -3.73396    1.000000    
    100 O1    s    0.651750 *  0.500000 *  0.686670 *  -3.73396    1.000000    
    101 O1    s    0.250000 *  0.234950 *  0.285720 *  -3.73396    1.000000    
    102 O1    s    0.250000 *  0.765050 *  0.285720 *  -3.73396    1.000000    
    103 O1    s    0.750000 *  0.234950 *  0.714280 *  -3.73396    1.000000    
    104 O1    s    0.750000 *  0.765050 *  0.714280 *  -3.73396    1.000000    
    105 O3    s    0.131410 *  0.268650 *  0.127790 *  -3.33043    1.000000    
    106 O1    s    0.368590 *  0.731350 *  0.127790 *  -3.73396    1.000000    
    107 O1    s    0.868590 *  0.268650 *  0.872210 *  -3.73396    1.000000    
    108 O1    s    0.631410 *  0.731350 *  0.872210 *  -3.73396    1.000000    
    109 O1    s    0.868590 *  0.731350 *  0.872210 *  -3.73396    1.000000    
    110 O1    s    0.631410 *  0.268650 *  0.872210 *  -3.73396    1.000000    
    111 O3    s    0.131410 *  0.731350 *  0.127790 *  -3.33043    1.000000    
    112 O1    s    0.368590 *  0.268650 *  0.127790 *  -3.73396    1.000000    
    113 O1    s    0.653920 *  0.500000 *  0.058200 *  -3.73396    1.000000    
    114 O1    s    0.846080 *  0.500000 *  0.058200 *  -3.73396    1.000000    
    115 O1    s    0.346080 *  0.500000 *  0.941800 *  -3.73396    1.000000    
    116 O2    s    0.153920 *  0.500000 *  0.941800 *  -2.87073    1.000000    
    117 O1    s    0.750000 *  0.231060 *  0.027050 *  -3.73396    1.000000    
    118 O1    s    0.750000 *  0.768940 *  0.027050 *  -3.73396    1.000000    
    119 O3    s    0.250000 *  0.231060 *  0.972950 *  -3.33043    1.000000    
    120 O3    s    0.250000 *  0.768940 *  0.972950 *  -3.33043    1.000000    
--------------------------------------------------------------------------------



********************************************************************************
*  General input information                                                   *
********************************************************************************

  Species output for all configurations : 

--------------------------------------------------------------------------------
  Species    Type    Atomic    Atomic    Charge       Radii (Angs)     Library
                     Number     Mass       (e)     Cova   Ionic  VDW   Symbol
--------------------------------------------------------------------------------
    Ge       Core       32      72.61   4.000000   1.170  0.000  1.750 Ge       
    Si       Core       14      28.09   4.000000   1.200  0.000  2.100 Si       
    O1       Core        8      16.00   1.733957   0.730  0.000  1.360 O1       
    O2       Core        8      16.00   0.870733   0.730  0.000  1.360 O2       
    O3       Core        8      16.00   1.330431   0.730  0.000  1.360 O3       
    O1       Shell       8       0.00  -3.733957   0.730  0.000  0.000 O1       
    O2       Shell       8       0.00  -2.870733   0.730  0.000  0.000 O2       
    O3       Shell       8       0.00  -3.330431   0.730  0.000  0.000 O3       
--------------------------------------------------------------------------------


  Lattice summation method               =    Ewald          (3-D)
                                         =    Parry          (2-D)
                                         =    Saunders et al (1-D)
  Accuracy factor for lattice sums       =   12.000


  Analytic derivatives to be used

  Time limit = Infinity

  Maximum range for interatomic potentials =    100000.000000 Angstroms

  General interatomic potentials :

--------------------------------------------------------------------------------
Atom  Types   Potential      Parameter       Value         Units   Cutoffs(Ang)
  1     2                                                            Min /  Max 
--------------------------------------------------------------------------------
Si   c O1   s Buckingham    Buckingham A     1315.2478    eV        0.000 16.000
                            Buckingham rho  0.31775900    Ang       
                            Buckingham C     10.141118    eV*Ang^6  
--------------------------------------------------------------------------------
Si   c O2   s Buckingham    Buckingham A     1315.2478    eV        0.000 16.000
                            Buckingham rho  0.31775900    Ang       
                            Buckingham C     10.141118    eV*Ang^6  
--------------------------------------------------------------------------------
Si   c O3   s Buckingham    Buckingham A     1315.2478    eV        0.000 16.000
                            Buckingham rho  0.31775900    Ang       
                            Buckingham C     10.141118    eV*Ang^6  
--------------------------------------------------------------------------------
Ge   c O1   s Buckingham    Buckingham A     1497.3996    eV        0.000 16.000
                            Buckingham rho  0.32564600    Ang       
                            Buckingham C     16.808599    eV*Ang^6  
--------------------------------------------------------------------------------
Ge   c O2   s Buckingham    Buckingham A     1497.3996    eV        0.000 16.000
                            Buckingham rho  0.32564600    Ang       
                            Buckingham C     16.808599    eV*Ang^6  
--------------------------------------------------------------------------------
Ge   c O3   s Buckingham    Buckingham A     1497.3996    eV        0.000 16.000
                            Buckingham rho  0.32564600    Ang       
                            Buckingham C     16.808599    eV*Ang^6  
--------------------------------------------------------------------------------
O1   s O1   s Buckingham    Buckingham A     22764.000    eV        0.000 16.000
                            Buckingham rho  0.14900000    Ang       
                            Buckingham C     10.937044    eV*Ang^6  
--------------------------------------------------------------------------------
O1   s O2   s Buckingham    Buckingham A     22764.000    eV        0.000 16.000
                            Buckingham rho  0.14900000    Ang       
                            Buckingham C     10.937044    eV*Ang^6  
--------------------------------------------------------------------------------
O1   s O3   s Buckingham    Buckingham A     22764.000    eV        0.000 16.000
                            Buckingham rho  0.14900000    Ang       
                            Buckingham C     10.937044    eV*Ang^6  
--------------------------------------------------------------------------------
O2   s O2   s Buckingham    Buckingham A     22764.000    eV        0.000 16.000
                            Buckingham rho  0.14900000    Ang       
                            Buckingham C     10.937044    eV*Ang^6  
--------------------------------------------------------------------------------
O2   s O3   s Buckingham    Buckingham A     22764.000    eV        0.000 16.000
                            Buckingham rho  0.14900000    Ang       
                            Buckingham C     10.937044    eV*Ang^6  
--------------------------------------------------------------------------------
O3   s O3   s Buckingham    Buckingham A     22764.000    eV        0.000 16.000
                            Buckingham rho  0.14900000    Ang       
                            Buckingham C     10.937044    eV*Ang^6  
--------------------------------------------------------------------------------
O1   c O1   s Spring (c-s)  Spring k 2       180.31577    eV*Ang^-2 0.000  0.800
                            Spring k 4       0.0000000    eV*Ang^-4 
--------------------------------------------------------------------------------
O2   c O2   s Spring (c-s)  Spring k 2       75.969800    eV*Ang^-2 0.000  0.800
                            Spring k 4       0.0000000    eV*Ang^-4 
--------------------------------------------------------------------------------
O3   c O3   s Spring (c-s)  Spring k 2       128.14270    eV*Ang^-2 0.000  0.800
                            Spring k 4       0.0000000    eV*Ang^-4 
--------------------------------------------------------------------------------

  General Three-body potentials :

--------------------------------------------------------------------------------
  Atoms       Potential      Parameter       Value         Units   Cutoffs(Ang)
  1 / 2 / 3                                                          Min /  Max 
--------------------------------------------------------------------------------
Si    core    Harmonic      Three-body cnst  1.2614000    eV*rad^-2 0.000  1.900
O1    shel                  Three-body angl  109.47000    degrees   0.000  1.900
O1    shel                  Three-body k4    0.0000000    eV*rad^-4 0.000  3.500
                            Three-body k3    0.0000000    eV*rad^-3 
--------------------------------------------------------------------------------
Si    core    Harmonic      Three-body cnst  1.2614000    eV*rad^-2 0.000  1.900
O1    shel                  Three-body angl  109.47000    degrees   0.000  1.900
õ(1   shel                  Three-body k4    0.0000000    eV*rad^-4 0.000  3.500
                            Three-body k3    0.0000000    eV*rad^-3 
--------------------------------------------------------------------------------
Si    core    Harmonic      Three-body cnst  1.2614000    eV*rad^-2 0.000  1.900
õ(1   shel                  Three-body angl  109.47000    degrees   0.000  1.900
õ(1   shel                  Three-body k4    0.0000000    eV*rad^-4 0.000  3.500
                            Three-body k3    0.0000000    eV*rad^-3 
--------------------------------------------------------------------------------
Si    core    Harmonic      Three-body cnst  1.2614000    eV*rad^-2 0.000  1.900
O1    shel                  Three-body angl  109.47000    degrees   0.000  1.900
O2    shel                  Three-body k4    0.0000000    eV*rad^-4 0.000  3.500
                            Three-body k3    0.0000000    eV*rad^-3 
--------------------------------------------------------------------------------
Si    core    Harmonic      Three-body cnst  1.2614000    eV*rad^-2 0.000  1.900
O1    shel                  Three-body angl  109.47000    degrees   0.000  1.900
õ(2   shel                  Three-body k4    0.0000000    eV*rad^-4 0.000  3.500
                            Three-body k3    0.0000000    eV*rad^-3 
--------------------------------------------------------------------------------
Si    core    Harmonic      Three-body cnst  1.2614000    eV*rad^-2 0.000  1.900
O2    shel                  Three-body angl  109.47000    degrees   0.000  1.900
õ(1   shel                  Three-body k4    0.0000000    eV*rad^-4 0.000  3.500
                            Three-body k3    0.0000000    eV*rad^-3 
--------------------------------------------------------------------------------
Si    core    Harmonic      Three-body cnst  1.2614000    eV*rad^-2 0.000  1.900
õ(1   shel                  Three-body angl  109.47000    degrees   0.000  1.900
õ(2   shel                  Three-body k4    0.0000000    eV*rad^-4 0.000  3.500
                            Three-body k3    0.0000000    eV*rad^-3 
--------------------------------------------------------------------------------
Si    core    Harmonic      Three-body cnst  1.2614000    eV*rad^-2 0.000  1.900
O2    shel                  Three-body angl  109.47000    degrees   0.000  1.900
O2    shel                  Three-body k4    0.0000000    eV*rad^-4 0.000  3.500
                            Three-body k3    0.0000000    eV*rad^-3 
--------------------------------------------------------------------------------
Si    core    Harmonic      Three-body cnst  1.2614000    eV*rad^-2 0.000  1.900
O2    shel                  Three-body angl  109.47000    degrees   0.000  1.900
õ(2   shel                  Three-body k4    0.0000000    eV*rad^-4 0.000  3.500
                            Three-body k3    0.0000000    eV*rad^-3 
--------------------------------------------------------------------------------
Si    core    Harmonic      Three-body cnst  1.2614000    eV*rad^-2 0.000  1.900
õ(2   shel                  Three-body angl  109.47000    degrees   0.000  1.900
õ(2   shel                  Three-body k4    0.0000000    eV*rad^-4 0.000  3.500
                            Three-body k3    0.0000000    eV*rad^-3 
--------------------------------------------------------------------------------

********************************************************************************
*  Output for configuration   1 : c01155.vasp                                  *
********************************************************************************


  Components of energy : 

--------------------------------------------------------------------------------
  Interatomic potentials     =         896.55019375 eV    
  Three-body potentials      =           0.00000000 eV    
  Monopole - monopole (real) =       -2676.00317478 eV    
  Monopole - monopole (recip)=       -1115.35404472 eV    
  Monopole - monopole (total)=       -3791.35721950 eV    
--------------------------------------------------------------------------------
  Total lattice energy       =       -2894.80702575 eV    
--------------------------------------------------------------------------------
  Total lattice energy       =         -279304.6268 kJ/(mole unit cells)
--------------------------------------------------------------------------------


  Number of variables =      363

  Maximum number of calculations  =          1000
  Maximum Hessian update interval =            10
  Maximum step size               =   0.100000000
  Maximum parameter tolerance     =   0.000010000
  Maximum function  tolerance     =   0.000010000
  Maximum gradient  tolerance     =   0.001000000
  Maximum gradient  component     =   0.010000000

  Symmetry not applied to optimisation

  Cell parameters to be optimised using strains

  Newton-Raphson optimiser to be used

  BFGS hessian update to be used

  Lower half triangular hessian to be used

  Minimiser to switch to RFO
  When gradient norm is less than     0.050000

  Dumpfile to be written after every cycle

  Start of bulk optimisation :

  Cycle:      0 Energy:     -2894.807026  Gnorm:      5.891517  CPU:    0.098
  ** Hessian calculated **
  Cycle:      1 Energy:     -2907.660154  Gnorm:      5.078096  CPU:    0.245
  ** Hessian calculated **
  Cycle:      2 Energy:     -2926.192278  Gnorm:      3.693039  CPU:    0.466
  ** Hessian calculated **
  Cycle:      3 Energy:     -2942.502869  Gnorm:      0.867066  CPU:    0.629
  ** Hessian calculated **
  Cycle:      4 Energy:     -2944.058449  Gnorm:      0.414063  CPU:    0.792
  Cycle:      5 Energy:     -2944.496864  Gnorm:      0.282102  CPU:    0.874
  Cycle:      6 Energy:     -2944.917691  Gnorm:      0.236535  CPU:    0.969
  Cycle:      7 Energy:     -2945.388610  Gnorm:      0.187505  CPU:    1.063
  Cycle:      8 Energy:     -2945.686009  Gnorm:      0.174124  CPU:    1.146
  Cycle:      9 Energy:     -2945.851379  Gnorm:      0.130826  CPU:    1.225
  Cycle:     10 Energy:     -2945.936317  Gnorm:      0.110044  CPU:    1.306
  Cycle:     11 Energy:     -2946.014922  Gnorm:      0.107364  CPU:    1.400
  Cycle:     12 Energy:     -2946.096877  Gnorm:      0.111270  CPU:    1.495
  Cycle:     13 Energy:     -2946.190697  Gnorm:      0.123573  CPU:    1.592
  ** Hessian calculated **
  Cycle:     14 Energy:     -2946.220512  Gnorm:      0.103376  CPU:    1.770
  Cycle:     15 Energy:     -2946.262010  Gnorm:      0.093195  CPU:    1.867
  Cycle:     16 Energy:     -2946.318205  Gnorm:      0.087191  CPU:    1.962
  Cycle:     17 Energy:     -2946.377939  Gnorm:      0.089489  CPU:    2.056
  Cycle:     18 Energy:     -2946.412916  Gnorm:      0.079958  CPU:    2.141
  Cycle:     19 Energy:     -2946.444118  Gnorm:      0.075296  CPU:    2.249
  Cycle:     20 Energy:     -2946.477323  Gnorm:      0.081079  CPU:    2.350
  Cycle:     21 Energy:     -2946.523630  Gnorm:      0.087777  CPU:    2.448
  Cycle:     22 Energy:     -2946.588437  Gnorm:      0.095763  CPU:    2.547
  Cycle:     23 Energy:     -2946.662817  Gnorm:      0.105769  CPU:    2.645
  ** Hessian calculated **
  Cycle:     24 Energy:     -2946.679145  Gnorm:      0.081195  CPU:    2.810
  Cycle:     25 Energy:     -2946.709104  Gnorm:      0.069391  CPU:    2.923
  Cycle:     26 Energy:     -2946.740121  Gnorm:      0.057327  CPU:    3.021
  Cycle:     27 Energy:     -2946.756151  Gnorm:      0.051211  CPU:    3.104
  Cycle:     28 Energy:     -2946.764649  Gnorm:      0.037786  CPU:    3.187
  ** Hessian has required structure
  Cycle:     29 Energy:     -2946.767953  Gnorm:      0.062046  CPU:    3.305
  ** Hessian has required structure
  Cycle:     30 Energy:     -2946.782100  Gnorm:      0.082003  CPU:    3.454
  ** Hessian has required structure
  Cycle:     31 Energy:     -2946.792951  Gnorm:      0.093375  CPU:    3.573
  ** Hessian has required structure
  Cycle:     32 Energy:     -2946.795762  Gnorm:      0.096116  CPU:    3.734
  ** Hessian has required structure
  Cycle:     33 Energy:     -2946.799937  Gnorm:      0.122555  CPU:    3.853
  ** Hessian has wrong structure
  ** Imaginary eigenvectors =   5
  ** Hessian has wrong structure
  ** Imaginary eigenvectors =   5
  Cycle:     34 Energy:     -2946.849843  Gnorm:      0.122524  CPU:    4.366
  ** Hessian has wrong structure
  ** Imaginary eigenvectors =   5
  ** Hessian has wrong structure
  ** Imaginary eigenvectors =   5
  Cycle:     35 Energy:     -2946.946306  Gnorm:      0.128069  CPU:    4.848
  ** Hessian has wrong structure
  ** Imaginary eigenvectors =   5
  Cycle:     36 Energy:     -2946.954484  Gnorm:      0.125795  CPU:    5.104
  ** Hessian has wrong structure
  ** Imaginary eigenvectors =   6
  Cycle:     37 Energy:     -2946.977690  Gnorm:      0.125173  CPU:    5.325
  ** Hessian has wrong structure
  ** Imaginary eigenvectors =   4
  ** Hessian has wrong structure
  ** Imaginary eigenvectors =   4
  Cycle:     38 Energy:     -2947.050001  Gnorm:      0.136734  CPU:    5.742
  ** Hessian has wrong structure
  ** Imaginary eigenvectors =   3
  ** Hessian has wrong structure
  ** Imaginary eigenvectors =   2
  Cycle:     39 Energy:     -2947.157865  Gnorm:      0.155217  CPU:    6.089
  ** Hessian has wrong structure
  ** Imaginary eigenvectors =   1
  ** Hessian has required structure
  Cycle:     40 Energy:     -2947.485166  Gnorm:      0.103579  CPU:    6.439
  ** Hessian has required structure
  Cycle:     41 Energy:     -2947.619386  Gnorm:      0.066422  CPU:    6.572
  ** Hessian has required structure
  Cycle:     42 Energy:     -2947.675078  Gnorm:      0.039889  CPU:    6.707
  ** Hessian has required structure
  Cycle:     43 Energy:     -2947.716889  Gnorm:      0.018885  CPU:    6.841
  ** Hessian has required structure
  Cycle:     44 Energy:     -2947.725042  Gnorm:      0.027552  CPU:    6.959
  ** Hessian has required structure
  Cycle:     45 Energy:     -2947.729941  Gnorm:      0.023864  CPU:    7.093
  ** Hessian has required structure
  Cycle:     46 Energy:     -2947.732825  Gnorm:      0.015348  CPU:    7.211
  ** Hessian has required structure
  Cycle:     47 Energy:     -2947.734886  Gnorm:      0.010542  CPU:    7.343
  ** Hessian has required structure
  Cycle:     48 Energy:     -2947.736029  Gnorm:      0.007969  CPU:    7.491
  ** Hessian has required structure
  Cycle:     49 Energy:     -2947.737098  Gnorm:      0.007301  CPU:    7.639
  ** Hessian has required structure
  Cycle:     50 Energy:     -2947.738129  Gnorm:      0.003789  CPU:    7.862
  ** Hessian has required structure
  Cycle:     51 Energy:     -2947.738371  Gnorm:      0.002397  CPU:    7.995
  ** Hessian has required structure
  Cycle:     52 Energy:     -2947.738491  Gnorm:      0.001247  CPU:    8.143
  ** Hessian has required structure
  Cycle:     53 Energy:     -2947.738524  Gnorm:      0.000653  CPU:    8.291
  ** Hessian has required structure
  Cycle:     54 Energy:     -2947.738535  Gnorm:      0.000335  CPU:    8.440
  ** Hessian has required structure
  Cycle:     55 Energy:     -2947.738537  Gnorm:      0.000236  CPU:    8.557
  ** Hessian has required structure
  Cycle:     56 Energy:     -2947.738540  Gnorm:      0.000189  CPU:    8.676
  ** Hessian has required structure
  Cycle:     57 Energy:     -2947.738541  Gnorm:      0.000177  CPU:    8.794
  ** Hessian has required structure
  Cycle:     58 Energy:     -2947.738541  Gnorm:      0.000183  CPU:    8.957
  ** Hessian has required structure
  Cycle:     59 Energy:     -2947.738541  Gnorm:      0.000183  CPU:    9.106
  ** Hessian has required structure
  Cycle:     60 Energy:     -2947.738541  Gnorm:      0.000183  CPU:    9.346
  ** Hessian calculated **
  Cycle:     61 Energy:     -2947.738541  Gnorm:      0.000092  CPU:    9.496
  ** Hessian has required structure
  Cycle:     62 Energy:     -2947.738541  Gnorm:      0.000165  CPU:    9.613
  ** Hessian has required structure
  Cycle:     63 Energy:     -2947.738541  Gnorm:      0.000174  CPU:    9.730
  ** Hessian has required structure
  Cycle:     64 Energy:     -2947.738541  Gnorm:      0.000151  CPU:    9.848
  ** Hessian has required structure
  Cycle:     65 Energy:     -2947.738541  Gnorm:      0.000120  CPU:    9.965
  ** Hessian has required structure
  Cycle:     66 Energy:     -2947.738541  Gnorm:      0.000129  CPU:   10.083
  ** Hessian has required structure
  Cycle:     67 Energy:     -2947.738541  Gnorm:      0.000135  CPU:   10.200
  ** Hessian has required structure
  Cycle:     68 Energy:     -2947.738541  Gnorm:      0.000129  CPU:   10.316
  ** Hessian has required structure
  Cycle:     69 Energy:     -2947.738541  Gnorm:      0.000109  CPU:   10.433
  ** Hessian has required structure
  Cycle:     70 Energy:     -2947.738541  Gnorm:      0.000104  CPU:   10.550
  ** Hessian has required structure
  Cycle:     71 Energy:     -2947.738541  Gnorm:      0.000107  CPU:   10.820
  ** Hessian calculated **


  **** Optimisation achieved ****


  Final energy =   -2947.73854074 eV      
  Final Gnorm  =       0.00004199

  Components of energy : 

--------------------------------------------------------------------------------
  Interatomic potentials     =         776.44882824 eV    
  Three-body potentials      =           0.00000000 eV    
  Monopole - monopole (real) =       -1579.94524712 eV    
  Monopole - monopole (recip)=       -2144.24212186 eV    
  Monopole - monopole (total)=       -3724.18736898 eV    
--------------------------------------------------------------------------------
  Total lattice energy       =       -2947.73854074 eV    
--------------------------------------------------------------------------------
  Total lattice energy       =         -284411.7089 kJ/(mole unit cells)
--------------------------------------------------------------------------------

  Final fractional coordinates of atoms :

--------------------------------------------------------------------------------
   No.  Atomic        x           y          z          Radius
        Label       (Frac)      (Frac)     (Frac)       (Angs) 
--------------------------------------------------------------------------------
     1  Ge    c     0.052090    0.000000    0.372270    0.000000
     2  Ge    c     0.453034    0.029897    0.395872    0.000000
     3  Ge    c     0.951327    0.994166    0.629005    0.000000
     4  Ge    c     0.949540    0.999064    0.115904    0.000000
     5  Ge    c     0.449455    0.026201    0.899598    0.000000
     6  Ge    c     0.061178    0.005859    0.873640    0.000000
     7  Ge    c     0.174439    0.276751    0.290603    0.000000
     8  Ge    c     0.330910    0.749461    0.288186    0.000000
     9  Ge    c     0.828456    0.278144    0.740335    0.000000
    10  Ge    c     0.668294    0.739725    0.728307    0.000000
    11  Ge    c     0.849547    0.683844    0.733931    0.000000
    12  Ge    c     0.647127    0.333380    0.732887    0.000000
    13  Ge    c     0.151093    0.689287    0.289716    0.000000
    14  Ge    c     0.353781    0.341084    0.289877    0.000000
    15  Ge    c     0.643792    0.335836    0.042388    0.000000
    16  Ge    c     0.848972    0.682875    0.046012    0.000000
    17  Ge    c     0.350008    0.343336    0.977629    0.000000
    18  Ge    c     0.329935    0.744767    0.979179    0.000000
    19  Ge    c     0.667820    0.742099    0.038975    0.000000
    20  Ge    c     0.825453    0.279591    0.049666    0.000000
    21  Si    c     0.552733    0.022519    0.650025    0.000000
    22  Si    c     0.553107    0.021687    0.147284    0.000000
    23  Si    c     0.151300    0.691477    0.990208    0.000000
    24  Si    c     0.171744    0.292124    0.988718    0.000000
    25  O1    c     0.124235    0.145893    0.388743    0.000000
    26  O1    c     0.379675    0.890056    0.380325    0.000000
    27  O1    c     0.879125    0.134527    0.654860    0.000000
    28  O3    c     0.618511    0.882719    0.634043    0.000000
    29  O1    c     0.916516    0.791895    0.648894    0.000000
    30  O3    c     0.587277    0.211399    0.639079    0.000000
    31  O1    c     0.088456    0.796974    0.382994    0.000000
    32  O1    c     0.420517    0.233612    0.377676    0.000000
    33  O1    c     0.978588    0.024652    0.472962    0.000000
    34  O3    c     0.486509    0.998492    0.549201    0.000000
    35  O1    c     0.021406    0.036631    0.218055    0.000000
    36  O3    c     0.525072    0.989810    0.290158    0.000000
    37  O1    c     0.032063    0.022928    0.717948    0.000000
    38  O3    c     0.519774    0.993354    0.792147    0.000000
    39  O3    c     0.579045    0.217252    0.127761    0.000000
    40  O1    c     0.912584    0.797254    0.133464    0.000000
    41  O1    c     0.411333    0.226381    0.888191    0.000000
    42  O3    c     0.097726    0.801775    0.898526    0.000000
    43  O1    c     0.374100    0.888785    0.883558    0.000000
    44  O3    c     0.126159    0.168278    0.896164    0.000000
    45  O3    c     0.623490    0.896830    0.125755    0.000000
    46  O1    c     0.875332    0.138203    0.139716    0.000000
    47  O3    c     0.485271    0.980681    0.050193    0.000000
    48  O1    c     0.981657    0.030106    0.962394    0.000000
    49  O1    c     0.160495    0.484125    0.339507    0.000000
    50  O1    c     0.343152    0.543734    0.344720    0.000000
    51  O1    c     0.839798    0.480475    0.677960    0.000000
    52  O1    c     0.655005    0.535098    0.671931    0.000000
    53  O1    c     0.268852    0.233493    0.298809    0.000000
    54  O1    c     0.236224    0.794311    0.293964    0.000000
    55  O1    c     0.733518    0.233318    0.738080    0.000000
    56  O1    c     0.762936    0.785147    0.724596    0.000000
    57  O3    c     0.144299    0.261675    0.132612    0.000000
    58  O1    c     0.362192    0.757246    0.133695    0.000000
    59  O1    c     0.858745    0.275774    0.895651    0.000000
    60  O1    c     0.637568    0.742957    0.883316    0.000000
    61  O1    c     0.878939    0.676625    0.890199    0.000000
    62  O1    c     0.613180    0.341534    0.886308    0.000000
    63  O3    c     0.118220    0.699415    0.132341    0.000000
    64  O1    c     0.381348    0.342908    0.132888    0.000000
    65  O1    c     0.650512    0.539824    0.099070    0.000000
    66  O1    c     0.838292    0.482999    0.107934    0.000000
    67  O1    c     0.347731    0.545726    0.918672    0.000000
    68  O2    c     0.158443    0.492215    0.949873    0.000000
    69  O1    c     0.730494    0.237992    0.048340    0.000000
    70  O1    c     0.762389    0.784167    0.043222    0.000000
    71  O3    c     0.260327    0.253083    0.978425    0.000000
    72  O3    c     0.233533    0.777052    0.986554    0.000000
    73  O1    s     0.122835    0.145371    0.379927    0.000000
    74  O1    s     0.381550    0.889846    0.374216    0.000000
    75  O1    s     0.880712    0.135043    0.659697    0.000000
    76  O3    s     0.616193    0.884678    0.643020    0.000000
    77  O1    s     0.914007    0.798923    0.653900    0.000000
    78  O3    s     0.588600    0.202821    0.647323    0.000000
    79  O1    s     0.090517    0.803736    0.375202    0.000000
    80  O1    s     0.417943    0.226061    0.372413    0.000000
    81  O1    s     0.982516    0.020360    0.476385    0.000000
    82  O3    s     0.490661    0.003578    0.547246    0.000000
    83  O1    s     0.017782    0.030818    0.221024    0.000000
    84  O3    s     0.522013    0.996237    0.284545    0.000000
    85  O1    s     0.028281    0.019468    0.723066    0.000000
    86  O3    s     0.516863    0.998942    0.788029    0.000000
    87  O3    s     0.581757    0.208339    0.122814    0.000000
    88  O1    s     0.910457    0.803276    0.125600    0.000000
    89  O1    s     0.409545    0.220109    0.895839    0.000000
    90  O3    s     0.100289    0.806309    0.905741    0.000000
    91  O1    s     0.376148    0.887512    0.892246    0.000000
    92  O3    s     0.125617    0.167905    0.903768    0.000000
    93  O3    s     0.620241    0.896198    0.120582    0.000000
    94  O1    s     0.876751    0.139358    0.130879    0.000000
    95  O3    s     0.489025    0.988214    0.047832    0.000000
    96  O1    s     0.985444    0.025901    0.966675    0.000000
    97  O1    s     0.160770    0.485325    0.331923    0.000000
    98  O1    s     0.343088    0.542957    0.336389    0.000000
    99  O1    s     0.839708    0.481079    0.686708    0.000000
   100  O1    s     0.655352    0.534394    0.680622    0.000000
   101  O1    s     0.267780    0.244534    0.297532    0.000000
   102  O1    s     0.237008    0.783220    0.293206    0.000000
   103  O1    s     0.734190    0.244022    0.737881    0.000000
   104  O1    s     0.762074    0.774481    0.725547    0.000000
   105  O3    s     0.149234    0.265713    0.130685    0.000000
   106  O1    s     0.357428    0.755724    0.133800    0.000000
   107  O1    s     0.854004    0.276252    0.895210    0.000000
   108  O1    s     0.642157    0.742631    0.883437    0.000000
   109  O1    s     0.874533    0.677646    0.890044    0.000000
   110  O1    s     0.617897    0.340473    0.886505    0.000000
   111  O3    s     0.123769    0.697994    0.130426    0.000000
   112  O1    s     0.376947    0.342766    0.132954    0.000000
   113  O1    s     0.651233    0.539021    0.090556    0.000000
   114  O1    s     0.838185    0.483739    0.098952    0.000000
   115  O1    s     0.346581    0.544625    0.927786    0.000000
   116  O2    s     0.159009    0.492688    0.957655    0.000000
   117  O1    s     0.731197    0.248486    0.047985    0.000000
   118  O1    s     0.761448    0.773617    0.043078    0.000000
   119  O3    s     0.258617    0.263797    0.979377    0.000000
   120  O3    s     0.233235    0.766179    0.986328    0.000000
--------------------------------------------------------------------------------

  Final Cartesian lattice vectors (Angstroms) :

       17.701394    0.003034   -0.047479
        0.001919    7.839289    0.027555
       -0.026035    0.036746   10.480588


  Final cell parameters and derivatives :

--------------------------------------------------------------------------------
       a           17.701458 Angstrom     dE/de1(xx)     0.002591 eV/strain
       b            7.839338 Angstrom     dE/de2(yy)     0.003352 eV/strain
       c           10.480685 Angstrom     dE/de3(zz)    -0.001760 eV/strain
       alpha       89.597759 Degrees      dE/de4(yz)    -0.000008 eV/strain
       beta        90.295975 Degrees      dE/de5(xz)    -0.000046 eV/strain
       gamma       89.976695 Degrees      dE/de6(xy)    -0.000357 eV/strain
--------------------------------------------------------------------------------

  Primitive cell volume =          1454.325213 Angs**3

  Density of cell =      2.663344 g/cm**3

  Non-primitive cell volume =          1454.325213 Angs**3


  Final internal derivatives :

--------------------------------------------------------------------------------
   No.  Atomic          a             b             c           Radius
        Label          (eV)          (eV)          (eV)        (eV/Angs)
--------------------------------------------------------------------------------
      1 Ge    c       0.000000      0.000000      0.000000      0.000000
      2 Ge    c       0.001492      0.000305      0.000022      0.000000
      3 Ge    c       0.001137     -0.000321      0.000460      0.000000
      4 Ge    c      -0.003661      0.000216     -0.001297      0.000000
      5 Ge    c       0.001949      0.000112     -0.000180      0.000000
      6 Ge    c      -0.000702      0.000062      0.000113      0.000000
      7 Ge    c       0.000169     -0.000008      0.000150      0.000000
      8 Ge    c       0.001387     -0.000138     -0.000746      0.000000
      9 Ge    c       0.000503      0.000218      0.000820      0.000000
     10 Ge    c      -0.000353     -0.000024      0.000627      0.000000
     11 Ge    c       0.000558     -0.000162      0.000473      0.000000
     12 Ge    c      -0.000946     -0.000119      0.000682      0.000000
     13 Ge    c      -0.000533     -0.000086     -0.000190      0.000000
     14 Ge    c       0.000872      0.000171     -0.000856      0.000000
     15 Ge    c      -0.002091     -0.000341     -0.000288      0.000000
     16 Ge    c       0.002103      0.000151      0.000285      0.000000
     17 Ge    c       0.000877      0.000156      0.000709      0.000000
     18 Ge    c       0.000038      0.000021      0.000494      0.000000
     19 Ge    c      -0.001057     -0.000048     -0.000488      0.000000
     20 Ge    c       0.002277     -0.000170      0.000147      0.000000
     21 Si    c      -0.001617      0.000031      0.000435      0.000000
     22 Si    c      -0.000641      0.000113      0.000953      0.000000
     23 Si    c      -0.000464     -0.000166      0.000197      0.000000
     24 Si    c      -0.000379      0.000339     -0.000175      0.000000
     25 O1    c       0.000201      0.000164     -0.000177      0.000000
     26 O1    c      -0.002173     -0.000236     -0.000308      0.000000
     27 O1    c      -0.001876      0.001061     -0.000215      0.000000
     28 O3    c       0.000925     -0.000689     -0.001314      0.000000
     29 O1    c      -0.000601     -0.000105     -0.000620      0.000000
     30 O3    c       0.000502      0.000409     -0.000792      0.000000
     31 O1    c      -0.000566      0.000216      0.000535      0.000000
     32 O1    c       0.000062     -0.000564      0.000421      0.000000
     33 O1    c      -0.000656     -0.000043     -0.000221      0.000000
     34 O3    c      -0.000878     -0.000122      0.000272      0.000000
     35 O1    c       0.003522     -0.000481      0.000166      0.000000
     36 O3    c       0.000922     -0.000085     -0.000723      0.000000
     37 O1    c       0.000024      0.000022     -0.000221      0.000000
     38 O3    c      -0.000136      0.000015      0.000168      0.000000
     39 O3    c       0.000062      0.000378     -0.000134      0.000000
     40 O1    c       0.000402     -0.000609      0.000950      0.000000
     41 O1    c      -0.001619      0.000451     -0.000807      0.000000
     42 O3    c       0.000695      0.000489     -0.000138      0.000000
     43 O1    c      -0.002362     -0.000600     -0.000825      0.000000
     44 O3    c       0.001034     -0.000112      0.000094      0.000000
     45 O3    c       0.000749     -0.000901      0.000453      0.000000
     46 O1    c      -0.000521      0.001142      0.001077      0.000000
     47 O3    c      -0.001568     -0.000393      0.000659      0.000000
     48 O1    c       0.000422     -0.000043      0.000554      0.000000
     49 O1    c       0.000447     -0.000014      0.000696      0.000000
     50 O1    c      -0.000562     -0.000403      0.000005      0.000000
     51 O1    c      -0.000803      0.000240     -0.001022      0.000000
     52 O1    c       0.000638      0.000185     -0.000613      0.000000
     53 O1    c      -0.000136      0.000137      0.000422      0.000000
     54 O1    c      -0.001546     -0.000183      0.000561      0.000000
     55 O1    c       0.000172      0.000142     -0.000000      0.000000
     56 O1    c      -0.000412     -0.000132     -0.000126      0.000000
     57 O3    c      -0.000197      0.000016      0.000601      0.000000
     58 O1    c      -0.000676     -0.000869      0.000503      0.000000
     59 O1    c      -0.000866      0.000427     -0.000044      0.000000
     60 O1    c       0.000792     -0.000407     -0.000187      0.000000
     61 O1    c      -0.000796     -0.000217     -0.000304      0.000000
     62 O1    c       0.001370      0.000282     -0.000027      0.000000
     63 O3    c       0.000153      0.000079      0.000254      0.000000
     64 O1    c      -0.000660      0.000302      0.000186      0.000000
     65 O1    c       0.001015     -0.000727      0.000363      0.000000
     66 O1    c      -0.001442      0.000196      0.000942      0.000000
     67 O1    c      -0.000314     -0.000249     -0.000153      0.000000
     68 O2    c      -0.000199      0.000068     -0.000245      0.000000
     69 O1    c      -0.000203      0.000305     -0.000348      0.000000
     70 O1    c      -0.000585     -0.000430     -0.000484      0.000000
     71 O3    c      -0.000049      0.000366      0.000108      0.000000
     72 O3    c      -0.000293     -0.000452      0.000107      0.000000
     73 O1    s      -0.000320     -0.000220      0.000725      0.000000
     74 O1    s       0.001054     -0.000363     -0.000006      0.000000
     75 O1    s       0.001929     -0.000225     -0.000351      0.000000
     76 O3    s      -0.001202     -0.000262     -0.000944      0.000000
     77 O1    s       0.001025     -0.000181      0.000251      0.000000
     78 O3    s      -0.001107      0.000638     -0.000285      0.000000
     79 O1    s       0.000028     -0.000102     -0.000141      0.000000
     80 O1    s       0.000051      0.000866     -0.000814      0.000000
     81 O1    s       0.000977     -0.000100     -0.000352      0.000000
     82 O3    s       0.000161      0.000262      0.001101      0.000000
     83 O1    s      -0.001848     -0.000154     -0.002827      0.000000
     84 O3    s      -0.000859      0.000469      0.000852      0.000000
     85 O1    s       0.000011     -0.000468     -0.000301      0.000000
     86 O3    s      -0.001179      0.000738      0.001006      0.000000
     87 O3    s      -0.001739      0.001027      0.000183      0.000000
     88 O1    s       0.001013      0.000590     -0.000103      0.000000
     89 O1    s       0.001859      0.000898     -0.000167      0.000000
     90 O3    s      -0.000794     -0.000595      0.000105      0.000000
     91 O1    s       0.002153     -0.000192     -0.000855      0.000000
     92 O3    s      -0.000431      0.000030     -0.000343      0.000000
     93 O3    s      -0.002251      0.000629      0.000333      0.000000
     94 O1    s       0.002913     -0.000890     -0.000223      0.000000
     95 O3    s       0.000726      0.000994      0.001280      0.000000
     96 O1    s      -0.000379     -0.000555     -0.000768      0.000000
     97 O1    s      -0.000609     -0.000066     -0.000758      0.000000
     98 O1    s       0.000633      0.000373     -0.000579      0.000000
     99 O1    s       0.000572     -0.000210      0.000641      0.000000
    100 O1    s      -0.000874      0.000022      0.000471      0.000000
    101 O1    s      -0.000757      0.000068      0.000055      0.000000
    102 O1    s      -0.000419      0.000038     -0.000120      0.000000
    103 O1    s      -0.000123     -0.000448      0.000031      0.000000
    104 O1    s       0.000292      0.000341      0.000114      0.000000
    105 O3    s      -0.000165      0.000053     -0.000130      0.000000
    106 O1    s       0.000586     -0.000572     -0.000514      0.000000
    107 O1    s       0.000427     -0.000505     -0.000165      0.000000
    108 O1    s      -0.000191      0.000214     -0.000127      0.000000
    109 O1    s       0.001333      0.000502     -0.000157      0.000000
    110 O1    s      -0.001322     -0.000332     -0.000467      0.000000
    111 O3    s      -0.000303     -0.000114      0.000088      0.000000
    112 O1    s       0.000776      0.000010     -0.000297      0.000000
    113 O1    s      -0.000517      0.000296     -0.000403      0.000000
    114 O1    s       0.001124     -0.000398     -0.000659      0.000000
    115 O1    s      -0.000093      0.000232      0.000816      0.000000
    116 O2    s       0.000603     -0.000051     -0.000057      0.000000
    117 O1    s      -0.000072     -0.001171      0.000301      0.000000
    118 O1    s      -0.000179      0.001015     -0.000075      0.000000
    119 O3    s      -0.000014      0.000385      0.000471      0.000000
    120 O3    s       0.000034     -0.000383      0.000615      0.000000
--------------------------------------------------------------------------------
  Maximum abs         0.003661      0.001171      0.002827      0.000000
--------------------------------------------------------------------------------


  Born effective charge tensors : 

-------------------------------------------------------------------------------
  Atom             x           y             z
-------------------------------------------------------------------------------
    1 Ge    x       4.1461     -0.1709     -0.0330
            y       0.1604      3.9012      0.0206
            z      -0.8492      0.0598      4.3305
-------------------------------------------------------------------------------
    2 Ge    x       4.0496     -0.1870      0.3764
            y       0.2113      3.8892     -0.0296
            z       0.2558     -0.0818      4.4429
-------------------------------------------------------------------------------
    3 Ge    x       4.2921      0.1901     -0.3852
            y      -0.1558      3.8797     -0.0035
            z      -0.1546     -0.1106      4.5222
-------------------------------------------------------------------------------
    4 Ge    x       4.4001      0.1842     -0.0457
            y      -0.1517      3.8994      0.0485
            z       0.6194      0.1103      3.6400
-------------------------------------------------------------------------------
    5 Ge    x       4.2622     -0.1976     -0.0023
            y       0.1884      3.9097      0.0267
            z      -0.6613      0.0619      3.6053
-------------------------------------------------------------------------------
    6 Ge    x       4.2361     -0.1163      0.3586
            y       0.1642      3.9449      0.0021
            z       0.3432     -0.0679      3.9426
-------------------------------------------------------------------------------
    7 Ge    x       3.9677      0.2062     -0.3346
            y       0.2551      4.1865     -0.1791
            z      -0.0547     -0.1665      3.5283
-------------------------------------------------------------------------------
    8 Ge    x       3.9882      0.2446      0.3136
            y       0.2891      4.2182      0.1191
            z       0.0489      0.2152      3.6103
-------------------------------------------------------------------------------
    9 Ge    x       4.0597     -0.2429     -0.2722
            y      -0.2824      4.2107      0.0618
            z      -0.0193      0.2085      3.5941
-------------------------------------------------------------------------------
   10 Ge    x       3.9843     -0.1853      0.2333
            y      -0.2524      4.1974     -0.0487
            z      -0.0322     -0.1203      3.5183
-------------------------------------------------------------------------------
   11 Ge    x       4.0619      0.0894     -0.1882
            y       0.4464      4.1500     -0.0721
            z      -0.0593     -0.1739      3.5891
-------------------------------------------------------------------------------
   12 Ge    x       3.8760      0.0513      0.1643
            y       0.3977      4.2018      0.0328
            z      -0.0210      0.1357      3.5434
-------------------------------------------------------------------------------
   13 Ge    x       3.8840     -0.0896     -0.2887
            y      -0.4086      4.1865      0.1241
            z      -0.0964      0.1584      3.5286
-------------------------------------------------------------------------------
   14 Ge    x       3.9638     -0.0927      0.2390
            y      -0.4696      4.1608     -0.0762
            z       0.1161     -0.1489      3.6091
-------------------------------------------------------------------------------
   15 Ge    x       3.9818      0.0472     -0.2015
            y       0.4231      4.1908     -0.0308
            z      -0.0400     -0.1299      3.4397
-------------------------------------------------------------------------------
   16 Ge    x       4.1175      0.1266      0.2952
            y       0.4291      4.1568      0.0478
            z       0.0941      0.1460      3.4446
-------------------------------------------------------------------------------
   17 Ge    x       4.0297     -0.1888     -0.2967
            y      -0.4892      4.1303      0.0636
            z      -0.1355      0.1338      3.4499
-------------------------------------------------------------------------------
   18 Ge    x       3.9717      0.3200     -0.3842
            y       0.3265      4.1894     -0.0683
            z      -0.0812     -0.1248      3.4593
-------------------------------------------------------------------------------
   19 Ge    x       4.0107     -0.1882     -0.2781
            y      -0.1759      4.2286      0.0358
            z       0.0150      0.1748      3.4799
-------------------------------------------------------------------------------
   20 Ge    x       4.1426     -0.2436      0.3343
            y      -0.2665      4.1756     -0.0690
            z       0.0329     -0.1557      3.4292
-------------------------------------------------------------------------------
   21 Si    x       3.7952      0.1441     -0.0127
            y      -0.1718      3.6527      0.0308
            z       0.7533      0.0742      4.0934
-------------------------------------------------------------------------------
   22 Si    x       3.9110      0.1876     -0.2963
            y      -0.2422      3.6530      0.0095
            z      -0.3029     -0.1133      3.7384
-------------------------------------------------------------------------------
   23 Si    x       3.6951     -0.1121      0.2583
            y      -0.3904      3.6672     -0.2543
            z       0.0491     -0.2504      3.1635
-------------------------------------------------------------------------------
   24 Si    x       3.7093      0.2467      0.2722
            y       0.3157      3.7213      0.2393
            z       0.0177      0.2197      3.2150
-------------------------------------------------------------------------------
   25 O1    x      -2.1988     -0.9037      0.3623
            y      -0.9853     -2.2666      0.3945
            z       0.4218      0.3856     -1.6728
-------------------------------------------------------------------------------
   26 O1    x      -2.2649     -0.9555     -0.5461
            y      -1.0024     -2.3060     -0.5066
            z      -0.5050     -0.5189     -1.6866
-------------------------------------------------------------------------------
   27 O1    x      -2.2726      0.9507      0.5554
            y       1.0061     -2.3290     -0.5227
            z       0.5171     -0.5297     -1.6505
-------------------------------------------------------------------------------
   28 O3    x      -2.0650      0.8858     -0.2483
            y       0.9462     -2.2055      0.2794
            z      -0.3151      0.2871     -1.4882
-------------------------------------------------------------------------------
   29 O1    x      -2.0540     -0.8744      0.5051
            y      -0.8385     -2.4660      0.4685
            z       0.4654      0.4806     -1.6331
-------------------------------------------------------------------------------
   30 O3    x      -1.7650     -0.8035     -0.2989
            y      -0.7581     -2.4283     -0.3092
            z      -0.3598     -0.3307     -1.5038
-------------------------------------------------------------------------------
   31 O1    x      -1.9604      0.8524      0.4238
            y       0.8106     -2.4485     -0.3807
            z       0.4829     -0.4124     -1.6723
-------------------------------------------------------------------------------
   32 O1    x      -2.0080      0.8838     -0.5099
            y       0.8275     -2.4729      0.4771
            z      -0.4755      0.4856     -1.6630
-------------------------------------------------------------------------------
   33 O1    x      -2.0490      0.0174      0.9894
            y       0.0375     -1.2614      0.0077
            z       1.1923      0.0346     -3.2142
-------------------------------------------------------------------------------
   34 O3    x      -1.9499     -0.0223     -0.9873
            y      -0.0414     -1.1957     -0.0143
            z      -1.2116      0.0000     -3.0231
-------------------------------------------------------------------------------
   35 O1    x      -2.1284     -0.0640     -0.8928
            y      -0.0584     -1.3383     -0.0065
            z      -0.8397     -0.0178     -2.6278
-------------------------------------------------------------------------------
   36 O3    x      -1.8312      0.0038      0.8221
            y       0.0407     -1.2203      0.0119
            z       0.8267      0.0555     -2.7728
-------------------------------------------------------------------------------
   37 O1    x      -2.1765     -0.0580     -0.9011
            y      -0.0825     -1.2923     -0.0409
            z      -0.9287     -0.0034     -2.8137
-------------------------------------------------------------------------------
   38 O3    x      -1.9150      0.0292      0.8274
            y       0.0253     -1.2538      0.0127
            z       0.8431     -0.0007     -2.6242
-------------------------------------------------------------------------------
   39 O3    x      -1.8269     -0.7608      0.4118
            y      -0.6944     -2.4686      0.4376
            z       0.3716      0.4346     -1.4090
-------------------------------------------------------------------------------
   40 O1    x      -2.0911     -0.8872     -0.3814
            y      -0.8245     -2.4789     -0.3101
            z      -0.4122     -0.3428     -1.4532
-------------------------------------------------------------------------------
   41 O1    x      -2.0892      0.9215      0.4106
            y       0.8703     -2.5132     -0.3679
            z       0.4548     -0.3928     -1.4863
-------------------------------------------------------------------------------
   42 O3    x      -1.8950      0.8551     -0.5676
            y       0.7582     -2.3842      0.5722
            z      -0.4757      0.5728     -1.5334
-------------------------------------------------------------------------------
   43 O1    x      -2.2990     -0.9371      0.3457
            y      -1.0055     -2.3091      0.3911
            z       0.3786      0.3843     -1.5241
-------------------------------------------------------------------------------
   44 O3    x      -1.9936     -0.9012     -0.5732
            y      -0.9131     -2.3313     -0.5997
            z      -0.5078     -0.5769     -1.5550
-------------------------------------------------------------------------------
   45 O3    x      -2.1556      0.8972      0.4876
            y       0.9134     -2.2001     -0.4554
            z       0.4296     -0.4439     -1.4396
-------------------------------------------------------------------------------
   46 O1    x      -2.3091      0.9405     -0.2944
            y       0.9823     -2.2711      0.3097
            z      -0.3541      0.3402     -1.4761
-------------------------------------------------------------------------------
   47 O3    x      -2.0680     -0.0782     -0.7720
            y      -0.0804     -1.2933     -0.0434
            z      -0.5380      0.0012     -2.1557
-------------------------------------------------------------------------------
   48 O1    x      -2.2964      0.0267      0.8015
            y       0.0375     -1.3472      0.0219
            z       0.5280      0.0359     -2.2056
-------------------------------------------------------------------------------
   49 O1    x      -1.3151      0.1701      0.0736
            y       0.2576     -3.2481      0.0150
            z       0.0272     -0.0035     -1.3713
-------------------------------------------------------------------------------
   50 O1    x      -1.3320      0.1639     -0.0747
            y       0.2496     -3.2095     -0.0125
            z      -0.0355     -0.0087     -1.3734
-------------------------------------------------------------------------------
   51 O1    x      -1.3535     -0.1527      0.0673
            y      -0.2295     -3.1868      0.0211
            z       0.0250      0.0090     -1.3859
-------------------------------------------------------------------------------
   52 O1    x      -1.3267     -0.1518     -0.0762
            y      -0.2412     -3.2748      0.0359
            z      -0.0323      0.0139     -1.3838
-------------------------------------------------------------------------------
   53 O1    x      -3.0201     -0.2252     -0.0143
            y      -0.1417     -1.5665      0.0404
            z      -0.0519      0.0577     -1.2270
-------------------------------------------------------------------------------
   54 O1    x      -3.0301     -0.2219     -0.0063
            y      -0.1635     -1.5725     -0.0346
            z      -0.0219     -0.0623     -1.2274
-------------------------------------------------------------------------------
   55 O1    x      -3.1193      0.2050     -0.0390
            y       0.1034     -1.5499     -0.0056
            z      -0.0507     -0.0428     -1.2139
-------------------------------------------------------------------------------
   56 O1    x      -3.1225      0.2172     -0.0354
            y       0.1698     -1.5600      0.0301
            z      -0.0120      0.0595     -1.2156
-------------------------------------------------------------------------------
   57 O3    x      -1.3453     -0.1073      0.0678
            y      -0.1259     -1.3945      0.1266
            z       0.0401      0.0927     -2.5635
-------------------------------------------------------------------------------
   58 O1    x      -1.4977     -0.1062     -0.0205
            y      -0.1242     -1.4252     -0.0273
            z       0.0197     -0.0236     -2.7059
-------------------------------------------------------------------------------
   59 O1    x      -1.4931      0.0865     -0.0231
            y       0.0940     -1.4279     -0.0047
            z      -0.0143     -0.0047     -2.7145
-------------------------------------------------------------------------------
   60 O1    x      -1.4396      0.0858      0.0257
            y       0.1027     -1.4414     -0.0021
            z       0.0177     -0.0095     -2.7713
-------------------------------------------------------------------------------
   61 O1    x      -1.4912     -0.0477     -0.0228
            y      -0.1053     -1.4147     -0.0123
            z      -0.0350     -0.0061     -2.7487
-------------------------------------------------------------------------------
   62 O1    x      -1.4833     -0.0541      0.0710
            y      -0.1311     -1.4201     -0.0070
            z       0.0616     -0.0230     -2.7589
-------------------------------------------------------------------------------
   63 O3    x      -1.4048      0.0817      0.0993
            y       0.1468     -1.3574     -0.0604
            z       0.0678     -0.0241     -2.5317
-------------------------------------------------------------------------------
   64 O1    x      -1.4930      0.0595     -0.0349
            y       0.1288     -1.4050      0.0099
            z      -0.0000     -0.0041     -2.7447
-------------------------------------------------------------------------------
   65 O1    x      -1.3755     -0.1656      0.1009
            y      -0.2751     -3.2700      0.0011
            z       0.0523      0.0060     -1.3415
-------------------------------------------------------------------------------
   66 O1    x      -1.3871     -0.1734     -0.0838
            y      -0.2571     -3.1556      0.0282
            z      -0.0298      0.0093     -1.3423
-------------------------------------------------------------------------------
   67 O1    x      -1.3894      0.1357      0.1273
            y       0.2142     -3.1604     -0.0032
            z       0.0750     -0.0050     -1.3223
-------------------------------------------------------------------------------
   68 O2    x      -1.2011      0.1077     -0.0715
            y       0.1679     -2.5412     -0.0094
            z      -0.0295     -0.0146     -1.0948
-------------------------------------------------------------------------------
   69 O1    x      -3.1605      0.2084     -0.0299
            y       0.1046     -1.5316      0.0192
            z       0.0014      0.0481     -1.1856
-------------------------------------------------------------------------------
   70 O1    x      -3.1795      0.2331     -0.0261
            y       0.1925     -1.5626     -0.0098
            z      -0.0215     -0.0477     -1.1876
-------------------------------------------------------------------------------
   71 O3    x      -2.9932     -0.0913      0.0697
            y      -0.0102     -1.4475     -0.0219
            z       0.0858     -0.0414     -1.1131
-------------------------------------------------------------------------------
   72 O3    x      -2.9201     -0.2985      0.0605
            y      -0.2490     -1.4967      0.0257
            z       0.0339      0.0426     -1.1088
-------------------------------------------------------------------------------




  Elastic Constant Matrix: (Units=GPa)

-------------------------------------------------------------------------------
  Indices      1         2         3         4         5         6    
-------------------------------------------------------------------------------
       1     38.3314   17.6948   16.0133    0.3583    0.6350   -0.0794
       2     17.6948   32.3487   15.8038    0.6893    0.7748   -0.3329
       3     16.0133   15.8038   16.7555    0.2458   -0.2740    0.5182
       4      0.3583    0.6893    0.2458    7.5630    0.2503    0.0775
       5      0.6350    0.7748   -0.2740    0.2503   15.3425   -0.7167
       6     -0.0794   -0.3329    0.5182    0.0775   -0.7167   16.8689
-------------------------------------------------------------------------------


  Elastic Compliance Matrix: (Units=1/GPa)

-------------------------------------------------------------------------------
  Indices      1         2         3         4         5         6    
-------------------------------------------------------------------------------
       1    0.044257 -0.006390 -0.036334 -0.000275 -0.002101  0.001110
       2   -0.006390  0.058689 -0.049333 -0.003355 -0.003408  0.002514
       3   -0.036334 -0.049333  0.141180  0.001475  0.006248 -0.005223
       4   -0.000275 -0.003355  0.001475  0.132568 -0.001993 -0.000806
       5   -0.002101 -0.003408  0.006248 -0.001993  0.065700  0.002531
       6    0.001110  0.002514 -0.005223 -0.000806  0.002531  0.059607
-------------------------------------------------------------------------------

  Mechanical properties :

-------------------------------------------------------------------------------
  Convention :                    Reuss         Voigt         Hill
-------------------------------------------------------------------------------
  Bulk  Modulus (GPa)     =      16.66347      20.71770      18.69059
  Shear Modulus (GPa)     =       7.08097      10.48312       8.78205
-------------------------------------------------------------------------------
  Velocity S-wave (km/s)  =       1.63054       1.98395       1.81587
  Velocity P-wave (km/s)  =       3.13073       3.60928       3.37849
-------------------------------------------------------------------------------
  Compressibility (1/GPa) =    0.06001151
-------------------------------------------------------------------------------
  Stress axis :                     x             y             z
-------------------------------------------------------------------------------
  Youngs Moduli (GPa)     =      22.59552      17.03902       7.08317
-------------------------------------------------------------------------------
  Poissons Ratio (x)      =                     0.10888       0.25736
  Poissons Ratio (y)      =       0.14438                     0.34943
  Poissons Ratio (z)      =       0.82098       0.84058
-------------------------------------------------------------------------------


  Piezoelectric Strain Matrix: (Units=C/m**2)

-------------------------------------------------------------------------------
  Indices      1         2         3         4         5         6    
-------------------------------------------------------------------------------
       x     0.01271   0.10695   0.42031  -0.05353   0.09362  -0.19233
       y    -0.42443  -0.28064  -0.03261   0.22313   0.33295  -0.35594
       z     0.16825  -0.17725  -0.04345  -0.00401  -0.23286  -0.11622
-------------------------------------------------------------------------------


  Piezoelectric Stress Matrix: (Units=10**-11 C/N)

-------------------------------------------------------------------------------
  Indices      1         2         3         4         5         6    
-------------------------------------------------------------------------------
       x    -1.57880  -1.51623   5.51113  -0.68701   0.80054  -1.30962
       y    -1.69619  -1.49282   2.89308   3.02143   2.21735  -2.15605
       z     1.05188  -0.88195  -0.43567   0.05111  -1.56061  -0.75458
-------------------------------------------------------------------------------


  Static dielectric constant tensor : 

-------------------------------------------------------------------------------
              x         y         z
-------------------------------------------------------------------------------
       x     5.28550   0.00019  -0.02456
       y     0.00019   6.07615   0.10002
       z    -0.02456   0.10002   4.07068
--------------------------------------------------------------------------------

  High frequency dielectric constant tensor : 

-------------------------------------------------------------------------------
              x         y         z
-------------------------------------------------------------------------------
       x     1.53511   0.00013   0.00027
       y     0.00013   1.53721   0.00038
       z     0.00027   0.00038   1.49521
-------------------------------------------------------------------------------

  Static refractive indices : 

-------------------------------------------------------------------------------
    1 =    2.01624      2 =    2.29913      3 =    2.46599
-------------------------------------------------------------------------------

  High frequency refractive indices : 

-------------------------------------------------------------------------------
    1 =    1.22279      2 =    1.23899      3 =    1.23985
-------------------------------------------------------------------------------


  Time to end of optimisation =      11.1349 seconds


  Peak dynamic memory used =       5.01 MB 


  Timing analysis for GULP :

--------------------------------------------------------------------------------
  Task / Subroutine                                          Time (Seconds)
--------------------------------------------------------------------------------
  Calculation of reciprocal space energy and derivatives          0.8045
  Calculation of real space energy and derivatives                7.7280
  Calculation of three-body energy and derivatives                0.1044
  Calculation and manipulation of Hessian matrix                  2.9692
  Calculation of matrix inversion                                 0.0520
  Global summation overhead                                       0.0001
--------------------------------------------------------------------------------
  Total CPU time                                                 11.1349
--------------------------------------------------------------------------------


  Dump file written as c01155.vasp.grs
  CIF file written as c01155.vasp.cif


  Job Finished at 15:14.30 31st October    2025                               

