********************************************************************************
*                       GENERAL UTILITY LATTICE PROGRAM                        *
*                                 Julian Gale                                  *
*                       Curtin Institute for Computation                       *
*                    School of Molecular and Life Sciences                     *
*                    Curtin University, Western Australia                      *
********************************************************************************
* Version = 6.1.2 * Last modified =   3rd November 2022                        *
********************************************************************************
*  optimise     - perform optimisation run                                     *
*  conp         - constant pressure calculation                                *
*  property     - calculate properties for final geometry                      *
********************************************************************************

  Job Started  at 15:36.42 31st October    2025                               

  Number of CPUs =     1


  Total number of configurations input =      1

********************************************************************************
*  Input for Configuration =   1 : c01297.vasp                                 *
********************************************************************************

  Formula = Ge20Si4O48                                                  

  Number of irreducible atoms/shells =     120


  Total number atoms/shells =     120

  Dimensionality = 3               :  Bulk   



  Cartesian lattice vectors (Angstroms) :

       17.182800    0.000000    0.000000
        0.000000    7.513760    0.000000
        0.000000    0.000000   10.447700

  Cell parameters (Angstroms/Degrees):

  a =      17.1828    alpha =  90.0000
  b =       7.5138    beta  =  90.0000
  c =      10.4477    gamma =  90.0000

  Initial cell volume =        1348.875752 Angs**3

  Temperature of configuration =   0.00     K 

  Pressure of configuration =         0.000 GPa 

  Fractional coordinates of asymmetric unit :

--------------------------------------------------------------------------------
   No.  Atomic       x           y          z         Charge      Occupancy
        Label      (Frac)      (Frac)     (Frac)        (e)         (Frac)  
--------------------------------------------------------------------------------
      1 Ge    c    0.052090    0.000000    0.372270     4.00000    1.000000    
      2 Ge    c    0.947910 *  0.000000 *  0.627730 *   4.00000    1.000000    
      3 Ge    c    0.556730 *  0.000000 *  0.122130 *   4.00000    1.000000    
      4 Ge    c    0.943270 *  0.000000 *  0.122130 *   4.00000    1.000000    
      5 Ge    c    0.443270 *  0.000000 *  0.877870 *   4.00000    1.000000    
      6 Ge    c    0.056730 *  0.000000 *  0.877870 *   4.00000    1.000000    
      7 Ge    c    0.160190 *  0.293910 *  0.273440 *   4.00000    1.000000    
      8 Ge    c    0.339810 *  0.706090 *  0.273440 *   4.00000    1.000000    
      9 Ge    c    0.839810 *  0.293910 *  0.726560 *   4.00000    1.000000    
     10 Ge    c    0.660190 *  0.706090 *  0.726560 *   4.00000    1.000000    
     11 Ge    c    0.839810 *  0.706090 *  0.726560 *   4.00000    1.000000    
     12 Ge    c    0.660190 *  0.293910 *  0.726560 *   4.00000    1.000000    
     13 Ge    c    0.160190 *  0.706090 *  0.273440 *   4.00000    1.000000    
     14 Ge    c    0.339810 *  0.293910 *  0.273440 *   4.00000    1.000000    
     15 Ge    c    0.660660 *  0.294090 *  0.017440 *   4.00000    1.000000    
     16 Ge    c    0.839340 *  0.705910 *  0.017440 *   4.00000    1.000000    
     17 Ge    c    0.339340 *  0.294090 *  0.982560 *   4.00000    1.000000    
     18 Ge    c    0.160660 *  0.705910 *  0.982560 *   4.00000    1.000000    
     19 Ge    c    0.160660 *  0.294090 *  0.982560 *   4.00000    1.000000    
     20 Ge    c    0.839340 *  0.294090 *  0.017440 *   4.00000    1.000000    
     21 Si    c    0.447910 *  0.000000 *  0.372270 *   4.00000    1.000000    
     22 Si    c    0.552090 *  0.000000 *  0.627730 *   4.00000    1.000000    
     23 Si    c    0.339340 *  0.705910 *  0.982560 *   4.00000    1.000000    
     24 Si    c    0.660660 *  0.705910 *  0.017440 *   4.00000    1.000000    
     25 O1    c    0.106570 *  0.174340 *  0.366200 *   1.73396    1.000000    
     26 O3    c    0.393430 *  0.825660 *  0.366200 *   1.33043    1.000000    
     27 O1    c    0.893430 *  0.174340 *  0.633800 *   1.73396    1.000000    
     28 O3    c    0.606570 *  0.825660 *  0.633800 *   1.33043    1.000000    
     29 O1    c    0.893430 *  0.825660 *  0.633800 *   1.73396    1.000000    
     30 O3    c    0.606570 *  0.174340 *  0.633800 *   1.33043    1.000000    
     31 O1    c    0.106570 *  0.825660 *  0.366200 *   1.73396    1.000000    
     32 O3    c    0.393430 *  0.174340 *  0.366200 *   1.33043    1.000000    
     33 O1    c    0.000000 *  0.000000 *  0.500000 *   1.73396    1.000000    
     34 O2    c    0.500000 *  0.000000 *  0.500000 *   0.87073    1.000000    
     35 O1    c    0.994520 *  0.000000 *  0.250840 *   1.73396    1.000000    
     36 O3    c    0.505480 *  0.000000 *  0.250840 *   1.33043    1.000000    
     37 O1    c    0.005480 *  0.000000 *  0.749160 *   1.73396    1.000000    
     38 O3    c    0.494520 *  0.000000 *  0.749160 *   1.33043    1.000000    
     39 O1    c    0.610230 *  0.175520 *  0.115390 *   1.73396    1.000000    
     40 O1    c    0.889770 *  0.824480 *  0.115390 *   1.73396    1.000000    
     41 O1    c    0.389770 *  0.175520 *  0.884610 *   1.73396    1.000000    
     42 O1    c    0.110230 *  0.824480 *  0.884610 *   1.73396    1.000000    
     43 O3    c    0.389770 *  0.824480 *  0.884610 *   1.33043    1.000000    
     44 O1    c    0.110230 *  0.175520 *  0.884610 *   1.73396    1.000000    
     45 O3    c    0.610230 *  0.824480 *  0.115390 *   1.33043    1.000000    
     46 O1    c    0.889770 *  0.175520 *  0.115390 *   1.73396    1.000000    
     47 O1    c    0.500000 *  0.000000 *  0.000000 *   1.73396    1.000000    
     48 O1    c    0.000000 *  0.000000 *  0.000000 *   1.73396    1.000000    
     49 O1    c    0.151750 *  0.500000 *  0.313330 *   1.73396    1.000000    
     50 O1    c    0.348250 *  0.500000 *  0.313330 *   1.73396    1.000000    
     51 O1    c    0.848250 *  0.500000 *  0.686670 *   1.73396    1.000000    
     52 O1    c    0.651750 *  0.500000 *  0.686670 *   1.73396    1.000000    
     53 O1    c    0.250000 *  0.234950 *  0.285720 *   1.73396    1.000000    
     54 O1    c    0.250000 *  0.765050 *  0.285720 *   1.73396    1.000000    
     55 O1    c    0.750000 *  0.234950 *  0.714280 *   1.73396    1.000000    
     56 O1    c    0.750000 *  0.765050 *  0.714280 *   1.73396    1.000000    
     57 O1    c    0.131410 *  0.268650 *  0.127790 *   1.73396    1.000000    
     58 O3    c    0.368590 *  0.731350 *  0.127790 *   1.33043    1.000000    
     59 O1    c    0.868590 *  0.268650 *  0.872210 *   1.73396    1.000000    
     60 O3    c    0.631410 *  0.731350 *  0.872210 *   1.33043    1.000000    
     61 O1    c    0.868590 *  0.731350 *  0.872210 *   1.73396    1.000000    
     62 O1    c    0.631410 *  0.268650 *  0.872210 *   1.73396    1.000000    
     63 O1    c    0.131410 *  0.731350 *  0.127790 *   1.73396    1.000000    
     64 O1    c    0.368590 *  0.268650 *  0.127790 *   1.73396    1.000000    
     65 O3    c    0.653920 *  0.500000 *  0.058200 *   1.33043    1.000000    
     66 O1    c    0.846080 *  0.500000 *  0.058200 *   1.73396    1.000000    
     67 O3    c    0.346080 *  0.500000 *  0.941800 *   1.33043    1.000000    
     68 O1    c    0.153920 *  0.500000 *  0.941800 *   1.73396    1.000000    
     69 O1    c    0.750000 *  0.231060 *  0.027050 *   1.73396    1.000000    
     70 O3    c    0.750000 *  0.768940 *  0.027050 *   1.33043    1.000000    
     71 O1    c    0.250000 *  0.231060 *  0.972950 *   1.73396    1.000000    
     72 O3    c    0.250000 *  0.768940 *  0.972950 *   1.33043    1.000000    
     73 O1    s    0.106570 *  0.174340 *  0.366200 *  -3.73396    1.000000    
     74 O3    s    0.393430 *  0.825660 *  0.366200 *  -3.33043    1.000000    
     75 O1    s    0.893430 *  0.174340 *  0.633800 *  -3.73396    1.000000    
     76 O3    s    0.606570 *  0.825660 *  0.633800 *  -3.33043    1.000000    
     77 O1    s    0.893430 *  0.825660 *  0.633800 *  -3.73396    1.000000    
     78 O3    s    0.606570 *  0.174340 *  0.633800 *  -3.33043    1.000000    
     79 O1    s    0.106570 *  0.825660 *  0.366200 *  -3.73396    1.000000    
     80 O3    s    0.393430 *  0.174340 *  0.366200 *  -3.33043    1.000000    
     81 O1    s    0.000000 *  0.000000 *  0.500000 *  -3.73396    1.000000    
     82 O2    s    0.500000 *  0.000000 *  0.500000 *  -2.87073    1.000000    
     83 O1    s    0.994520 *  0.000000 *  0.250840 *  -3.73396    1.000000    
     84 O3    s    0.505480 *  0.000000 *  0.250840 *  -3.33043    1.000000    
     85 O1    s    0.005480 *  0.000000 *  0.749160 *  -3.73396    1.000000    
     86 O3    s    0.494520 *  0.000000 *  0.749160 *  -3.33043    1.000000    
     87 O1    s    0.610230 *  0.175520 *  0.115390 *  -3.73396    1.000000    
     88 O1    s    0.889770 *  0.824480 *  0.115390 *  -3.73396    1.000000    
     89 O1    s    0.389770 *  0.175520 *  0.884610 *  -3.73396    1.000000    
     90 O1    s    0.110230 *  0.824480 *  0.884610 *  -3.73396    1.000000    
     91 O3    s    0.389770 *  0.824480 *  0.884610 *  -3.33043    1.000000    
     92 O1    s    0.110230 *  0.175520 *  0.884610 *  -3.73396    1.000000    
     93 O3    s    0.610230 *  0.824480 *  0.115390 *  -3.33043    1.000000    
     94 O1    s    0.889770 *  0.175520 *  0.115390 *  -3.73396    1.000000    
     95 O1    s    0.500000 *  0.000000 *  0.000000 *  -3.73396    1.000000    
     96 O1    s    0.000000 *  0.000000 *  0.000000 *  -3.73396    1.000000    
     97 O1    s    0.151750 *  0.500000 *  0.313330 *  -3.73396    1.000000    
     98 O1    s    0.348250 *  0.500000 *  0.313330 *  -3.73396    1.000000    
     99 O1    s    0.848250 *  0.500000 *  0.686670 *  -3.73396    1.000000    
    100 O1    s    0.651750 *  0.500000 *  0.686670 *  -3.73396    1.000000    
    101 O1    s    0.250000 *  0.234950 *  0.285720 *  -3.73396    1.000000    
    102 O1    s    0.250000 *  0.765050 *  0.285720 *  -3.73396    1.000000    
    103 O1    s    0.750000 *  0.234950 *  0.714280 *  -3.73396    1.000000    
    104 O1    s    0.750000 *  0.765050 *  0.714280 *  -3.73396    1.000000    
    105 O1    s    0.131410 *  0.268650 *  0.127790 *  -3.73396    1.000000    
    106 O3    s    0.368590 *  0.731350 *  0.127790 *  -3.33043    1.000000    
    107 O1    s    0.868590 *  0.268650 *  0.872210 *  -3.73396    1.000000    
    108 O3    s    0.631410 *  0.731350 *  0.872210 *  -3.33043    1.000000    
    109 O1    s    0.868590 *  0.731350 *  0.872210 *  -3.73396    1.000000    
    110 O1    s    0.631410 *  0.268650 *  0.872210 *  -3.73396    1.000000    
    111 O1    s    0.131410 *  0.731350 *  0.127790 *  -3.73396    1.000000    
    112 O1    s    0.368590 *  0.268650 *  0.127790 *  -3.73396    1.000000    
    113 O3    s    0.653920 *  0.500000 *  0.058200 *  -3.33043    1.000000    
    114 O1    s    0.846080 *  0.500000 *  0.058200 *  -3.73396    1.000000    
    115 O3    s    0.346080 *  0.500000 *  0.941800 *  -3.33043    1.000000    
    116 O1    s    0.153920 *  0.500000 *  0.941800 *  -3.73396    1.000000    
    117 O1    s    0.750000 *  0.231060 *  0.027050 *  -3.73396    1.000000    
    118 O3    s    0.750000 *  0.768940 *  0.027050 *  -3.33043    1.000000    
    119 O1    s    0.250000 *  0.231060 *  0.972950 *  -3.73396    1.000000    
    120 O3    s    0.250000 *  0.768940 *  0.972950 *  -3.33043    1.000000    
--------------------------------------------------------------------------------



********************************************************************************
*  General input information                                                   *
********************************************************************************

  Species output for all configurations : 

--------------------------------------------------------------------------------
  Species    Type    Atomic    Atomic    Charge       Radii (Angs)     Library
                     Number     Mass       (e)     Cova   Ionic  VDW   Symbol
--------------------------------------------------------------------------------
    Ge       Core       32      72.61   4.000000   1.170  0.000  1.750 Ge       
    Si       Core       14      28.09   4.000000   1.200  0.000  2.100 Si       
    O1       Core        8      16.00   1.733957   0.730  0.000  1.360 O1       
    O2       Core        8      16.00   0.870733   0.730  0.000  1.360 O2       
    O3       Core        8      16.00   1.330431   0.730  0.000  1.360 O3       
    O1       Shell       8       0.00  -3.733957   0.730  0.000  0.000 O1       
    O2       Shell       8       0.00  -2.870733   0.730  0.000  0.000 O2       
    O3       Shell       8       0.00  -3.330431   0.730  0.000  0.000 O3       
--------------------------------------------------------------------------------


  Lattice summation method               =    Ewald          (3-D)
                                         =    Parry          (2-D)
                                         =    Saunders et al (1-D)
  Accuracy factor for lattice sums       =   12.000


  Analytic derivatives to be used

  Time limit = Infinity

  Maximum range for interatomic potentials =    100000.000000 Angstroms

  General interatomic potentials :

--------------------------------------------------------------------------------
Atom  Types   Potential      Parameter       Value         Units   Cutoffs(Ang)
  1     2                                                            Min /  Max 
--------------------------------------------------------------------------------
Si   c O1   s Buckingham    Buckingham A     1315.2478    eV        0.000 16.000
                            Buckingham rho  0.31775900    Ang       
                            Buckingham C     10.141118    eV*Ang^6  
--------------------------------------------------------------------------------
Si   c O2   s Buckingham    Buckingham A     1315.2478    eV        0.000 16.000
                            Buckingham rho  0.31775900    Ang       
                            Buckingham C     10.141118    eV*Ang^6  
--------------------------------------------------------------------------------
Si   c O3   s Buckingham    Buckingham A     1315.2478    eV        0.000 16.000
                            Buckingham rho  0.31775900    Ang       
                            Buckingham C     10.141118    eV*Ang^6  
--------------------------------------------------------------------------------
Ge   c O1   s Buckingham    Buckingham A     1497.3996    eV        0.000 16.000
                            Buckingham rho  0.32564600    Ang       
                            Buckingham C     16.808599    eV*Ang^6  
--------------------------------------------------------------------------------
Ge   c O2   s Buckingham    Buckingham A     1497.3996    eV        0.000 16.000
                            Buckingham rho  0.32564600    Ang       
                            Buckingham C     16.808599    eV*Ang^6  
--------------------------------------------------------------------------------
Ge   c O3   s Buckingham    Buckingham A     1497.3996    eV        0.000 16.000
                            Buckingham rho  0.32564600    Ang       
                            Buckingham C     16.808599    eV*Ang^6  
--------------------------------------------------------------------------------
O1   s O1   s Buckingham    Buckingham A     22764.000    eV        0.000 16.000
                            Buckingham rho  0.14900000    Ang       
                            Buckingham C     10.937044    eV*Ang^6  
--------------------------------------------------------------------------------
O1   s O2   s Buckingham    Buckingham A     22764.000    eV        0.000 16.000
                            Buckingham rho  0.14900000    Ang       
                            Buckingham C     10.937044    eV*Ang^6  
--------------------------------------------------------------------------------
O1   s O3   s Buckingham    Buckingham A     22764.000    eV        0.000 16.000
                            Buckingham rho  0.14900000    Ang       
                            Buckingham C     10.937044    eV*Ang^6  
--------------------------------------------------------------------------------
O2   s O2   s Buckingham    Buckingham A     22764.000    eV        0.000 16.000
                            Buckingham rho  0.14900000    Ang       
                            Buckingham C     10.937044    eV*Ang^6  
--------------------------------------------------------------------------------
O2   s O3   s Buckingham    Buckingham A     22764.000    eV        0.000 16.000
                            Buckingham rho  0.14900000    Ang       
                            Buckingham C     10.937044    eV*Ang^6  
--------------------------------------------------------------------------------
O3   s O3   s Buckingham    Buckingham A     22764.000    eV        0.000 16.000
                            Buckingham rho  0.14900000    Ang       
                            Buckingham C     10.937044    eV*Ang^6  
--------------------------------------------------------------------------------
O1   c O1   s Spring (c-s)  Spring k 2       180.31577    eV*Ang^-2 0.000  0.800
                            Spring k 4       0.0000000    eV*Ang^-4 
--------------------------------------------------------------------------------
O2   c O2   s Spring (c-s)  Spring k 2       75.969800    eV*Ang^-2 0.000  0.800
                            Spring k 4       0.0000000    eV*Ang^-4 
--------------------------------------------------------------------------------
O3   c O3   s Spring (c-s)  Spring k 2       128.14270    eV*Ang^-2 0.000  0.800
                            Spring k 4       0.0000000    eV*Ang^-4 
--------------------------------------------------------------------------------

  General Three-body potentials :

--------------------------------------------------------------------------------
  Atoms       Potential      Parameter       Value         Units   Cutoffs(Ang)
  1 / 2 / 3                                                          Min /  Max 
--------------------------------------------------------------------------------
Si    core    Harmonic      Three-body cnst  1.2614000    eV*rad^-2 0.000  1.900
O1    shel                  Three-body angl  109.47000    degrees   0.000  1.900
O1    shel                  Three-body k4    0.0000000    eV*rad^-4 0.000  3.500
                            Three-body k3    0.0000000    eV*rad^-3 
--------------------------------------------------------------------------------
Si    core    Harmonic      Three-body cnst  1.2614000    eV*rad^-2 0.000  1.900
O1    shel                  Three-body angl  109.47000    degrees   0.000  1.900
õ(1   shel                  Three-body k4    0.0000000    eV*rad^-4 0.000  3.500
                            Three-body k3    0.0000000    eV*rad^-3 
--------------------------------------------------------------------------------
Si    core    Harmonic      Three-body cnst  1.2614000    eV*rad^-2 0.000  1.900
õ(1   shel                  Three-body angl  109.47000    degrees   0.000  1.900
õ(1   shel                  Three-body k4    0.0000000    eV*rad^-4 0.000  3.500
                            Three-body k3    0.0000000    eV*rad^-3 
--------------------------------------------------------------------------------
Si    core    Harmonic      Three-body cnst  1.2614000    eV*rad^-2 0.000  1.900
O1    shel                  Three-body angl  109.47000    degrees   0.000  1.900
O2    shel                  Three-body k4    0.0000000    eV*rad^-4 0.000  3.500
                            Three-body k3    0.0000000    eV*rad^-3 
--------------------------------------------------------------------------------
Si    core    Harmonic      Three-body cnst  1.2614000    eV*rad^-2 0.000  1.900
O1    shel                  Three-body angl  109.47000    degrees   0.000  1.900
õ(2   shel                  Three-body k4    0.0000000    eV*rad^-4 0.000  3.500
                            Three-body k3    0.0000000    eV*rad^-3 
--------------------------------------------------------------------------------
Si    core    Harmonic      Three-body cnst  1.2614000    eV*rad^-2 0.000  1.900
O2    shel                  Three-body angl  109.47000    degrees   0.000  1.900
õ(1   shel                  Three-body k4    0.0000000    eV*rad^-4 0.000  3.500
                            Three-body k3    0.0000000    eV*rad^-3 
--------------------------------------------------------------------------------
Si    core    Harmonic      Three-body cnst  1.2614000    eV*rad^-2 0.000  1.900
õ(1   shel                  Three-body angl  109.47000    degrees   0.000  1.900
õ(2   shel                  Three-body k4    0.0000000    eV*rad^-4 0.000  3.500
                            Three-body k3    0.0000000    eV*rad^-3 
--------------------------------------------------------------------------------
Si    core    Harmonic      Three-body cnst  1.2614000    eV*rad^-2 0.000  1.900
O2    shel                  Three-body angl  109.47000    degrees   0.000  1.900
O2    shel                  Three-body k4    0.0000000    eV*rad^-4 0.000  3.500
                            Three-body k3    0.0000000    eV*rad^-3 
--------------------------------------------------------------------------------
Si    core    Harmonic      Three-body cnst  1.2614000    eV*rad^-2 0.000  1.900
O2    shel                  Three-body angl  109.47000    degrees   0.000  1.900
õ(2   shel                  Three-body k4    0.0000000    eV*rad^-4 0.000  3.500
                            Three-body k3    0.0000000    eV*rad^-3 
--------------------------------------------------------------------------------
Si    core    Harmonic      Three-body cnst  1.2614000    eV*rad^-2 0.000  1.900
õ(2   shel                  Three-body angl  109.47000    degrees   0.000  1.900
õ(2   shel                  Three-body k4    0.0000000    eV*rad^-4 0.000  3.500
                            Three-body k3    0.0000000    eV*rad^-3 
--------------------------------------------------------------------------------

********************************************************************************
*  Output for configuration   1 : c01297.vasp                                  *
********************************************************************************


  Components of energy : 

--------------------------------------------------------------------------------
  Interatomic potentials     =         896.59067192 eV    
  Three-body potentials      =           0.00000000 eV    
  Monopole - monopole (real) =       -2676.00317478 eV    
  Monopole - monopole (recip)=       -1115.35404472 eV    
  Monopole - monopole (total)=       -3791.35721950 eV    
--------------------------------------------------------------------------------
  Total lattice energy       =       -2894.76654758 eV    
--------------------------------------------------------------------------------
  Total lattice energy       =         -279300.7213 kJ/(mole unit cells)
--------------------------------------------------------------------------------


  Number of variables =      363

  Maximum number of calculations  =          1000
  Maximum Hessian update interval =            10
  Maximum step size               =   0.100000000
  Maximum parameter tolerance     =   0.000010000
  Maximum function  tolerance     =   0.000010000
  Maximum gradient  tolerance     =   0.001000000
  Maximum gradient  component     =   0.010000000

  Symmetry not applied to optimisation

  Cell parameters to be optimised using strains

  Newton-Raphson optimiser to be used

  BFGS hessian update to be used

  Lower half triangular hessian to be used

  Minimiser to switch to RFO
  When gradient norm is less than     0.050000

  Dumpfile to be written after every cycle

  Start of bulk optimisation :

  Cycle:      0 Energy:     -2894.766548  Gnorm:      5.890882  CPU:    0.094
  ** Hessian calculated **
  Cycle:      1 Energy:     -2938.306233  Gnorm:      1.416294  CPU:    0.214
  ** Hessian calculated **
  Cycle:      2 Energy:     -2943.274776  Gnorm:      0.813629  CPU:    0.398
  Cycle:      3 Energy:     -2944.229600  Gnorm:      0.385020  CPU:    0.482
  Cycle:      4 Energy:     -2944.731500  Gnorm:      0.309285  CPU:    0.581
  Cycle:      5 Energy:     -2945.334351  Gnorm:      0.258186  CPU:    0.680
  Cycle:      6 Energy:     -2945.969016  Gnorm:      0.216760  CPU:    0.778
  Cycle:      7 Energy:     -2946.282651  Gnorm:      0.155159  CPU:    0.862
  Cycle:      8 Energy:     -2946.392683  Gnorm:      0.109653  CPU:    0.945
  Cycle:      9 Energy:     -2946.429547  Gnorm:      0.081187  CPU:    1.028
  Cycle:     10 Energy:     -2946.460583  Gnorm:      0.073313  CPU:    1.127
  Cycle:     11 Energy:     -2946.488534  Gnorm:      0.071514  CPU:    1.226
  ** Hessian calculated **
  Cycle:     12 Energy:     -2946.498879  Gnorm:      0.070996  CPU:    1.406
  Cycle:     13 Energy:     -2946.518936  Gnorm:      0.069917  CPU:    1.520
  Cycle:     14 Energy:     -2946.566490  Gnorm:      0.066918  CPU:    1.634
  Cycle:     15 Energy:     -2946.631332  Gnorm:      0.062344  CPU:    1.733
  Cycle:     16 Energy:     -2946.737340  Gnorm:      0.053198  CPU:    1.847
  Cycle:     17 Energy:     -2946.786355  Gnorm:      0.050174  CPU:    1.947
  Cycle:     18 Energy:     -2946.839857  Gnorm:      0.042724  CPU:    2.046
  ** Hessian has wrong structure
  ** Imaginary eigenvectors =   7
  Cycle:     19 Energy:     -2946.917279  Gnorm:      0.122811  CPU:    2.271
  ** Hessian has wrong structure
  ** Imaginary eigenvectors =   4
  ** Hessian has wrong structure
  ** Imaginary eigenvectors =   3
  Cycle:     20 Energy:     -2947.029418  Gnorm:      0.139971  CPU:    2.717
  ** Hessian has wrong structure
  ** Imaginary eigenvectors =   2
  ** Hessian has wrong structure
  ** Imaginary eigenvectors =   1
  Cycle:     21 Energy:     -2947.068547  Gnorm:      0.143884  CPU:    3.163
  ** Hessian has required structure
  Cycle:     22 Energy:     -2947.444662  Gnorm:      0.091948  CPU:    3.388
  ** Hessian has required structure
  Cycle:     23 Energy:     -2947.584711  Gnorm:      0.052801  CPU:    3.524
  ** Hessian has required structure
  Cycle:     24 Energy:     -2947.671089  Gnorm:      0.047512  CPU:    3.659
  ** Hessian has required structure
  Cycle:     25 Energy:     -2947.703831  Gnorm:      0.044787  CPU:    3.795
  ** Hessian has required structure
  Cycle:     26 Energy:     -2947.730643  Gnorm:      0.025585  CPU:    3.929
  ** Hessian has required structure
  Cycle:     27 Energy:     -2947.738021  Gnorm:      0.026969  CPU:    4.064
  ** Hessian has required structure
  Cycle:     28 Energy:     -2947.743138  Gnorm:      0.025385  CPU:    4.199
  ** Hessian has required structure
  Cycle:     29 Energy:     -2947.746754  Gnorm:      0.013766  CPU:    4.333
  ** Hessian has required structure
  Cycle:     30 Energy:     -2947.748938  Gnorm:      0.011015  CPU:    4.537
  ** Hessian has required structure
  Cycle:     31 Energy:     -2947.750523  Gnorm:      0.008379  CPU:    4.689
  ** Hessian has required structure
  Cycle:     32 Energy:     -2947.752451  Gnorm:      0.006489  CPU:    4.925
  ** Hessian has required structure
  Cycle:     33 Energy:     -2947.754263  Gnorm:      0.004587  CPU:    5.076
  ** Hessian has required structure
  Cycle:     34 Energy:     -2947.754885  Gnorm:      0.002889  CPU:    5.227
  ** Hessian has required structure
  Cycle:     35 Energy:     -2947.755098  Gnorm:      0.001719  CPU:    5.378
  ** Hessian has required structure
  Cycle:     36 Energy:     -2947.755165  Gnorm:      0.001139  CPU:    5.513
  ** Hessian has required structure
  Cycle:     37 Energy:     -2947.755200  Gnorm:      0.000633  CPU:    5.665
  ** Hessian has required structure
  Cycle:     38 Energy:     -2947.755201  Gnorm:      0.000516  CPU:    5.785
  ** Hessian has required structure
  Cycle:     39 Energy:     -2947.755201  Gnorm:      0.000545  CPU:    5.904
  ** Hessian has required structure
  Cycle:     40 Energy:     -2947.755202  Gnorm:      0.000537  CPU:    6.024
  ** Hessian has required structure
  Cycle:     41 Energy:     -2947.755202  Gnorm:      0.000535  CPU:    6.143
  ** Hessian has required structure
  Cycle:     42 Energy:     -2947.755202  Gnorm:      0.000535  CPU:    6.386
  ** Hessian calculated **
  Cycle:     43 Energy:     -2947.755202  Gnorm:      0.000267  CPU:    6.538
  ** Hessian has required structure
  Cycle:     44 Energy:     -2947.755203  Gnorm:      0.000577  CPU:    6.657
  ** Hessian has required structure
  Cycle:     45 Energy:     -2947.755203  Gnorm:      0.000608  CPU:    6.776
  ** Hessian has required structure
  Cycle:     46 Energy:     -2947.755203  Gnorm:      0.000519  CPU:    6.895
  ** Hessian has required structure
  Cycle:     47 Energy:     -2947.755203  Gnorm:      0.000441  CPU:    7.015
  ** Hessian has required structure
  Cycle:     48 Energy:     -2947.755203  Gnorm:      0.000416  CPU:    7.133
  ** Hessian has required structure
  Cycle:     49 Energy:     -2947.755203  Gnorm:      0.000382  CPU:    7.252
  ** Hessian has required structure
  Cycle:     50 Energy:     -2947.755203  Gnorm:      0.000360  CPU:    7.372
  ** Hessian has required structure
  Cycle:     51 Energy:     -2947.755203  Gnorm:      0.000320  CPU:    7.491
  ** Hessian has required structure
  Cycle:     52 Energy:     -2947.755203  Gnorm:      0.000308  CPU:    7.610
  ** Hessian has required structure
  Cycle:     53 Energy:     -2947.755204  Gnorm:      0.000325  CPU:    7.823
  ** Hessian has required structure
  Cycle:     54 Energy:     -2947.755204  Gnorm:      0.000324  CPU:    7.959
  ** Hessian has required structure
  Cycle:     55 Energy:     -2947.755204  Gnorm:      0.000324  CPU:    8.079
  ** Hessian has required structure
  Cycle:     56 Energy:     -2947.755204  Gnorm:      0.000324  CPU:    8.245
  ** Hessian has required structure
  Cycle:     57 Energy:     -2947.755204  Gnorm:      0.000324  CPU:    8.396
  ** Hessian has required structure
  Cycle:     58 Energy:     -2947.755204  Gnorm:      0.000324  CPU:    8.640
  ** Hessian calculated **
  Cycle:     59 Energy:     -2947.755204  Gnorm:      0.000121  CPU:    8.793
  ** Hessian has required structure
  Cycle:     60 Energy:     -2947.755204  Gnorm:      0.000167  CPU:    8.911
  ** Hessian has required structure
  Cycle:     61 Energy:     -2947.755204  Gnorm:      0.000248  CPU:    9.031
  ** Hessian has required structure
  Cycle:     62 Energy:     -2947.755204  Gnorm:      0.000246  CPU:    9.151
  ** Hessian has required structure
  Cycle:     63 Energy:     -2947.755204  Gnorm:      0.000262  CPU:    9.269
  ** Hessian has required structure
  Cycle:     64 Energy:     -2947.755204  Gnorm:      0.000306  CPU:    9.389
  ** Hessian has required structure
  Cycle:     65 Energy:     -2947.755204  Gnorm:      0.000326  CPU:    9.506
  ** Hessian has required structure
  Cycle:     66 Energy:     -2947.755204  Gnorm:      0.000296  CPU:    9.623
  ** Hessian has required structure
  Cycle:     67 Energy:     -2947.755204  Gnorm:      0.000264  CPU:    9.743
  ** Hessian has required structure
  Cycle:     68 Energy:     -2947.755204  Gnorm:      0.000230  CPU:    9.861
  ** Hessian has required structure
  Cycle:     69 Energy:     -2947.755204  Gnorm:      0.000230  CPU:   10.105
  ** Hessian calculated **
  Cycle:     70 Energy:     -2947.755205  Gnorm:      0.000220  CPU:   10.256
  ** Hessian has required structure
  ** Hessian has required structure
  Cycle:     71 Energy:     -2947.755205  Gnorm:      0.000221  CPU:   10.612
  ** Hessian calculated **
  Cycle:     72 Energy:     -2947.755205  Gnorm:      0.000226  CPU:   10.932
  ** Hessian has required structure
  Cycle:     73 Energy:     -2947.755205  Gnorm:      0.000152  CPU:   11.051
  ** Hessian has required structure
  Cycle:     74 Energy:     -2947.755205  Gnorm:      0.000119  CPU:   11.168
  ** Hessian has required structure
  Cycle:     75 Energy:     -2947.755205  Gnorm:      0.000116  CPU:   11.287
  ** Hessian has required structure


  **** Optimisation achieved ****


  Final energy =   -2947.75520511 eV      
  Final Gnorm  =       0.00010122

  Components of energy : 

--------------------------------------------------------------------------------
  Interatomic potentials     =         776.34767464 eV    
  Three-body potentials      =           0.00000000 eV    
  Monopole - monopole (real) =       -1576.11398864 eV    
  Monopole - monopole (recip)=       -2147.98889111 eV    
  Monopole - monopole (total)=       -3724.10287976 eV    
--------------------------------------------------------------------------------
  Total lattice energy       =       -2947.75520511 eV    
--------------------------------------------------------------------------------
  Total lattice energy       =         -284413.3167 kJ/(mole unit cells)
--------------------------------------------------------------------------------

  Final fractional coordinates of atoms :

--------------------------------------------------------------------------------
   No.  Atomic        x           y          z          Radius
        Label       (Frac)      (Frac)     (Frac)       (Angs) 
--------------------------------------------------------------------------------
     1  Ge    c     0.052090    0.000000    0.372270    0.000000
     2  Ge    c     0.943591    0.993812    0.618491    0.000000
     3  Ge    c     0.554910    0.977392    0.117310    0.000000
     4  Ge    c     0.941743    0.006073    0.124722    0.000000
     5  Ge    c     0.443508    0.974491    0.867357    0.000000
     6  Ge    c     0.047003    0.997884    0.876472    0.000000
     7  Ge    c     0.153467    0.307577    0.259878    0.000000
     8  Ge    c     0.352913    0.659370    0.256512    0.000000
     9  Ge    c     0.841377    0.305524    0.696990    0.000000
    10  Ge    c     0.642521    0.656225    0.695061    0.000000
    11  Ge    c     0.821939    0.714296    0.689889    0.000000
    12  Ge    c     0.660564    0.244786    0.700681    0.000000
    13  Ge    c     0.173595    0.716786    0.260873    0.000000
    14  Ge    c     0.333661    0.248229    0.253913    0.000000
    15  Ge    c     0.667978    0.263930    0.009316    0.000000
    16  Ge    c     0.822394    0.727918    0.001445    0.000000
    17  Ge    c     0.327364    0.261143    0.942463    0.000000
    18  Ge    c     0.171114    0.721049    0.948897    0.000000
    19  Ge    c     0.146988    0.316272    0.945612    0.000000
    20  Ge    c     0.849359    0.322581    0.008662    0.000000
    21  Si    c     0.451411    0.965288    0.361500    0.000000
    22  Si    c     0.545334    0.963471    0.614584    0.000000
    23  Si    c     0.347555    0.662223    0.951188    0.000000
    24  Si    c     0.645707    0.665199    0.999451    0.000000
    25  O1    c     0.088268    0.200005    0.347596    0.000000
    26  O3    c     0.420238    0.774658    0.339727    0.000000
    27  O1    c     0.902001    0.190825    0.603805    0.000000
    28  O3    c     0.578787    0.773532    0.604753    0.000000
    29  O1    c     0.874728    0.841620    0.593213    0.000000
    30  O3    c     0.611319    0.103381    0.603084    0.000000
    31  O1    c     0.122351    0.853192    0.352852    0.000000
    32  O3    c     0.385149    0.101673    0.341051    0.000000
    33  O1    c     0.021699    0.978358    0.527210    0.000000
    34  O2    c     0.479802    0.987752    0.508707    0.000000
    35  O1    c     0.972240    0.971532    0.279148    0.000000
    36  O3    c     0.522330    0.994063    0.271826    0.000000
    37  O1    c     0.973396    0.962295    0.775329    0.000000
    38  O3    c     0.511863    0.991509    0.755332    0.000000
    39  O1    c     0.624366    0.129196    0.111857    0.000000
    40  O1    c     0.863652    0.881307    0.094321    0.000000
    41  O1    c     0.375168    0.127903    0.843102    0.000000
    42  O1    c     0.123416    0.863655    0.856405    0.000000
    43  O3    c     0.403872    0.771706    0.865822    0.000000
    44  O1    c     0.080803    0.202646    0.860346    0.000000
    45  O3    c     0.588654    0.774260    0.084078    0.000000
    46  O1    c     0.914448    0.214708    0.099596    0.000000
    47  O1    c     0.482225    0.022380    0.014707    0.000000
    48  O1    c     0.016222    0.956886    0.029334    0.000000
    49  O1    c     0.164159    0.511241    0.317101    0.000000
    50  O1    c     0.347575    0.454034    0.310858    0.000000
    51  O1    c     0.830248    0.506265    0.637163    0.000000
    52  O1    c     0.647743    0.449968    0.642986    0.000000
    53  O1    c     0.239188    0.203772    0.264216    0.000000
    54  O1    c     0.268169    0.762591    0.268244    0.000000
    55  O1    c     0.755413    0.202253    0.699963    0.000000
    56  O1    c     0.727451    0.759948    0.685145    0.000000
    57  O1    c     0.120904    0.315700    0.104142    0.000000
    58  O3    c     0.379069    0.652472    0.096704    0.000000
    59  O1    c     0.877342    0.317954    0.851121    0.000000
    60  O3    c     0.614293    0.652478    0.853923    0.000000
    61  O1    c     0.853412    0.733289    0.846508    0.000000
    62  O1    c     0.631722    0.233842    0.857098    0.000000
    63  O1    c     0.141540    0.728786    0.105325    0.000000
    64  O1    c     0.360377    0.238852    0.097356    0.000000
    65  O3    c     0.655956    0.476384    0.055887    0.000000
    66  O1    c     0.843202    0.529084    0.062491    0.000000
    67  O3    c     0.337111    0.473224    0.894502    0.000000
    68  O1    c     0.153100    0.519429    0.888765    0.000000
    69  O1    c     0.762644    0.224768    0.011749    0.000000
    70  O3    c     0.726014    0.761025    0.997076    0.000000
    71  O1    c     0.233136    0.215710    0.938899    0.000000
    72  O3    c     0.267109    0.758782    0.953153    0.000000
    73  O1    s     0.090522    0.193042    0.342763    0.000000
    74  O3    s     0.417732    0.783745    0.335021    0.000000
    75  O1    s     0.900557    0.184766    0.611835    0.000000
    76  O3    s     0.580611    0.782558    0.612833    0.000000
    77  O1    s     0.875784    0.843109    0.602357    0.000000
    78  O3    s     0.608931    0.101262    0.611940    0.000000
    79  O1    s     0.120934    0.853849    0.347061    0.000000
    80  O3    s     0.387486    0.100209    0.335863    0.000000
    81  O1    s     0.017778    0.981238    0.522892    0.000000
    82  O2    s     0.483978    0.982731    0.504917    0.000000
    83  O1    s     0.975830    0.976253    0.274430    0.000000
    84  O3    s     0.517865    0.989758    0.268295    0.000000
    85  O1    s     0.977200    0.967540    0.772176    0.000000
    86  O3    s     0.509244    0.987253    0.751256    0.000000
    87  O1    s     0.622528    0.128298    0.104107    0.000000
    88  O1    s     0.866234    0.878411    0.089160    0.000000
    89  O1    s     0.376460    0.127036    0.852573    0.000000
    90  O1    s     0.121697    0.861997    0.865138    0.000000
    91  O3    s     0.401432    0.776735    0.874279    0.000000
    92  O1    s     0.083328    0.196253    0.867916    0.000000
    93  O3    s     0.591672    0.779409    0.078303    0.000000
    94  O1    s     0.911487    0.207620    0.094524    0.000000
    95  O1    s     0.485007    0.015148    0.011543    0.000000
    96  O1    s     0.012835    0.963611    0.025451    0.000000
    97  O1    s     0.164031    0.510732    0.308613    0.000000
    98  O1    s     0.346987    0.454876    0.302614    0.000000
    99  O1    s     0.830498    0.505944    0.645694    0.000000
   100  O1    s     0.648259    0.451238    0.651197    0.000000
   101  O1    s     0.239957    0.214560    0.263141    0.000000
   102  O1    s     0.267487    0.751422    0.266813    0.000000
   103  O1    s     0.754576    0.212811    0.699812    0.000000
   104  O1    s     0.728214    0.748827    0.686250    0.000000
   105  O1    s     0.125241    0.315096    0.104152    0.000000
   106  O3    s     0.374094    0.653958    0.095234    0.000000
   107  O1    s     0.872691    0.317337    0.851333    0.000000
   108  O3    s     0.619403    0.653994    0.855501    0.000000
   109  O1    s     0.848781    0.731498    0.846640    0.000000
   110  O1    s     0.636529    0.236839    0.856828    0.000000
   111  O1    s     0.146144    0.727306    0.105541    0.000000
   112  O1    s     0.355846    0.241229    0.097838    0.000000
   113  O3    s     0.655870    0.478682    0.046874    0.000000
   114  O1    s     0.842144    0.528104    0.053946    0.000000
   115  O3    s     0.337394    0.475744    0.903680    0.000000
   116  O1    s     0.153949    0.518435    0.897583    0.000000
   117  O1    s     0.761835    0.235048    0.011327    0.000000
   118  O3    s     0.725972    0.749426    0.997624    0.000000
   119  O1    s     0.233965    0.226515    0.939676    0.000000
   120  O3    s     0.267044    0.746938    0.952655    0.000000
--------------------------------------------------------------------------------

  Final Cartesian lattice vectors (Angstroms) :

       17.748823   -0.003439   -0.135840
       -0.001538    7.820574   -0.017465
       -0.082382   -0.024264   10.423061


  Final cell parameters and derivatives :

--------------------------------------------------------------------------------
       a           17.749343 Angstrom     dE/de1(xx)    -0.001196 eV/strain
       b            7.820594 Angstrom     dE/de2(yy)     0.005268 eV/strain
       c           10.423414 Angstrom     dE/de3(zz)    -0.006438 eV/strain
       alpha       90.261239 Degrees      dE/de4(yz)    -0.000143 eV/strain
       beta        90.891320 Degrees      dE/de5(xz)     0.000551 eV/strain
       gamma       90.021393 Degrees      dE/de6(xy)    -0.000434 eV/strain
--------------------------------------------------------------------------------

  Primitive cell volume =          1446.688041 Angs**3

  Density of cell =      2.677404 g/cm**3

  Non-primitive cell volume =          1446.688041 Angs**3


  Final internal derivatives :

--------------------------------------------------------------------------------
   No.  Atomic          a             b             c           Radius
        Label          (eV)          (eV)          (eV)        (eV/Angs)
--------------------------------------------------------------------------------
      1 Ge    c       0.000000      0.000000      0.000000      0.000000
      2 Ge    c       0.002419     -0.000356      0.000416      0.000000
      3 Ge    c      -0.002515      0.000006      0.001953      0.000000
      4 Ge    c       0.000546     -0.000406      0.001473      0.000000
      5 Ge    c       0.005714     -0.000641      0.000578      0.000000
      6 Ge    c      -0.004681      0.000093     -0.001481      0.000000
      7 Ge    c       0.002162      0.000282     -0.001787      0.000000
      8 Ge    c      -0.002171     -0.000190     -0.002390      0.000000
      9 Ge    c       0.000115      0.000816      0.000926      0.000000
     10 Ge    c       0.000818     -0.000689      0.001435      0.000000
     11 Ge    c       0.000926     -0.000190      0.001146      0.000000
     12 Ge    c      -0.000576     -0.000120      0.001603      0.000000
     13 Ge    c       0.001486     -0.000435     -0.001674      0.000000
     14 Ge    c      -0.001375      0.000386     -0.001772      0.000000
     15 Ge    c      -0.000967      0.000419     -0.002141      0.000000
     16 Ge    c       0.001420     -0.000165     -0.001863      0.000000
     17 Ge    c      -0.001974      0.000293      0.002149      0.000000
     18 Ge    c       0.001473     -0.000740      0.001827      0.000000
     19 Ge    c       0.004095      0.000647      0.002301      0.000000
     20 Ge    c      -0.000229      0.000291     -0.001485      0.000000
     21 Si    c       0.001903     -0.000440      0.002225      0.000000
     22 Si    c      -0.002686      0.000523      0.002825      0.000000
     23 Si    c      -0.001748     -0.000597      0.002026      0.000000
     24 Si    c      -0.000950     -0.000128     -0.002240      0.000000
     25 O1    c       0.004445      0.001302      0.000091      0.000000
     26 O3    c       0.000991     -0.001248     -0.000762      0.000000
     27 O1    c      -0.000854      0.001157     -0.000711      0.000000
     28 O3    c      -0.000068     -0.001995     -0.000696      0.000000
     29 O1    c      -0.000859     -0.000560     -0.000575      0.000000
     30 O3    c       0.002870      0.000632     -0.001146      0.000000
     31 O1    c       0.000387     -0.000574      0.000081      0.000000
     32 O3    c      -0.004453     -0.000430     -0.000093      0.000000
     33 O1    c      -0.000312      0.000513      0.000034      0.000000
     34 O2    c      -0.007139      0.000011      0.001731      0.000000
     35 O1    c       0.001940      0.001162     -0.001353      0.000000
     36 O3    c       0.005773     -0.001699      0.000413      0.000000
     37 O1    c       0.004188      0.002056     -0.000823      0.000000
     38 O3    c       0.003381     -0.001909      0.001253      0.000000
     39 O1    c      -0.000166     -0.000538     -0.000883      0.000000
     40 O1    c       0.004266      0.000060     -0.000125      0.000000
     41 O1    c      -0.002130     -0.000182     -0.001721      0.000000
     42 O1    c       0.000062     -0.000223     -0.002035      0.000000
     43 O3    c      -0.004036      0.000481     -0.002065      0.000000
     44 O1    c       0.002125      0.000850     -0.001589      0.000000
     45 O3    c      -0.000256     -0.001370     -0.002259      0.000000
     46 O1    c       0.001886      0.001421     -0.000778      0.000000
     47 O1    c       0.000390     -0.001747      0.002269      0.000000
     48 O1    c      -0.001801      0.001593      0.001579      0.000000
     49 O1    c       0.002562     -0.000922      0.000545      0.000000
     50 O1    c      -0.002093      0.000272      0.001509      0.000000
     51 O1    c       0.002311     -0.001529     -0.001549      0.000000
     52 O1    c      -0.003092      0.000557     -0.000941      0.000000
     53 O1    c      -0.001025      0.002506      0.001661      0.000000
     54 O1    c       0.000970     -0.002764      0.001584      0.000000
     55 O1    c      -0.000724      0.002470     -0.001037      0.000000
     56 O1    c      -0.002499     -0.002173     -0.000961      0.000000
     57 O1    c       0.004194      0.000620     -0.001065      0.000000
     58 O3    c      -0.000267     -0.000144     -0.000975      0.000000
     59 O1    c       0.001269      0.000156     -0.000275      0.000000
     60 O3    c      -0.001672     -0.000160      0.000405      0.000000
     61 O1    c       0.000677     -0.000708     -0.000285      0.000000
     62 O1    c       0.001686      0.001025     -0.000983      0.000000
     63 O1    c       0.004635     -0.001307     -0.000758      0.000000
     64 O1    c      -0.004587      0.001637     -0.000892      0.000000
     65 O3    c      -0.001066      0.000191     -0.000237      0.000000
     66 O1    c       0.003608     -0.001335      0.001444      0.000000
     67 O3    c       0.001213      0.000099      0.000866      0.000000
     68 O1    c       0.001530     -0.000292     -0.000944      0.000000
     69 O1    c       0.002094      0.001463      0.000802      0.000000
     70 O3    c      -0.001321     -0.000610     -0.000658      0.000000
     71 O1    c      -0.000161      0.001044     -0.000878      0.000000
     72 O3    c      -0.000047     -0.000211     -0.001060      0.000000
     73 O1    s      -0.003483     -0.000099      0.000621      0.000000
     74 O3    s      -0.001377      0.001492      0.001347      0.000000
     75 O1    s      -0.000847     -0.000601     -0.000118      0.000000
     76 O3    s       0.001945      0.001345     -0.001290      0.000000
     77 O1    s      -0.000952     -0.000245      0.000473      0.000000
     78 O3    s      -0.000717      0.001861     -0.000835      0.000000
     79 O1    s       0.001615     -0.001047      0.000031      0.000000
     80 O3    s       0.004852      0.002738     -0.000983      0.000000
     81 O1    s       0.004365     -0.000553      0.000237      0.000000
     82 O2    s       0.004041     -0.000828     -0.000167      0.000000
     83 O1    s      -0.003514      0.000714      0.001978      0.000000
     84 O3    s      -0.003222      0.000121      0.001066      0.000000
     85 O1    s      -0.008879      0.000593      0.001862      0.000000
     86 O3    s       0.002170     -0.000743      0.001257      0.000000
     87 O1    s       0.001430      0.001058      0.000097      0.000000
     88 O1    s      -0.004766     -0.000178      0.000513      0.000000
     89 O1    s       0.000100      0.003031      0.000045      0.000000
     90 O1    s       0.002583     -0.003435      0.000873      0.000000
     91 O3    s       0.002472     -0.000764      0.000423      0.000000
     92 O1    s      -0.000728     -0.000187      0.000583      0.000000
     93 O3    s       0.001273      0.000941      0.001407      0.000000
     94 O1    s      -0.001332     -0.001066      0.000503      0.000000
     95 O1    s      -0.004887     -0.000029      0.000601      0.000000
     96 O1    s       0.005224     -0.000301      0.000325      0.000000
     97 O1    s      -0.005018      0.000691      0.000379      0.000000
     98 O1    s       0.003263      0.000139     -0.000674      0.000000
     99 O1    s      -0.002088      0.001149      0.000351      0.000000
    100 O1    s       0.001961     -0.000577     -0.000467      0.000000
    101 O1    s       0.000153     -0.003386     -0.001305      0.000000
    102 O1    s       0.000140      0.003524     -0.001472      0.000000
    103 O1    s       0.001240     -0.003078      0.001347      0.000000
    104 O1    s       0.001598      0.002382      0.000964      0.000000
    105 O1    s      -0.005393     -0.002000      0.000053      0.000000
    106 O3    s       0.000453      0.001620     -0.000904      0.000000
    107 O1    s      -0.002093      0.000073     -0.000069      0.000000
    108 O3    s       0.001939      0.000373     -0.000399      0.000000
    109 O1    s      -0.002607      0.000218      0.000076      0.000000
    110 O1    s      -0.000728     -0.001082      0.000096      0.000000
    111 O1    s      -0.005031      0.002117      0.000173      0.000000
    112 O1    s       0.004743     -0.002205     -0.000631      0.000000
    113 O3    s       0.000253      0.000353      0.001486      0.000000
    114 O1    s      -0.002952      0.000984     -0.000636      0.000000
    115 O3    s       0.000272      0.000288     -0.002556      0.000000
    116 O1    s      -0.002853     -0.000027     -0.000019      0.000000
    117 O1    s      -0.000611     -0.001660      0.000011      0.000000
    118 O3    s       0.001149      0.000515      0.001298      0.000000
    119 O1    s       0.000041     -0.002390      0.000506      0.000000
    120 O3    s       0.000574      0.000833      0.001010      0.000000
--------------------------------------------------------------------------------
  Maximum abs         0.008879      0.003524      0.002825      0.000000
--------------------------------------------------------------------------------


  Born effective charge tensors : 

-------------------------------------------------------------------------------
  Atom             x           y             z
-------------------------------------------------------------------------------
    1 Ge    x       4.2907      0.1385     -0.4251
            y      -0.1755      3.8843     -0.0644
            z      -0.2506     -0.1054      4.4535
-------------------------------------------------------------------------------
    2 Ge    x       4.2745     -0.1252      0.0502
            y       0.1236      3.8756      0.0151
            z      -0.8076      0.0035      4.2033
-------------------------------------------------------------------------------
    3 Ge    x       4.1908     -0.1233     -0.2983
            y       0.2471      3.8964      0.0552
            z      -0.3137      0.0601      3.9106
-------------------------------------------------------------------------------
    4 Ge    x       4.3619     -0.2305      0.3781
            y       0.2202      3.8680     -0.0102
            z       0.3376     -0.1289      3.9723
-------------------------------------------------------------------------------
    5 Ge    x       4.1542      0.1287     -0.0084
            y      -0.2096      3.9048     -0.0674
            z      -0.6392     -0.0396      3.7515
-------------------------------------------------------------------------------
    6 Ge    x       4.4053      0.2035      0.0146
            y      -0.1750      3.8830      0.0229
            z       0.6616      0.0505      3.6881
-------------------------------------------------------------------------------
    7 Ge    x       4.0508      0.0781     -0.2081
            y       0.4290      4.1524     -0.0845
            z      -0.0695     -0.1777      3.6028
-------------------------------------------------------------------------------
    8 Ge    x       3.8623      0.0292      0.1996
            y       0.4107      4.2035      0.0546
            z       0.0570      0.1511      3.4917
-------------------------------------------------------------------------------
    9 Ge    x       4.0015     -0.1045     -0.2332
            y      -0.4113      4.1680      0.0822
            z      -0.0434      0.1708      3.5801
-------------------------------------------------------------------------------
   10 Ge    x       3.8235     -0.0394      0.2117
            y      -0.3955      4.2267     -0.0847
            z       0.0324     -0.1525      3.4734
-------------------------------------------------------------------------------
   11 Ge    x       4.0721      0.2243     -0.3261
            y       0.3219      4.1530     -0.0902
            z      -0.0563     -0.1153      3.5685
-------------------------------------------------------------------------------
   12 Ge    x       3.9527      0.2219      0.2911
            y       0.2600      4.2247      0.0751
            z      -0.0163      0.1194      3.5315
-------------------------------------------------------------------------------
   13 Ge    x       4.0501     -0.2220     -0.2978
            y      -0.2999      4.1874      0.0828
            z      -0.0562      0.1750      3.6239
-------------------------------------------------------------------------------
   14 Ge    x       3.9630     -0.2188      0.2062
            y      -0.2583      4.2569     -0.0620
            z      -0.0137     -0.1772      3.5806
-------------------------------------------------------------------------------
   15 Ge    x       4.0003      0.2299     -0.3291
            y       0.2837      4.1960     -0.1695
            z      -0.0179     -0.2297      3.5226
-------------------------------------------------------------------------------
   16 Ge    x       3.9281      0.2555      0.3495
            y       0.2305      4.2102      0.0875
            z       0.0352      0.2027      3.5317
-------------------------------------------------------------------------------
   17 Ge    x       4.0446     -0.2385     -0.3014
            y      -0.3311      4.1773      0.1394
            z      -0.0383      0.2022      3.4707
-------------------------------------------------------------------------------
   18 Ge    x       3.9979     -0.2702      0.3706
            y      -0.3043      4.1626     -0.0743
            z       0.0608     -0.1429      3.4615
-------------------------------------------------------------------------------
   19 Ge    x       4.0975      0.1402      0.2484
            y       0.4586      4.1623      0.0336
            z       0.1113      0.1261      3.4379
-------------------------------------------------------------------------------
   20 Ge    x       4.0841     -0.1140      0.2964
            y      -0.4462      4.1662     -0.0724
            z       0.1395     -0.1455      3.4905
-------------------------------------------------------------------------------
   21 Si    x       3.8031      0.1485      0.2454
            y      -0.2033      3.6468     -0.0022
            z       0.0881      0.0545      3.9130
-------------------------------------------------------------------------------
   22 Si    x       3.5650     -0.1369     -0.1791
            y       0.1988      3.6405      0.0150
            z       0.5077     -0.0320      3.9111
-------------------------------------------------------------------------------
   23 Si    x       3.7309      0.1055     -0.2799
            y       0.4245      3.8812     -0.0664
            z      -0.0956     -0.1882      3.2535
-------------------------------------------------------------------------------
   24 Si    x       3.7365     -0.0967     -0.2987
            y      -0.4184      3.8873      0.0666
            z      -0.1070      0.1944      3.2847
-------------------------------------------------------------------------------
   25 O1    x      -2.0513     -0.8667      0.5336
            y      -0.8349     -2.4424      0.5166
            z       0.4896      0.5159     -1.6641
-------------------------------------------------------------------------------
   26 O3    x      -1.8326     -0.8346     -0.4501
            y      -0.7822     -2.4309     -0.4639
            z      -0.4099     -0.4769     -1.5473
-------------------------------------------------------------------------------
   27 O1    x      -2.0180      0.8868      0.3860
            y       0.8555     -2.4423     -0.3497
            z       0.4508     -0.3759     -1.6149
-------------------------------------------------------------------------------
   28 O3    x      -1.8023      0.8421     -0.3251
            y       0.7870     -2.4224      0.3118
            z      -0.3988      0.3514     -1.5117
-------------------------------------------------------------------------------
   29 O1    x      -2.2229     -0.9131      0.3289
            y      -0.9883     -2.2579      0.3300
            z       0.3992      0.3375     -1.6299
-------------------------------------------------------------------------------
   30 O3    x      -2.0818     -0.8937     -0.3017
            y      -0.9554     -2.2075     -0.3276
            z      -0.3500     -0.3106     -1.5063
-------------------------------------------------------------------------------
   31 O1    x      -2.2568      0.9461      0.5635
            y       1.0025     -2.3084     -0.5115
            z       0.5339     -0.5243     -1.6713
-------------------------------------------------------------------------------
   32 O3    x      -2.1286      0.9247     -0.4978
            y       0.9802     -2.2433      0.4569
            z      -0.4696      0.4681     -1.5436
-------------------------------------------------------------------------------
   33 O1    x      -2.1701     -0.0022      0.9899
            y       0.0329     -1.2468      0.0158
            z       1.2294      0.0453     -3.0766
-------------------------------------------------------------------------------
   34 O2    x      -1.5617      0.0141     -0.6655
            y       0.0264     -1.1118      0.0108
            z      -0.8110      0.0002     -2.4877
-------------------------------------------------------------------------------
   35 O1    x      -2.1433     -0.0008     -0.8447
            y      -0.0483     -1.2773      0.0298
            z      -0.8565      0.0874     -2.7457
-------------------------------------------------------------------------------
   36 O3    x      -2.0286     -0.0602      0.8716
            y      -0.0867     -1.2135      0.0618
            z       0.8965      0.0189     -2.6171
-------------------------------------------------------------------------------
   37 O1    x      -2.1588     -0.0764     -0.8925
            y      -0.0650     -1.3218     -0.0173
            z      -0.8572     -0.0161     -2.6422
-------------------------------------------------------------------------------
   38 O3    x      -1.9232      0.0068      0.8762
            y      -0.0044     -1.2505     -0.0371
            z       0.8600     -0.0336     -2.6894
-------------------------------------------------------------------------------
   39 O1    x      -2.1498     -0.9333      0.5295
            y      -0.9688     -2.3988      0.5269
            z       0.4813      0.5341     -1.6363
-------------------------------------------------------------------------------
   40 O1    x      -2.2901     -0.9128     -0.5932
            y      -0.9433     -2.3076     -0.5733
            z      -0.4987     -0.5294     -1.5952
-------------------------------------------------------------------------------
   41 O1    x      -2.1709      0.9240      0.3388
            y       0.9905     -2.3766     -0.3582
            z       0.3984     -0.3872     -1.5554
-------------------------------------------------------------------------------
   42 O1    x      -2.3321      0.9297     -0.3264
            y       0.9965     -2.2730      0.3495
            z      -0.3609      0.3530     -1.4917
-------------------------------------------------------------------------------
   43 O3    x      -1.9602     -0.8631      0.4767
            y      -0.7972     -2.2832      0.4427
            z       0.4991      0.4896     -1.4681
-------------------------------------------------------------------------------
   44 O1    x      -2.0873     -0.8702     -0.3728
            y      -0.8177     -2.4874     -0.2931
            z      -0.4223     -0.3321     -1.4490
-------------------------------------------------------------------------------
   45 O3    x      -1.9385      0.8459      0.5866
            y       0.7579     -2.2918     -0.5751
            z       0.5095     -0.5796     -1.5515
-------------------------------------------------------------------------------
   46 O1    x      -2.0288      0.8161     -0.5355
            y       0.7417     -2.5041      0.5257
            z      -0.4684      0.5043     -1.5606
-------------------------------------------------------------------------------
   47 O1    x      -2.1640      0.0500     -0.8053
            y       0.0645     -1.3864     -0.0106
            z      -0.5813     -0.0435     -2.3216
-------------------------------------------------------------------------------
   48 O1    x      -2.1932      0.0835      0.7753
            y       0.0843     -1.3588     -0.0215
            z       0.5424      0.0134     -2.2820
-------------------------------------------------------------------------------
   49 O1    x      -1.3481     -0.1624      0.0668
            y      -0.2212     -3.2093     -0.0090
            z       0.0247     -0.0097     -1.3774
-------------------------------------------------------------------------------
   50 O1    x      -1.3183     -0.1288     -0.0801
            y      -0.2227     -3.3174      0.0179
            z      -0.0379      0.0363     -1.3880
-------------------------------------------------------------------------------
   51 O1    x      -1.3424      0.1615      0.0648
            y       0.2131     -3.2022      0.0535
            z       0.0180      0.0367     -1.3675
-------------------------------------------------------------------------------
   52 O1    x      -1.3091      0.1182     -0.0895
            y       0.2096     -3.3225      0.0082
            z      -0.0352     -0.0195     -1.3761
-------------------------------------------------------------------------------
   53 O1    x      -3.1078      0.2360      0.0431
            y       0.1833     -1.5817      0.0280
            z       0.0385      0.0607     -1.2206
-------------------------------------------------------------------------------
   54 O1    x      -3.0746      0.2132      0.0417
            y       0.1086     -1.5488     -0.0424
            z       0.0326     -0.0754     -1.2337
-------------------------------------------------------------------------------
   55 O1    x      -3.1041     -0.2360      0.0186
            y      -0.1780     -1.5810     -0.0136
            z       0.0444     -0.0381     -1.2105
-------------------------------------------------------------------------------
   56 O1    x      -3.0692     -0.2112      0.0512
            y      -0.0953     -1.5493      0.0414
            z       0.0187      0.0658     -1.2265
-------------------------------------------------------------------------------
   57 O1    x      -1.4920     -0.0567     -0.0673
            y      -0.1197     -1.4129      0.0338
            z      -0.0808      0.0351     -2.7559
-------------------------------------------------------------------------------
   58 O3    x      -1.3809     -0.0418     -0.1182
            y      -0.1120     -1.3419     -0.0045
            z      -0.0712      0.0247     -2.6139
-------------------------------------------------------------------------------
   59 O1    x      -1.5102      0.0537     -0.0678
            y       0.1167     -1.4143     -0.0536
            z      -0.0832     -0.0663     -2.7263
-------------------------------------------------------------------------------
   60 O3    x      -1.3809      0.0396     -0.1082
            y       0.1098     -1.3434     -0.0142
            z      -0.0657     -0.0280     -2.6080
-------------------------------------------------------------------------------
   61 O1    x      -1.5016     -0.0965      0.0318
            y      -0.1146     -1.4231     -0.0001
            z       0.0139     -0.0432     -2.7262
-------------------------------------------------------------------------------
   62 O1    x      -1.4488     -0.1156     -0.0334
            y      -0.1427     -1.4677     -0.1119
            z      -0.0327     -0.0811     -2.7208
-------------------------------------------------------------------------------
   63 O1    x      -1.4982      0.0906     -0.0079
            y       0.1116     -1.4203      0.0012
            z      -0.0296      0.0235     -2.7375
-------------------------------------------------------------------------------
   64 O1    x      -1.4340      0.1113     -0.0277
            y       0.1324     -1.4645      0.0929
            z      -0.0032      0.0602     -2.7661
-------------------------------------------------------------------------------
   65 O3    x      -1.2871      0.1631      0.0625
            y       0.2458     -3.0655      0.1559
            z       0.0105      0.1415     -1.2536
-------------------------------------------------------------------------------
   66 O1    x      -1.4066      0.2198     -0.1160
            y       0.3010     -3.1741      0.0311
            z      -0.0671      0.0346     -1.3293
-------------------------------------------------------------------------------
   67 O3    x      -1.2870     -0.1505      0.0573
            y      -0.2251     -3.0519     -0.1412
            z       0.0120     -0.1296     -1.2500
-------------------------------------------------------------------------------
   68 O1    x      -1.4016     -0.2000     -0.1063
            y      -0.2739     -3.1566      0.0008
            z      -0.0601     -0.0092     -1.3260
-------------------------------------------------------------------------------
   69 O1    x      -3.1273     -0.2070      0.0135
            y      -0.1209     -1.5637      0.0224
            z       0.0000      0.0520     -1.1917
-------------------------------------------------------------------------------
   70 O3    x      -2.9015     -0.3070      0.0132
            y      -0.2575     -1.4897     -0.0046
            z       0.0154     -0.0397     -1.1347
-------------------------------------------------------------------------------
   71 O1    x      -3.1161      0.1879      0.0323
            y       0.1069     -1.5782     -0.0166
            z       0.0001     -0.0515     -1.1828
-------------------------------------------------------------------------------
   72 O3    x      -2.8991      0.2916      0.0027
            y       0.2368     -1.4911      0.0036
            z       0.0266      0.0346     -1.1268
-------------------------------------------------------------------------------




  Elastic Constant Matrix: (Units=GPa)

-------------------------------------------------------------------------------
  Indices      1         2         3         4         5         6    
-------------------------------------------------------------------------------
       1     41.5162   19.2916   17.2446   -0.8002   -1.2588   -0.1895
       2     19.2916   31.7767   16.0045   -0.4053   -0.9504   -0.3348
       3     17.2446   16.0045   15.7471   -0.5157   -0.1634    0.4177
       4     -0.8002   -0.4053   -0.5157    7.6968    0.3010    0.7347
       5     -1.2588   -0.9504   -0.1634    0.3010   16.4428   -0.7381
       6     -0.1895   -0.3348    0.4177    0.7347   -0.7381   17.8586
-------------------------------------------------------------------------------


  Elastic Compliance Matrix: (Units=1/GPa)

-------------------------------------------------------------------------------
  Indices      1         2         3         4         5         6    
-------------------------------------------------------------------------------
       1    0.044753 -0.004890 -0.044010  0.001198  0.002750  0.001477
       2   -0.004890  0.065327 -0.061133 -0.001546  0.002947  0.002788
       3   -0.044010 -0.061133  0.174090  0.004668 -0.005532 -0.006106
       4    0.001198 -0.001546  0.004668  0.130918 -0.002600 -0.005619
       5    0.002750  0.002947 -0.005532 -0.002600  0.061319  0.002855
       6    0.001477  0.002788 -0.006106 -0.005619  0.002855  0.056555
-------------------------------------------------------------------------------

  Mechanical properties :

-------------------------------------------------------------------------------
  Convention :                    Reuss         Voigt         Hill
-------------------------------------------------------------------------------
  Bulk  Modulus (GPa)     =      15.60021      21.56904      18.58462
  Shear Modulus (GPa)     =       6.45664      10.83294       8.64479
-------------------------------------------------------------------------------
  Velocity S-wave (km/s)  =       1.55291       2.01148       1.79688
  Velocity P-wave (km/s)  =       3.00699       3.66752       3.35356
-------------------------------------------------------------------------------
  Compressibility (1/GPa) =    0.06410171
-------------------------------------------------------------------------------
  Stress axis :                     x             y             z
-------------------------------------------------------------------------------
  Youngs Moduli (GPa)     =      22.34480      15.30769       5.74417
-------------------------------------------------------------------------------
  Poissons Ratio (x)      =                     0.07486       0.25280
  Poissons Ratio (y)      =       0.10928                     0.35116
  Poissons Ratio (z)      =       0.98340       0.93581
-------------------------------------------------------------------------------


  Piezoelectric Strain Matrix: (Units=C/m**2)

-------------------------------------------------------------------------------
  Indices      1         2         3         4         5         6    
-------------------------------------------------------------------------------
       x    -0.05350  -0.02795  -0.11702  -0.04866  -0.43889  -0.17312
       y     0.16555   0.36162  -0.15473  -0.40819  -0.74419   0.04952
       z    -0.62815  -0.73046   1.11139  -0.07197  -0.07893   0.01398
-------------------------------------------------------------------------------


  Piezoelectric Stress Matrix: (Units=10**-11 C/N)

-------------------------------------------------------------------------------
  Indices      1         2         3         4         5         6    
-------------------------------------------------------------------------------
       x     0.13716   0.38888  -1.30516  -0.48233  -2.68617  -1.02132
       y     0.99876   3.08483  -5.44208  -5.28655  -4.20527   0.51672
       z    -7.37346 -11.26718  26.57971  -0.37309  -1.46420  -0.87807
-------------------------------------------------------------------------------


  Static dielectric constant tensor : 

-------------------------------------------------------------------------------
              x         y         z
-------------------------------------------------------------------------------
       x     5.32151   0.00191  -0.15534
       y     0.00191   6.09925  -0.00674
       z    -0.15534  -0.00674   3.97986
--------------------------------------------------------------------------------

  High frequency dielectric constant tensor : 

-------------------------------------------------------------------------------
              x         y         z
-------------------------------------------------------------------------------
       x     1.53763  -0.00011  -0.00028
       y    -0.00011   1.53982  -0.00046
       z    -0.00028  -0.00046   1.49958
-------------------------------------------------------------------------------

  Static refractive indices : 

-------------------------------------------------------------------------------
    1 =    1.99050      2 =    2.31068      3 =    2.46967
-------------------------------------------------------------------------------

  High frequency refractive indices : 

-------------------------------------------------------------------------------
    1 =    1.22457      2 =    1.24001      3 =    1.24090
-------------------------------------------------------------------------------


  Time to end of optimisation =      11.5672 seconds


  Peak dynamic memory used =       5.01 MB 


  Timing analysis for GULP :

--------------------------------------------------------------------------------
  Task / Subroutine                                          Time (Seconds)
--------------------------------------------------------------------------------
  Calculation of reciprocal space energy and derivatives          0.7561
  Calculation of real space energy and derivatives                7.6714
  Calculation of three-body energy and derivatives                0.1111
  Calculation and manipulation of Hessian matrix                  3.2065
  Calculation of matrix inversion                                 0.0461
  Global summation overhead                                       0.0001
--------------------------------------------------------------------------------
  Total CPU time                                                 11.5673
--------------------------------------------------------------------------------


  Dump file written as c01297.vasp.grs
  CIF file written as c01297.vasp.cif


  Job Finished at 15:36.54 31st October    2025                               

