********************************************************************************
*                       GENERAL UTILITY LATTICE PROGRAM                        *
*                                 Julian Gale                                  *
*                       Curtin Institute for Computation                       *
*                    School of Molecular and Life Sciences                     *
*                    Curtin University, Western Australia                      *
********************************************************************************
* Version = 6.1.2 * Last modified =   3rd November 2022                        *
********************************************************************************
*  optimise     - perform optimisation run                                     *
*  conp         - constant pressure calculation                                *
*  property     - calculate properties for final geometry                      *
********************************************************************************

  Job Started  at 15:25.07 31st October    2025                               

  Number of CPUs =     1


  Total number of configurations input =      1

********************************************************************************
*  Input for Configuration =   1 : c01221.vasp                                 *
********************************************************************************

  Formula = Ge20Si4O48                                                  

  Number of irreducible atoms/shells =     120


  Total number atoms/shells =     120

  Dimensionality = 3               :  Bulk   



  Cartesian lattice vectors (Angstroms) :

       17.182800    0.000000    0.000000
        0.000000    7.513760    0.000000
        0.000000    0.000000   10.447700

  Cell parameters (Angstroms/Degrees):

  a =      17.1828    alpha =  90.0000
  b =       7.5138    beta  =  90.0000
  c =      10.4477    gamma =  90.0000

  Initial cell volume =        1348.875752 Angs**3

  Temperature of configuration =   0.00     K 

  Pressure of configuration =         0.000 GPa 

  Fractional coordinates of asymmetric unit :

--------------------------------------------------------------------------------
   No.  Atomic       x           y          z         Charge      Occupancy
        Label      (Frac)      (Frac)     (Frac)        (e)         (Frac)  
--------------------------------------------------------------------------------
      1 Ge    c    0.052090    0.000000    0.372270     4.00000    1.000000    
      2 Ge    c    0.447910 *  0.000000 *  0.372270 *   4.00000    1.000000    
      3 Ge    c    0.947910 *  0.000000 *  0.627730 *   4.00000    1.000000    
      4 Ge    c    0.943270 *  0.000000 *  0.122130 *   4.00000    1.000000    
      5 Ge    c    0.056730 *  0.000000 *  0.877870 *   4.00000    1.000000    
      6 Ge    c    0.160190 *  0.293910 *  0.273440 *   4.00000    1.000000    
      7 Ge    c    0.339810 *  0.706090 *  0.273440 *   4.00000    1.000000    
      8 Ge    c    0.839810 *  0.293910 *  0.726560 *   4.00000    1.000000    
      9 Ge    c    0.660190 *  0.706090 *  0.726560 *   4.00000    1.000000    
     10 Ge    c    0.839810 *  0.706090 *  0.726560 *   4.00000    1.000000    
     11 Ge    c    0.660190 *  0.293910 *  0.726560 *   4.00000    1.000000    
     12 Ge    c    0.160190 *  0.706090 *  0.273440 *   4.00000    1.000000    
     13 Ge    c    0.339810 *  0.293910 *  0.273440 *   4.00000    1.000000    
     14 Ge    c    0.660660 *  0.294090 *  0.017440 *   4.00000    1.000000    
     15 Ge    c    0.839340 *  0.705910 *  0.017440 *   4.00000    1.000000    
     16 Ge    c    0.339340 *  0.294090 *  0.982560 *   4.00000    1.000000    
     17 Ge    c    0.160660 *  0.705910 *  0.982560 *   4.00000    1.000000    
     18 Ge    c    0.339340 *  0.705910 *  0.982560 *   4.00000    1.000000    
     19 Ge    c    0.660660 *  0.705910 *  0.017440 *   4.00000    1.000000    
     20 Ge    c    0.839340 *  0.294090 *  0.017440 *   4.00000    1.000000    
     21 Si    c    0.552090 *  0.000000 *  0.627730 *   4.00000    1.000000    
     22 Si    c    0.556730 *  0.000000 *  0.122130 *   4.00000    1.000000    
     23 Si    c    0.443270 *  0.000000 *  0.877870 *   4.00000    1.000000    
     24 Si    c    0.160660 *  0.294090 *  0.982560 *   4.00000    1.000000    
     25 O1    c    0.106570 *  0.174340 *  0.366200 *   1.73396    1.000000    
     26 O1    c    0.393430 *  0.825660 *  0.366200 *   1.73396    1.000000    
     27 O1    c    0.893430 *  0.174340 *  0.633800 *   1.73396    1.000000    
     28 O3    c    0.606570 *  0.825660 *  0.633800 *   1.33043    1.000000    
     29 O1    c    0.893430 *  0.825660 *  0.633800 *   1.73396    1.000000    
     30 O3    c    0.606570 *  0.174340 *  0.633800 *   1.33043    1.000000    
     31 O1    c    0.106570 *  0.825660 *  0.366200 *   1.73396    1.000000    
     32 O1    c    0.393430 *  0.174340 *  0.366200 *   1.73396    1.000000    
     33 O1    c    0.000000 *  0.000000 *  0.500000 *   1.73396    1.000000    
     34 O3    c    0.500000 *  0.000000 *  0.500000 *   1.33043    1.000000    
     35 O1    c    0.994520 *  0.000000 *  0.250840 *   1.73396    1.000000    
     36 O3    c    0.505480 *  0.000000 *  0.250840 *   1.33043    1.000000    
     37 O1    c    0.005480 *  0.000000 *  0.749160 *   1.73396    1.000000    
     38 O2    c    0.494520 *  0.000000 *  0.749160 *   0.87073    1.000000    
     39 O3    c    0.610230 *  0.175520 *  0.115390 *   1.33043    1.000000    
     40 O1    c    0.889770 *  0.824480 *  0.115390 *   1.73396    1.000000    
     41 O3    c    0.389770 *  0.175520 *  0.884610 *   1.33043    1.000000    
     42 O1    c    0.110230 *  0.824480 *  0.884610 *   1.73396    1.000000    
     43 O3    c    0.389770 *  0.824480 *  0.884610 *   1.33043    1.000000    
     44 O3    c    0.110230 *  0.175520 *  0.884610 *   1.33043    1.000000    
     45 O3    c    0.610230 *  0.824480 *  0.115390 *   1.33043    1.000000    
     46 O1    c    0.889770 *  0.175520 *  0.115390 *   1.73396    1.000000    
     47 O2    c    0.500000 *  0.000000 *  0.000000 *   0.87073    1.000000    
     48 O1    c    0.000000 *  0.000000 *  0.000000 *   1.73396    1.000000    
     49 O1    c    0.151750 *  0.500000 *  0.313330 *   1.73396    1.000000    
     50 O1    c    0.348250 *  0.500000 *  0.313330 *   1.73396    1.000000    
     51 O1    c    0.848250 *  0.500000 *  0.686670 *   1.73396    1.000000    
     52 O1    c    0.651750 *  0.500000 *  0.686670 *   1.73396    1.000000    
     53 O1    c    0.250000 *  0.234950 *  0.285720 *   1.73396    1.000000    
     54 O1    c    0.250000 *  0.765050 *  0.285720 *   1.73396    1.000000    
     55 O1    c    0.750000 *  0.234950 *  0.714280 *   1.73396    1.000000    
     56 O1    c    0.750000 *  0.765050 *  0.714280 *   1.73396    1.000000    
     57 O3    c    0.131410 *  0.268650 *  0.127790 *   1.33043    1.000000    
     58 O1    c    0.368590 *  0.731350 *  0.127790 *   1.73396    1.000000    
     59 O1    c    0.868590 *  0.268650 *  0.872210 *   1.73396    1.000000    
     60 O1    c    0.631410 *  0.731350 *  0.872210 *   1.73396    1.000000    
     61 O1    c    0.868590 *  0.731350 *  0.872210 *   1.73396    1.000000    
     62 O1    c    0.631410 *  0.268650 *  0.872210 *   1.73396    1.000000    
     63 O1    c    0.131410 *  0.731350 *  0.127790 *   1.73396    1.000000    
     64 O1    c    0.368590 *  0.268650 *  0.127790 *   1.73396    1.000000    
     65 O1    c    0.653920 *  0.500000 *  0.058200 *   1.73396    1.000000    
     66 O1    c    0.846080 *  0.500000 *  0.058200 *   1.73396    1.000000    
     67 O1    c    0.346080 *  0.500000 *  0.941800 *   1.73396    1.000000    
     68 O3    c    0.153920 *  0.500000 *  0.941800 *   1.33043    1.000000    
     69 O1    c    0.750000 *  0.231060 *  0.027050 *   1.73396    1.000000    
     70 O1    c    0.750000 *  0.768940 *  0.027050 *   1.73396    1.000000    
     71 O3    c    0.250000 *  0.231060 *  0.972950 *   1.33043    1.000000    
     72 O1    c    0.250000 *  0.768940 *  0.972950 *   1.73396    1.000000    
     73 O1    s    0.106570 *  0.174340 *  0.366200 *  -3.73396    1.000000    
     74 O1    s    0.393430 *  0.825660 *  0.366200 *  -3.73396    1.000000    
     75 O1    s    0.893430 *  0.174340 *  0.633800 *  -3.73396    1.000000    
     76 O3    s    0.606570 *  0.825660 *  0.633800 *  -3.33043    1.000000    
     77 O1    s    0.893430 *  0.825660 *  0.633800 *  -3.73396    1.000000    
     78 O3    s    0.606570 *  0.174340 *  0.633800 *  -3.33043    1.000000    
     79 O1    s    0.106570 *  0.825660 *  0.366200 *  -3.73396    1.000000    
     80 O1    s    0.393430 *  0.174340 *  0.366200 *  -3.73396    1.000000    
     81 O1    s    0.000000 *  0.000000 *  0.500000 *  -3.73396    1.000000    
     82 O3    s    0.500000 *  0.000000 *  0.500000 *  -3.33043    1.000000    
     83 O1    s    0.994520 *  0.000000 *  0.250840 *  -3.73396    1.000000    
     84 O3    s    0.505480 *  0.000000 *  0.250840 *  -3.33043    1.000000    
     85 O1    s    0.005480 *  0.000000 *  0.749160 *  -3.73396    1.000000    
     86 O2    s    0.494520 *  0.000000 *  0.749160 *  -2.87073    1.000000    
     87 O3    s    0.610230 *  0.175520 *  0.115390 *  -3.33043    1.000000    
     88 O1    s    0.889770 *  0.824480 *  0.115390 *  -3.73396    1.000000    
     89 O3    s    0.389770 *  0.175520 *  0.884610 *  -3.33043    1.000000    
     90 O1    s    0.110230 *  0.824480 *  0.884610 *  -3.73396    1.000000    
     91 O3    s    0.389770 *  0.824480 *  0.884610 *  -3.33043    1.000000    
     92 O3    s    0.110230 *  0.175520 *  0.884610 *  -3.33043    1.000000    
     93 O3    s    0.610230 *  0.824480 *  0.115390 *  -3.33043    1.000000    
     94 O1    s    0.889770 *  0.175520 *  0.115390 *  -3.73396    1.000000    
     95 O2    s    0.500000 *  0.000000 *  0.000000 *  -2.87073    1.000000    
     96 O1    s    0.000000 *  0.000000 *  0.000000 *  -3.73396    1.000000    
     97 O1    s    0.151750 *  0.500000 *  0.313330 *  -3.73396    1.000000    
     98 O1    s    0.348250 *  0.500000 *  0.313330 *  -3.73396    1.000000    
     99 O1    s    0.848250 *  0.500000 *  0.686670 *  -3.73396    1.000000    
    100 O1    s    0.651750 *  0.500000 *  0.686670 *  -3.73396    1.000000    
    101 O1    s    0.250000 *  0.234950 *  0.285720 *  -3.73396    1.000000    
    102 O1    s    0.250000 *  0.765050 *  0.285720 *  -3.73396    1.000000    
    103 O1    s    0.750000 *  0.234950 *  0.714280 *  -3.73396    1.000000    
    104 O1    s    0.750000 *  0.765050 *  0.714280 *  -3.73396    1.000000    
    105 O3    s    0.131410 *  0.268650 *  0.127790 *  -3.33043    1.000000    
    106 O1    s    0.368590 *  0.731350 *  0.127790 *  -3.73396    1.000000    
    107 O1    s    0.868590 *  0.268650 *  0.872210 *  -3.73396    1.000000    
    108 O1    s    0.631410 *  0.731350 *  0.872210 *  -3.73396    1.000000    
    109 O1    s    0.868590 *  0.731350 *  0.872210 *  -3.73396    1.000000    
    110 O1    s    0.631410 *  0.268650 *  0.872210 *  -3.73396    1.000000    
    111 O1    s    0.131410 *  0.731350 *  0.127790 *  -3.73396    1.000000    
    112 O1    s    0.368590 *  0.268650 *  0.127790 *  -3.73396    1.000000    
    113 O1    s    0.653920 *  0.500000 *  0.058200 *  -3.73396    1.000000    
    114 O1    s    0.846080 *  0.500000 *  0.058200 *  -3.73396    1.000000    
    115 O1    s    0.346080 *  0.500000 *  0.941800 *  -3.73396    1.000000    
    116 O3    s    0.153920 *  0.500000 *  0.941800 *  -3.33043    1.000000    
    117 O1    s    0.750000 *  0.231060 *  0.027050 *  -3.73396    1.000000    
    118 O1    s    0.750000 *  0.768940 *  0.027050 *  -3.73396    1.000000    
    119 O3    s    0.250000 *  0.231060 *  0.972950 *  -3.33043    1.000000    
    120 O1    s    0.250000 *  0.768940 *  0.972950 *  -3.73396    1.000000    
--------------------------------------------------------------------------------



********************************************************************************
*  General input information                                                   *
********************************************************************************

  Species output for all configurations : 

--------------------------------------------------------------------------------
  Species    Type    Atomic    Atomic    Charge       Radii (Angs)     Library
                     Number     Mass       (e)     Cova   Ionic  VDW   Symbol
--------------------------------------------------------------------------------
    Ge       Core       32      72.61   4.000000   1.170  0.000  1.750 Ge       
    Si       Core       14      28.09   4.000000   1.200  0.000  2.100 Si       
    O1       Core        8      16.00   1.733957   0.730  0.000  1.360 O1       
    O2       Core        8      16.00   0.870733   0.730  0.000  1.360 O2       
    O3       Core        8      16.00   1.330431   0.730  0.000  1.360 O3       
    O1       Shell       8       0.00  -3.733957   0.730  0.000  0.000 O1       
    O2       Shell       8       0.00  -2.870733   0.730  0.000  0.000 O2       
    O3       Shell       8       0.00  -3.330431   0.730  0.000  0.000 O3       
--------------------------------------------------------------------------------


  Lattice summation method               =    Ewald          (3-D)
                                         =    Parry          (2-D)
                                         =    Saunders et al (1-D)
  Accuracy factor for lattice sums       =   12.000


  Analytic derivatives to be used

  Time limit = Infinity

  Maximum range for interatomic potentials =    100000.000000 Angstroms

  General interatomic potentials :

--------------------------------------------------------------------------------
Atom  Types   Potential      Parameter       Value         Units   Cutoffs(Ang)
  1     2                                                            Min /  Max 
--------------------------------------------------------------------------------
Si   c O1   s Buckingham    Buckingham A     1315.2478    eV        0.000 16.000
                            Buckingham rho  0.31775900    Ang       
                            Buckingham C     10.141118    eV*Ang^6  
--------------------------------------------------------------------------------
Si   c O2   s Buckingham    Buckingham A     1315.2478    eV        0.000 16.000
                            Buckingham rho  0.31775900    Ang       
                            Buckingham C     10.141118    eV*Ang^6  
--------------------------------------------------------------------------------
Si   c O3   s Buckingham    Buckingham A     1315.2478    eV        0.000 16.000
                            Buckingham rho  0.31775900    Ang       
                            Buckingham C     10.141118    eV*Ang^6  
--------------------------------------------------------------------------------
Ge   c O1   s Buckingham    Buckingham A     1497.3996    eV        0.000 16.000
                            Buckingham rho  0.32564600    Ang       
                            Buckingham C     16.808599    eV*Ang^6  
--------------------------------------------------------------------------------
Ge   c O2   s Buckingham    Buckingham A     1497.3996    eV        0.000 16.000
                            Buckingham rho  0.32564600    Ang       
                            Buckingham C     16.808599    eV*Ang^6  
--------------------------------------------------------------------------------
Ge   c O3   s Buckingham    Buckingham A     1497.3996    eV        0.000 16.000
                            Buckingham rho  0.32564600    Ang       
                            Buckingham C     16.808599    eV*Ang^6  
--------------------------------------------------------------------------------
O1   s O1   s Buckingham    Buckingham A     22764.000    eV        0.000 16.000
                            Buckingham rho  0.14900000    Ang       
                            Buckingham C     10.937044    eV*Ang^6  
--------------------------------------------------------------------------------
O1   s O2   s Buckingham    Buckingham A     22764.000    eV        0.000 16.000
                            Buckingham rho  0.14900000    Ang       
                            Buckingham C     10.937044    eV*Ang^6  
--------------------------------------------------------------------------------
O1   s O3   s Buckingham    Buckingham A     22764.000    eV        0.000 16.000
                            Buckingham rho  0.14900000    Ang       
                            Buckingham C     10.937044    eV*Ang^6  
--------------------------------------------------------------------------------
O2   s O2   s Buckingham    Buckingham A     22764.000    eV        0.000 16.000
                            Buckingham rho  0.14900000    Ang       
                            Buckingham C     10.937044    eV*Ang^6  
--------------------------------------------------------------------------------
O2   s O3   s Buckingham    Buckingham A     22764.000    eV        0.000 16.000
                            Buckingham rho  0.14900000    Ang       
                            Buckingham C     10.937044    eV*Ang^6  
--------------------------------------------------------------------------------
O3   s O3   s Buckingham    Buckingham A     22764.000    eV        0.000 16.000
                            Buckingham rho  0.14900000    Ang       
                            Buckingham C     10.937044    eV*Ang^6  
--------------------------------------------------------------------------------
O1   c O1   s Spring (c-s)  Spring k 2       180.31577    eV*Ang^-2 0.000  0.800
                            Spring k 4       0.0000000    eV*Ang^-4 
--------------------------------------------------------------------------------
O2   c O2   s Spring (c-s)  Spring k 2       75.969800    eV*Ang^-2 0.000  0.800
                            Spring k 4       0.0000000    eV*Ang^-4 
--------------------------------------------------------------------------------
O3   c O3   s Spring (c-s)  Spring k 2       128.14270    eV*Ang^-2 0.000  0.800
                            Spring k 4       0.0000000    eV*Ang^-4 
--------------------------------------------------------------------------------

  General Three-body potentials :

--------------------------------------------------------------------------------
  Atoms       Potential      Parameter       Value         Units   Cutoffs(Ang)
  1 / 2 / 3                                                          Min /  Max 
--------------------------------------------------------------------------------
Si    core    Harmonic      Three-body cnst  1.2614000    eV*rad^-2 0.000  1.900
O1    shel                  Three-body angl  109.47000    degrees   0.000  1.900
O1    shel                  Three-body k4    0.0000000    eV*rad^-4 0.000  3.500
                            Three-body k3    0.0000000    eV*rad^-3 
--------------------------------------------------------------------------------
Si    core    Harmonic      Three-body cnst  1.2614000    eV*rad^-2 0.000  1.900
O1    shel                  Three-body angl  109.47000    degrees   0.000  1.900
õ(1   shel                  Three-body k4    0.0000000    eV*rad^-4 0.000  3.500
                            Three-body k3    0.0000000    eV*rad^-3 
--------------------------------------------------------------------------------
Si    core    Harmonic      Three-body cnst  1.2614000    eV*rad^-2 0.000  1.900
õ(1   shel                  Three-body angl  109.47000    degrees   0.000  1.900
õ(1   shel                  Three-body k4    0.0000000    eV*rad^-4 0.000  3.500
                            Three-body k3    0.0000000    eV*rad^-3 
--------------------------------------------------------------------------------
Si    core    Harmonic      Three-body cnst  1.2614000    eV*rad^-2 0.000  1.900
O1    shel                  Three-body angl  109.47000    degrees   0.000  1.900
O2    shel                  Three-body k4    0.0000000    eV*rad^-4 0.000  3.500
                            Three-body k3    0.0000000    eV*rad^-3 
--------------------------------------------------------------------------------
Si    core    Harmonic      Three-body cnst  1.2614000    eV*rad^-2 0.000  1.900
O1    shel                  Three-body angl  109.47000    degrees   0.000  1.900
õ(2   shel                  Three-body k4    0.0000000    eV*rad^-4 0.000  3.500
                            Three-body k3    0.0000000    eV*rad^-3 
--------------------------------------------------------------------------------
Si    core    Harmonic      Three-body cnst  1.2614000    eV*rad^-2 0.000  1.900
O2    shel                  Three-body angl  109.47000    degrees   0.000  1.900
õ(1   shel                  Three-body k4    0.0000000    eV*rad^-4 0.000  3.500
                            Three-body k3    0.0000000    eV*rad^-3 
--------------------------------------------------------------------------------
Si    core    Harmonic      Three-body cnst  1.2614000    eV*rad^-2 0.000  1.900
õ(1   shel                  Three-body angl  109.47000    degrees   0.000  1.900
õ(2   shel                  Three-body k4    0.0000000    eV*rad^-4 0.000  3.500
                            Three-body k3    0.0000000    eV*rad^-3 
--------------------------------------------------------------------------------
Si    core    Harmonic      Three-body cnst  1.2614000    eV*rad^-2 0.000  1.900
O2    shel                  Three-body angl  109.47000    degrees   0.000  1.900
O2    shel                  Three-body k4    0.0000000    eV*rad^-4 0.000  3.500
                            Three-body k3    0.0000000    eV*rad^-3 
--------------------------------------------------------------------------------
Si    core    Harmonic      Three-body cnst  1.2614000    eV*rad^-2 0.000  1.900
O2    shel                  Three-body angl  109.47000    degrees   0.000  1.900
õ(2   shel                  Three-body k4    0.0000000    eV*rad^-4 0.000  3.500
                            Three-body k3    0.0000000    eV*rad^-3 
--------------------------------------------------------------------------------
Si    core    Harmonic      Three-body cnst  1.2614000    eV*rad^-2 0.000  1.900
õ(2   shel                  Three-body angl  109.47000    degrees   0.000  1.900
õ(2   shel                  Three-body k4    0.0000000    eV*rad^-4 0.000  3.500
                            Three-body k3    0.0000000    eV*rad^-3 
--------------------------------------------------------------------------------

********************************************************************************
*  Output for configuration   1 : c01221.vasp                                  *
********************************************************************************


  Components of energy : 

--------------------------------------------------------------------------------
  Interatomic potentials     =         896.51905407 eV    
  Three-body potentials      =           0.00000088 eV    
  Monopole - monopole (real) =       -2676.00317478 eV    
  Monopole - monopole (recip)=       -1115.35404472 eV    
  Monopole - monopole (total)=       -3791.35721950 eV    
--------------------------------------------------------------------------------
  Total lattice energy       =       -2894.83816455 eV    
--------------------------------------------------------------------------------
  Total lattice energy       =         -279307.6312 kJ/(mole unit cells)
--------------------------------------------------------------------------------


  Number of variables =      363

  Maximum number of calculations  =          1000
  Maximum Hessian update interval =            10
  Maximum step size               =   0.100000000
  Maximum parameter tolerance     =   0.000010000
  Maximum function  tolerance     =   0.000010000
  Maximum gradient  tolerance     =   0.001000000
  Maximum gradient  component     =   0.010000000

  Symmetry not applied to optimisation

  Cell parameters to be optimised using strains

  Newton-Raphson optimiser to be used

  BFGS hessian update to be used

  Lower half triangular hessian to be used

  Minimiser to switch to RFO
  When gradient norm is less than     0.050000

  Dumpfile to be written after every cycle

  Start of bulk optimisation :

  Cycle:      0 Energy:     -2894.838165  Gnorm:      5.929633  CPU:    0.093
  ** Hessian calculated **
  Cycle:      1 Energy:     -2938.302099  Gnorm:      1.420007  CPU:    0.200
  ** Hessian calculated **
  Cycle:      2 Energy:     -2943.254531  Gnorm:      0.810640  CPU:    0.383
  Cycle:      3 Energy:     -2944.181643  Gnorm:      0.364057  CPU:    0.468
  Cycle:      4 Energy:     -2944.642196  Gnorm:      0.296521  CPU:    0.569
  Cycle:      5 Energy:     -2945.203129  Gnorm:      0.258980  CPU:    0.670
  Cycle:      6 Energy:     -2945.828734  Gnorm:      0.222729  CPU:    0.771
  Cycle:      7 Energy:     -2946.224506  Gnorm:      0.183363  CPU:    0.856
  Cycle:      8 Energy:     -2946.374707  Gnorm:      0.121024  CPU:    0.941
  Cycle:      9 Energy:     -2946.425616  Gnorm:      0.094669  CPU:    1.026
  Cycle:     10 Energy:     -2946.469802  Gnorm:      0.082749  CPU:    1.127
  Cycle:     11 Energy:     -2946.507128  Gnorm:      0.080460  CPU:    1.229
  ** Hessian calculated **
  Cycle:     12 Energy:     -2946.518277  Gnorm:      0.071048  CPU:    1.411
  Cycle:     13 Energy:     -2946.537438  Gnorm:      0.066878  CPU:    1.528
  Cycle:     14 Energy:     -2946.560095  Gnorm:      0.063102  CPU:    1.628
  Cycle:     15 Energy:     -2946.587503  Gnorm:      0.052710  CPU:    1.730
  Cycle:     16 Energy:     -2946.617690  Gnorm:      0.053703  CPU:    1.831
  Cycle:     17 Energy:     -2946.637600  Gnorm:      0.048673  CPU:    1.915
  ** Hessian has required structure
  Cycle:     18 Energy:     -2946.645062  Gnorm:      0.109002  CPU:    2.035
  ** Hessian has required structure
  Cycle:     19 Energy:     -2946.669776  Gnorm:      0.142220  CPU:    2.170
  ** Hessian has required structure
  Cycle:     20 Energy:     -2946.698241  Gnorm:      0.132737  CPU:    2.290
  ** Hessian has required structure
  Cycle:     21 Energy:     -2946.702393  Gnorm:      0.143388  CPU:    2.410
  ** Hessian has wrong structure
  ** Imaginary eigenvectors =   5
  ** Hessian has wrong structure
  ** Imaginary eigenvectors =   5
  Cycle:     22 Energy:     -2946.813214  Gnorm:      0.146275  CPU:    2.934
  ** Hessian has wrong structure
  ** Imaginary eigenvectors =   3
  Cycle:     23 Energy:     -2946.926373  Gnorm:      0.156367  CPU:    3.285
  ** Hessian has wrong structure
  ** Imaginary eigenvectors =   2
  ** Hessian has wrong structure
  ** Imaginary eigenvectors =   2
  Cycle:     24 Energy:     -2946.952887  Gnorm:      0.156134  CPU:    3.778
  ** Hessian has wrong structure
  ** Imaginary eigenvectors =   1
  ** Hessian has required structure
  Cycle:     25 Energy:     -2947.310389  Gnorm:      0.120453  CPU:    4.238
  ** Hessian has required structure
  Cycle:     26 Energy:     -2947.501779  Gnorm:      0.070911  CPU:    4.374
  ** Hessian has required structure
  Cycle:     27 Energy:     -2947.565866  Gnorm:      0.042578  CPU:    4.510
  ** Hessian has required structure
  Cycle:     28 Energy:     -2947.607603  Gnorm:      0.033818  CPU:    4.646
  ** Hessian has required structure
  Cycle:     29 Energy:     -2947.623789  Gnorm:      0.039289  CPU:    4.768
  ** Hessian has required structure
  Cycle:     30 Energy:     -2947.633687  Gnorm:      0.026894  CPU:    4.889
  ** Hessian has required structure
  Cycle:     31 Energy:     -2947.645103  Gnorm:      0.027157  CPU:    5.042
  ** Hessian has required structure
  Cycle:     32 Energy:     -2947.652815  Gnorm:      0.022911  CPU:    5.180
  ** Hessian has required structure
  Cycle:     33 Energy:     -2947.656977  Gnorm:      0.015722  CPU:    5.317
  ** Hessian has required structure
  Cycle:     34 Energy:     -2947.659506  Gnorm:      0.014474  CPU:    5.453
  ** Hessian has required structure
  Cycle:     35 Energy:     -2947.663525  Gnorm:      0.010533  CPU:    5.682
  ** Hessian has required structure
  Cycle:     36 Energy:     -2947.666035  Gnorm:      0.007101  CPU:    5.820
  ** Hessian has required structure
  Cycle:     37 Energy:     -2947.667176  Gnorm:      0.003675  CPU:    5.973
  ** Hessian has required structure
  Cycle:     38 Energy:     -2947.667534  Gnorm:      0.002149  CPU:    6.125
  ** Hessian has required structure
  Cycle:     39 Energy:     -2947.667642  Gnorm:      0.001308  CPU:    6.262
  ** Hessian has required structure
  Cycle:     40 Energy:     -2947.667695  Gnorm:      0.000892  CPU:    6.398
  ** Hessian has required structure
  Cycle:     41 Energy:     -2947.667720  Gnorm:      0.000296  CPU:    6.566
  ** Hessian has required structure
  Cycle:     42 Energy:     -2947.667722  Gnorm:      0.000244  CPU:    6.687
  ** Hessian has required structure
  Cycle:     43 Energy:     -2947.667726  Gnorm:      0.000125  CPU:    6.822
  ** Hessian has required structure
  Cycle:     44 Energy:     -2947.667727  Gnorm:      0.000094  CPU:    6.944
  ** Hessian has required structure
  Cycle:     45 Energy:     -2947.667728  Gnorm:      0.000066  CPU:    7.139
  ** Hessian has required structure


  **** Optimisation achieved ****


  Final energy =   -2947.66772785 eV      
  Final Gnorm  =       0.00004626

  Components of energy : 

--------------------------------------------------------------------------------
  Interatomic potentials     =         775.64323606 eV    
  Three-body potentials      =           0.00000723 eV    
  Monopole - monopole (real) =       -1577.46145704 eV    
  Monopole - monopole (recip)=       -2145.84951410 eV    
  Monopole - monopole (total)=       -3723.31097114 eV    
--------------------------------------------------------------------------------
  Total lattice energy       =       -2947.66772785 eV    
--------------------------------------------------------------------------------
  Total lattice energy       =         -284404.8765 kJ/(mole unit cells)
--------------------------------------------------------------------------------

  Final fractional coordinates of atoms :

--------------------------------------------------------------------------------
   No.  Atomic        x           y          z          Radius
        Label       (Frac)      (Frac)     (Frac)       (Angs) 
--------------------------------------------------------------------------------
     1  Ge    c     0.052090    0.000000    0.372270    0.000000
     2  Ge    c     0.450556    0.027904    0.403860    0.000000
     3  Ge    c     0.948937    0.998300    0.627627    0.000000
     4  Ge    c     0.950038    0.001929    0.115780    0.000000
     5  Ge    c     0.060979    0.999314    0.869049    0.000000
     6  Ge    c     0.172989    0.281922    0.295041    0.000000
     7  Ge    c     0.332561    0.741685    0.291598    0.000000
     8  Ge    c     0.828272    0.283003    0.741552    0.000000
     9  Ge    c     0.665484    0.734666    0.735002    0.000000
    10  Ge    c     0.848212    0.686238    0.737196    0.000000
    11  Ge    c     0.645385    0.331692    0.739377    0.000000
    12  Ge    c     0.150397    0.687554    0.288773    0.000000
    13  Ge    c     0.354108    0.337697    0.299979    0.000000
    14  Ge    c     0.644436    0.335079    0.049846    0.000000
    15  Ge    c     0.848103    0.685538    0.050195    0.000000
    16  Ge    c     0.354613    0.323536    0.989137    0.000000
    17  Ge    c     0.154521    0.681204    0.980406    0.000000
    18  Ge    c     0.339626    0.724149    0.982127    0.000000
    19  Ge    c     0.665835    0.738440    0.046438    0.000000
    20  Ge    c     0.827293    0.284131    0.051622    0.000000
    21  Si    c     0.551223    0.018871    0.657420    0.000000
    22  Si    c     0.553308    0.022524    0.152771    0.000000
    23  Si    c     0.451511    0.012203    0.906154    0.000000
    24  Si    c     0.173573    0.282954    0.991095    0.000000
    25  O1    c     0.122398    0.150171    0.391868    0.000000
    26  O1    c     0.376603    0.889179    0.385074    0.000000
    27  O1    c     0.877297    0.139741    0.651836    0.000000
    28  O3    c     0.616168    0.878224    0.643004    0.000000
    29  O1    c     0.914553    0.797525    0.652419    0.000000
    30  O3    c     0.586956    0.205235    0.645000    0.000000
    31  O1    c     0.090523    0.801359    0.384891    0.000000
    32  O1    c     0.417898    0.230228    0.392682    0.000000
    33  O1    c     0.975968    0.020813    0.469857    0.000000
    34  O3    c     0.486200    0.990384    0.554654    0.000000
    35  O1    c     0.024138    0.033067    0.215777    0.000000
    36  O3    c     0.520344    0.988480    0.292198    0.000000
    37  O1    c     0.030427    0.031695    0.714975    0.000000
    38  O2    c     0.517176    0.997891    0.800996    0.000000
    39  O3    c     0.582339    0.214900    0.140335    0.000000
    40  O1    c     0.911142    0.803321    0.137215    0.000000
    41  O3    c     0.410741    0.192807    0.897042    0.000000
    42  O1    c     0.096793    0.797470    0.883509    0.000000
    43  O3    c     0.389290    0.865714    0.887873    0.000000
    44  O3    c     0.131732    0.144566    0.904334    0.000000
    45  O3    c     0.622025    0.893204    0.134739    0.000000
    46  O1    c     0.878173    0.145811    0.141124    0.000000
    47  O2    c     0.487914    0.986612    0.047002    0.000000
    48  O1    c     0.981398    0.024476    0.960541    0.000000
    49  O1    c     0.159163    0.487326    0.346265    0.000000
    50  O1    c     0.344136    0.540692    0.353437    0.000000
    51  O1    c     0.839889    0.483394    0.679627    0.000000
    52  O1    c     0.651864    0.531378    0.677084    0.000000
    53  O1    c     0.267386    0.235921    0.303715    0.000000
    54  O1    c     0.237795    0.786030    0.284395    0.000000
    55  O1    c     0.733066    0.237553    0.743374    0.000000
    56  O1    c     0.760529    0.782081    0.729988    0.000000
    57  O3    c     0.142821    0.275795    0.136080    0.000000
    58  O1    c     0.368535    0.737392    0.138712    0.000000
    59  O1    c     0.860499    0.278956    0.896479    0.000000
    60  O1    c     0.634891    0.736539    0.890919    0.000000
    61  O1    c     0.878321    0.677704    0.893385    0.000000
    62  O1    c     0.612618    0.342335    0.894345    0.000000
    63  O1    c     0.117875    0.691467    0.132686    0.000000
    64  O1    c     0.386427    0.331508    0.144075    0.000000
    65  O1    c     0.650178    0.538313    0.108065    0.000000
    66  O1    c     0.839570    0.486552    0.111400    0.000000
    67  O1    c     0.355874    0.522376    0.925535    0.000000
    68  O3    c     0.159520    0.469991    0.934136    0.000000
    69  O1    c     0.732012    0.240753    0.051789    0.000000
    70  O1    c     0.760829    0.782623    0.048288    0.000000
    71  O3    c     0.262937    0.244553    0.993876    0.000000
    72  O1    c     0.244494    0.765095    0.975823    0.000000
    73  O1    s     0.121135    0.149356    0.382937    0.000000
    74  O1    s     0.378858    0.888218    0.379070    0.000000
    75  O1    s     0.879026    0.140005    0.657073    0.000000
    76  O3    s     0.613836    0.880317    0.651732    0.000000
    77  O1    s     0.912044    0.804142    0.657060    0.000000
    78  O3    s     0.588020    0.197077    0.653431    0.000000
    79  O1    s     0.092166    0.807528    0.376784    0.000000
    80  O1    s     0.415601    0.222688    0.386549    0.000000
    81  O1    s     0.980091    0.017444    0.473632    0.000000
    82  O3    s     0.490084    0.996505    0.553003    0.000000
    83  O1    s     0.020179    0.028081    0.219037    0.000000
    84  O3    s     0.517998    0.995213    0.287071    0.000000
    85  O1    s     0.026724    0.026811    0.719991    0.000000
    86  O2    s     0.513456    0.001634    0.797962    0.000000
    87  O3    s     0.584468    0.205963    0.134386    0.000000
    88  O1    s     0.909154    0.808695    0.129070    0.000000
    89  O3    s     0.410185    0.185766    0.905325    0.000000
    90  O1    s     0.098609    0.803303    0.889873    0.000000
    91  O3    s     0.391421    0.868755    0.897169    0.000000
    92  O3    s     0.130266    0.146881    0.910291    0.000000
    93  O3    s     0.618822    0.893151    0.129115    0.000000
    94  O1    s     0.879418    0.146212    0.132269    0.000000
    95  O2    s     0.490843    0.992947    0.043358    0.000000
    96  O1    s     0.985108    0.020846    0.964964    0.000000
    97  O1    s     0.159496    0.487944    0.337992    0.000000
    98  O1    s     0.344068    0.539558    0.344865    0.000000
    99  O1    s     0.839667    0.483952    0.688438    0.000000
   100  O1    s     0.652347    0.530918    0.685937    0.000000
   101  O1    s     0.266502    0.246848    0.302770    0.000000
   102  O1    s     0.238580    0.775496    0.285242    0.000000
   103  O1    s     0.733713    0.247934    0.742959    0.000000
   104  O1    s     0.759804    0.771612    0.730888    0.000000
   105  O3    s     0.148013    0.276938    0.134316    0.000000
   106  O1    s     0.363670    0.736698    0.138354    0.000000
   107  O1    s     0.855656    0.279648    0.896231    0.000000
   108  O1    s     0.639562    0.736519    0.890973    0.000000
   109  O1    s     0.873857    0.678928    0.893247    0.000000
   110  O1    s     0.617392    0.340994    0.894415    0.000000
   111  O1    s     0.122880    0.690501    0.132667    0.000000
   112  O1    s     0.381668    0.331323    0.143745    0.000000
   113  O1    s     0.650859    0.537547    0.099344    0.000000
   114  O1    s     0.839335    0.487223    0.102378    0.000000
   115  O1    s     0.354590    0.521945    0.934541    0.000000
   116  O3    s     0.160433    0.468792    0.942986    0.000000
   117  O1    s     0.732697    0.251093    0.051618    0.000000
   118  O1    s     0.760008    0.772142    0.048263    0.000000
   119  O3    s     0.261561    0.254498    0.993253    0.000000
   120  O1    s     0.245011    0.755611    0.976654    0.000000
--------------------------------------------------------------------------------

  Final Cartesian lattice vectors (Angstroms) :

       17.625361   -0.043694   -0.001547
       -0.019075    7.893761   -0.014898
       -0.000765   -0.021066   10.435843


  Final cell parameters and derivatives :

--------------------------------------------------------------------------------
       a           17.625415 Angstrom     dE/de1(xx)     0.004527 eV/strain
       b            7.893798 Angstrom     dE/de2(yy)     0.004281 eV/strain
       c           10.435864 Angstrom     dE/de3(zz)     0.002031 eV/strain
       alpha       90.223780 Degrees      dE/de4(yz)     0.000142 eV/strain
       beta        90.008942 Degrees      dE/de5(xz)    -0.000092 eV/strain
       gamma       90.280477 Degrees      dE/de6(xy)     0.000201 eV/strain
--------------------------------------------------------------------------------

  Primitive cell volume =          1451.928620 Angs**3

  Density of cell =      2.667740 g/cm**3

  Non-primitive cell volume =          1451.928620 Angs**3


  Final internal derivatives :

--------------------------------------------------------------------------------
   No.  Atomic          a             b             c           Radius
        Label          (eV)          (eV)          (eV)        (eV/Angs)
--------------------------------------------------------------------------------
      1 Ge    c       0.000000      0.000000      0.000000      0.000000
      2 Ge    c       0.000787      0.000195      0.000861      0.000000
      3 Ge    c       0.000748     -0.000141     -0.000062      0.000000
      4 Ge    c       0.000347     -0.000140     -0.000402      0.000000
      5 Ge    c      -0.001180     -0.000044     -0.000862      0.000000
      6 Ge    c      -0.000705     -0.000198     -0.000456      0.000000
      7 Ge    c       0.001186      0.000323     -0.000070      0.000000
      8 Ge    c       0.000240      0.000016      0.000040      0.000000
      9 Ge    c      -0.000006     -0.000031      0.000060      0.000000
     10 Ge    c       0.000197      0.000021      0.000078      0.000000
     11 Ge    c      -0.000175      0.000019      0.000073      0.000000
     12 Ge    c      -0.000736      0.000072     -0.000254      0.000000
     13 Ge    c       0.001031     -0.000286     -0.000072      0.000000
     14 Ge    c      -0.000012     -0.000110      0.000058      0.000000
     15 Ge    c      -0.000008      0.000036     -0.000193      0.000000
     16 Ge    c       0.000092      0.000106      0.000477      0.000000
     17 Ge    c      -0.000728      0.000168      0.000125      0.000000
     18 Ge    c       0.000945     -0.000091      0.001316      0.000000
     19 Ge    c      -0.000150      0.000029     -0.000094      0.000000
     20 Ge    c       0.000156      0.000023     -0.000173      0.000000
     21 Si    c      -0.001248      0.000226      0.000271      0.000000
     22 Si    c      -0.000894      0.000144      0.000395      0.000000
     23 Si    c       0.003582      0.000099      0.000818      0.000000
     24 Si    c      -0.001064     -0.000227      0.000586      0.000000
     25 O1    c       0.003805      0.001388      0.000375      0.000000
     26 O1    c      -0.002860     -0.001039     -0.000320      0.000000
     27 O1    c      -0.001092      0.000443      0.000146      0.000000
     28 O3    c       0.001548     -0.000591     -0.000124      0.000000
     29 O1    c       0.000098     -0.000088     -0.000100      0.000000
     30 O3    c       0.000176      0.000442     -0.000203      0.000000
     31 O1    c       0.000881     -0.001257      0.000438      0.000000
     32 O1    c      -0.000669      0.000562     -0.000174      0.000000
     33 O1    c      -0.002723      0.000153      0.001628      0.000000
     34 O3    c      -0.001400     -0.000233     -0.001289      0.000000
     35 O1    c       0.002166      0.000517     -0.000277      0.000000
     36 O3    c       0.001517     -0.000428     -0.001310      0.000000
     37 O1    c       0.000687      0.000032      0.000250      0.000000
     38 O2    c       0.002191     -0.000226     -0.001408      0.000000
     39 O3    c       0.000307      0.000316     -0.000053      0.000000
     40 O1    c      -0.000302     -0.000439      0.000233      0.000000
     41 O3    c      -0.002416      0.003134     -0.000822      0.000000
     42 O1    c       0.001007     -0.001383      0.000237      0.000000
     43 O3    c      -0.007086     -0.002223     -0.001432      0.000000
     44 O3    c       0.003099      0.001089      0.000328      0.000000
     45 O3    c       0.001871     -0.000581      0.000023      0.000000
     46 O1    c      -0.001919      0.000710      0.000298      0.000000
     47 O2    c      -0.000763     -0.000761      0.000423      0.000000
     48 O1    c      -0.002486      0.000387      0.000732      0.000000
     49 O1    c      -0.000580     -0.000128      0.000475      0.000000
     50 O1    c       0.000442      0.000139      0.000366      0.000000
     51 O1    c       0.000094     -0.000186     -0.000023      0.000000
     52 O1    c      -0.000033      0.000122     -0.000117      0.000000
     53 O1    c       0.000261     -0.000665     -0.000006      0.000000
     54 O1    c      -0.000069      0.000703     -0.000157      0.000000
     55 O1    c       0.000165     -0.000209      0.000023      0.000000
     56 O1    c      -0.000172      0.000172     -0.000024      0.000000
     57 O3    c      -0.000090     -0.000086      0.000086      0.000000
     58 O1    c       0.000089      0.000236     -0.000632      0.000000
     59 O1    c      -0.000016     -0.000068      0.000097      0.000000
     60 O1    c       0.000235      0.000129     -0.000070      0.000000
     61 O1    c      -0.000358      0.000034     -0.000043      0.000000
     62 O1    c       0.000410     -0.000089     -0.000176      0.000000
     63 O1    c       0.000418     -0.000012      0.000123      0.000000
     64 O1    c      -0.000518      0.000025     -0.000006      0.000000
     65 O1    c      -0.000094     -0.000046      0.000146      0.000000
     66 O1    c       0.000150     -0.000197      0.000093      0.000000
     67 O1    c       0.000721     -0.000477     -0.000720      0.000000
     68 O3    c      -0.000612      0.000512     -0.000557      0.000000
     69 O1    c       0.000011     -0.000167     -0.000017      0.000000
     70 O1    c       0.000041      0.000132     -0.000017      0.000000
     71 O3    c       0.001197     -0.000377      0.000117      0.000000
     72 O1    c      -0.001728      0.000452     -0.000024      0.000000
     73 O1    s      -0.000978     -0.000452      0.000289      0.000000
     74 O1    s       0.000741      0.000603      0.000159      0.000000
     75 O1    s       0.000398     -0.000190     -0.000108      0.000000
     76 O3    s       0.000017      0.000065      0.000055      0.000000
     77 O1    s      -0.000138     -0.000035      0.000129      0.000000
     78 O3    s       0.000323      0.000203      0.000121      0.000000
     79 O1    s      -0.000388     -0.000015     -0.000187      0.000000
     80 O1    s       0.000535      0.000069      0.000223      0.000000
     81 O1    s       0.000301      0.000095     -0.000668      0.000000
     82 O3    s       0.000683     -0.000013      0.000397      0.000000
     83 O1    s      -0.001716     -0.000265     -0.000259      0.000000
     84 O3    s      -0.000470      0.000158      0.000857      0.000000
     85 O1    s      -0.000807      0.000007     -0.000419      0.000000
     86 O2    s       0.001470     -0.000398     -0.000330      0.000000
     87 O3    s      -0.000098      0.000394      0.000073      0.000000
     88 O1    s       0.000032     -0.000156     -0.000089      0.000000
     89 O3    s       0.000597      0.000469      0.000430      0.000000
     90 O1    s      -0.000484      0.000233     -0.000260      0.000000
     91 O3    s       0.000060     -0.000146     -0.000446      0.000000
     92 O3    s      -0.000502     -0.000574     -0.000322      0.000000
     93 O3    s       0.000168      0.000101      0.000073      0.000000
     94 O1    s       0.000468     -0.000190     -0.000057      0.000000
     95 O2    s       0.002957      0.000410      0.000916      0.000000
     96 O1    s       0.000423     -0.000222     -0.000619      0.000000
     97 O1    s       0.000681      0.000064     -0.000267      0.000000
     98 O1    s      -0.000526     -0.000075     -0.000147      0.000000
     99 O1    s      -0.000154      0.000069      0.000045      0.000000
    100 O1    s       0.000033     -0.000033      0.000167      0.000000
    101 O1    s      -0.000012      0.000499      0.000123      0.000000
    102 O1    s      -0.000188     -0.000466      0.000290      0.000000
    103 O1    s       0.000018      0.000150     -0.000053      0.000000
    104 O1    s       0.000087     -0.000147      0.000013      0.000000
    105 O3    s      -0.000113      0.000170      0.000057      0.000000
    106 O1    s       0.000051     -0.000463      0.000674      0.000000
    107 O1    s      -0.000084      0.000104     -0.000028      0.000000
    108 O1    s      -0.000376     -0.000222      0.000052      0.000000
    109 O1    s       0.000414     -0.000025      0.000053      0.000000
    110 O1    s      -0.000727      0.000186      0.000230      0.000000
    111 O1    s      -0.000731      0.000022     -0.000128      0.000000
    112 O1    s       0.000802     -0.000002     -0.000077      0.000000
    113 O1    s       0.000048     -0.000025     -0.000171      0.000000
    114 O1    s      -0.000224      0.000099     -0.000073      0.000000
    115 O1    s      -0.000556      0.000055      0.000497      0.000000
    116 O3    s       0.000386     -0.000016      0.000179      0.000000
    117 O1    s       0.000036      0.000158      0.000037      0.000000
    118 O1    s       0.000052     -0.000105      0.000031      0.000000
    119 O3    s       0.000017      0.000120     -0.000188      0.000000
    120 O1    s       0.000284     -0.000148     -0.000131      0.000000
--------------------------------------------------------------------------------
  Maximum abs         0.007086      0.003134      0.001628      0.000000
--------------------------------------------------------------------------------


  Born effective charge tensors : 

-------------------------------------------------------------------------------
  Atom             x           y             z
-------------------------------------------------------------------------------
    1 Ge    x       4.1677     -0.1348      0.0053
            y       0.1360      3.9169      0.0047
            z      -0.8353      0.0180      4.2744
-------------------------------------------------------------------------------
    2 Ge    x       3.9887     -0.2125      0.3449
            y       0.2119      3.8928     -0.0030
            z       0.2852     -0.1079      4.5082
-------------------------------------------------------------------------------
    3 Ge    x       4.2689      0.1657     -0.4129
            y      -0.1783      3.8970     -0.0262
            z      -0.1803     -0.0894      4.4895
-------------------------------------------------------------------------------
    4 Ge    x       4.3880      0.1449     -0.0447
            y      -0.1427      3.9086      0.0183
            z       0.6255      0.0737      3.6695
-------------------------------------------------------------------------------
    5 Ge    x       4.3124     -0.2101      0.3725
            y       0.1227      3.9417      0.0479
            z       0.3417     -0.1105      3.9390
-------------------------------------------------------------------------------
    6 Ge    x       3.9971      0.2004     -0.3477
            y       0.2594      4.1686     -0.1523
            z      -0.0540     -0.1890      3.5208
-------------------------------------------------------------------------------
    7 Ge    x       3.9574      0.2382      0.2947
            y       0.2649      4.2432      0.1131
            z      -0.0064      0.2460      3.6281
-------------------------------------------------------------------------------
    8 Ge    x       4.0506     -0.2393     -0.2976
            y      -0.2674      4.2085      0.0665
            z      -0.0312      0.2021      3.6021
-------------------------------------------------------------------------------
    9 Ge    x       3.9850     -0.2019      0.2100
            y      -0.2608      4.2153     -0.0488
            z      -0.0586     -0.1285      3.5110
-------------------------------------------------------------------------------
   10 Ge    x       4.0727      0.0994     -0.1954
            y       0.4391      4.1588     -0.0791
            z      -0.0675     -0.1906      3.5906
-------------------------------------------------------------------------------
   11 Ge    x       3.8733      0.0772      0.1705
            y       0.4027      4.2214      0.0359
            z      -0.0400      0.1333      3.5364
-------------------------------------------------------------------------------
   12 Ge    x       3.9448     -0.1279     -0.2653
            y      -0.4143      4.1833      0.0831
            z      -0.0665      0.1567      3.5924
-------------------------------------------------------------------------------
   13 Ge    x       3.9531     -0.0909      0.2304
            y      -0.4695      4.1644     -0.0655
            z       0.0844     -0.1452      3.6394
-------------------------------------------------------------------------------
   14 Ge    x       3.9724      0.0533     -0.2239
            y       0.4175      4.2082     -0.0601
            z      -0.0261     -0.1433      3.4309
-------------------------------------------------------------------------------
   15 Ge    x       4.1178      0.1287      0.2979
            y       0.4144      4.1654      0.0448
            z       0.0898      0.1495      3.4433
-------------------------------------------------------------------------------
   16 Ge    x       3.9391     -0.1554     -0.2925
            y      -0.4061      4.1703      0.0406
            z      -0.0401      0.1197      3.4082
-------------------------------------------------------------------------------
   17 Ge    x       4.0777     -0.1354      0.2538
            y      -0.4055      4.1616     -0.1952
            z       0.0515     -0.2333      3.4524
-------------------------------------------------------------------------------
   18 Ge    x       4.0489      0.2309     -0.3113
            y       0.2674      4.2216     -0.0481
            z      -0.0168     -0.0927      3.3926
-------------------------------------------------------------------------------
   19 Ge    x       4.0118     -0.2083     -0.2712
            y      -0.2059      4.2409      0.0274
            z       0.0260      0.1645      3.4566
-------------------------------------------------------------------------------
   20 Ge    x       4.1473     -0.2441      0.3345
            y      -0.2751      4.1723     -0.0708
            z       0.0330     -0.1533      3.4371
-------------------------------------------------------------------------------
   21 Si    x       3.6963      0.1178      0.0810
            y      -0.1795      3.6513      0.0314
            z       0.8300      0.1308      3.8576
-------------------------------------------------------------------------------
   22 Si    x       3.6867      0.1314     -0.3923
            y      -0.2562      3.6709     -0.0288
            z      -0.4420     -0.1646      3.6044
-------------------------------------------------------------------------------
   23 Si    x       3.6203     -0.0736      0.0316
            y       0.1666      3.6830      0.0423
            z      -0.5337      0.0384      3.0321
-------------------------------------------------------------------------------
   24 Si    x       3.7795      0.2293      0.3378
            y       0.2033      3.9594      0.0837
            z       0.0304      0.1910      3.2771
-------------------------------------------------------------------------------
   25 O1    x      -2.1905     -0.9339      0.3456
            y      -0.9795     -2.2907      0.3737
            z       0.4016      0.3830     -1.6552
-------------------------------------------------------------------------------
   26 O1    x      -2.1876     -0.9361     -0.5261
            y      -0.9763     -2.3456     -0.5364
            z      -0.4715     -0.5372     -1.7051
-------------------------------------------------------------------------------
   27 O1    x      -2.2403      0.9554      0.5552
            y       0.9953     -2.3408     -0.5288
            z       0.5099     -0.5408     -1.6593
-------------------------------------------------------------------------------
   28 O3    x      -2.0629      0.9178     -0.2267
            y       0.9636     -2.2347      0.2809
            z      -0.2949      0.2865     -1.4880
-------------------------------------------------------------------------------
   29 O1    x      -2.0366     -0.8820      0.5138
            y      -0.8337     -2.4887      0.5038
            z       0.4706      0.5191     -1.6453
-------------------------------------------------------------------------------
   30 O3    x      -1.7571     -0.8379     -0.2673
            y      -0.7805     -2.4534     -0.2857
            z      -0.3204     -0.2947     -1.5077
-------------------------------------------------------------------------------
   31 O1    x      -1.9543      0.8709      0.3984
            y       0.8254     -2.4800     -0.3751
            z       0.4492     -0.3960     -1.6388
-------------------------------------------------------------------------------
   32 O1    x      -1.9467      0.8690     -0.4945
            y       0.8096     -2.4806      0.4654
            z      -0.4707      0.4893     -1.6976
-------------------------------------------------------------------------------
   33 O1    x      -2.0806      0.0176      0.9810
            y       0.0441     -1.2573      0.0010
            z       1.1767      0.0205     -3.1641
-------------------------------------------------------------------------------
   34 O3    x      -1.9098     -0.0155     -0.9733
            y      -0.0341     -1.1933      0.0007
            z      -1.2443      0.0213     -3.0793
-------------------------------------------------------------------------------
   35 O1    x      -2.1496     -0.0537     -0.8881
            y      -0.0513     -1.3323      0.0140
            z      -0.8343      0.0155     -2.6203
-------------------------------------------------------------------------------
   36 O3    x      -1.8258     -0.0116      0.8451
            y       0.0193     -1.2205      0.0299
            z       0.8682      0.0742     -2.8183
-------------------------------------------------------------------------------
   37 O1    x      -2.1851     -0.0362     -0.8610
            y      -0.0701     -1.2892     -0.0045
            z      -0.8917      0.0580     -2.7433
-------------------------------------------------------------------------------
   38 O2    x      -1.6369      0.0020      0.6213
            y       0.0054     -1.1548      0.0100
            z       0.6140      0.0040     -2.1174
-------------------------------------------------------------------------------
   39 O3    x      -1.8148     -0.7951      0.3890
            y      -0.7338     -2.4903      0.4161
            z       0.3415      0.4042     -1.4004
-------------------------------------------------------------------------------
   40 O1    x      -2.0914     -0.9027     -0.3644
            y      -0.8389     -2.4834     -0.2855
            z      -0.4003     -0.3259     -1.4581
-------------------------------------------------------------------------------
   41 O3    x      -1.9155      0.9100      0.3194
            y       0.8565     -2.4591     -0.3279
            z       0.3419     -0.3275     -1.3537
-------------------------------------------------------------------------------
   42 O1    x      -1.9931      0.8736     -0.5266
            y       0.8061     -2.6069      0.5248
            z      -0.4521      0.5147     -1.5758
-------------------------------------------------------------------------------
   43 O3    x      -2.0917     -0.9349      0.2553
            y      -0.9773     -2.2768      0.2781
            z       0.2970      0.2816     -1.3683
-------------------------------------------------------------------------------
   44 O3    x      -2.0369     -0.8926     -0.5877
            y      -0.8925     -2.2794     -0.6160
            z      -0.4972     -0.5803     -1.5529
-------------------------------------------------------------------------------
   45 O3    x      -2.1369      0.9236      0.4325
            y       0.9330     -2.2327     -0.4336
            z       0.3835     -0.4257     -1.4198
-------------------------------------------------------------------------------
   46 O1    x      -2.2897      0.9557     -0.2986
            y       0.9891     -2.2992      0.3096
            z      -0.3548      0.3388     -1.4786
-------------------------------------------------------------------------------
   47 O2    x      -1.6678     -0.0393     -0.5270
            y      -0.0311     -1.1895     -0.0202
            z      -0.3345     -0.0046     -1.8455
-------------------------------------------------------------------------------
   48 O1    x      -2.2619      0.0308      0.7855
            y       0.0219     -1.3276      0.0051
            z       0.5448      0.0100     -2.2637
-------------------------------------------------------------------------------
   49 O1    x      -1.3334      0.1754      0.0765
            y       0.2499     -3.2142      0.0412
            z       0.0315     -0.0119     -1.3759
-------------------------------------------------------------------------------
   50 O1    x      -1.3227      0.1412     -0.0713
            y       0.2395     -3.2077      0.0338
            z      -0.0299      0.0313     -1.3917
-------------------------------------------------------------------------------
   51 O1    x      -1.3502     -0.1369      0.0741
            y      -0.2119     -3.1902      0.0194
            z       0.0303      0.0077     -1.3901
-------------------------------------------------------------------------------
   52 O1    x      -1.3196     -0.1330     -0.0762
            y      -0.2234     -3.2784      0.0408
            z      -0.0299      0.0200     -1.3900
-------------------------------------------------------------------------------
   53 O1    x      -3.0536     -0.1970     -0.0415
            y      -0.1247     -1.5390      0.0278
            z      -0.0587      0.0538     -1.2335
-------------------------------------------------------------------------------
   54 O1    x      -3.0803     -0.1964     -0.0220
            y      -0.1515     -1.5569     -0.0054
            z      -0.0138     -0.0415     -1.2178
-------------------------------------------------------------------------------
   55 O1    x      -3.1410      0.1853     -0.0106
            y       0.0861     -1.5323     -0.0063
            z      -0.0165     -0.0423     -1.2136
-------------------------------------------------------------------------------
   56 O1    x      -3.1450      0.1991     -0.0181
            y       0.1619     -1.5477      0.0294
            z       0.0095      0.0591     -1.2162
-------------------------------------------------------------------------------
   57 O3    x      -1.3946     -0.0858      0.1088
            y      -0.0950     -1.3512      0.0182
            z       0.0699      0.0162     -2.5748
-------------------------------------------------------------------------------
   58 O1    x      -1.4644     -0.0951      0.1107
            y      -0.1162     -1.4411     -0.0218
            z       0.1010     -0.0521     -2.7200
-------------------------------------------------------------------------------
   59 O1    x      -1.4987      0.0897     -0.0378
            y       0.0970     -1.4259      0.0048
            z      -0.0275      0.0042     -2.7104
-------------------------------------------------------------------------------
   60 O1    x      -1.4463      0.0946      0.0179
            y       0.1110     -1.4422     -0.0022
            z       0.0155     -0.0078     -2.7516
-------------------------------------------------------------------------------
   61 O1    x      -1.4955     -0.0478     -0.0267
            y      -0.1051     -1.4180     -0.0028
            z      -0.0398      0.0025     -2.7444
-------------------------------------------------------------------------------
   62 O1    x      -1.4708     -0.0551      0.0519
            y      -0.1302     -1.4286     -0.0059
            z       0.0412     -0.0138     -2.7393
-------------------------------------------------------------------------------
   63 O1    x      -1.5155      0.0839      0.0014
            y       0.1428     -1.4306     -0.0539
            z       0.0106     -0.0302     -2.6846
-------------------------------------------------------------------------------
   64 O1    x      -1.5031      0.0646      0.0248
            y       0.1343     -1.4136     -0.0606
            z       0.0368     -0.0657     -2.7426
-------------------------------------------------------------------------------
   65 O1    x      -1.3654     -0.1416      0.0997
            y      -0.2388     -3.2781      0.0152
            z       0.0463      0.0114     -1.3453
-------------------------------------------------------------------------------
   66 O1    x      -1.3837     -0.1520     -0.0897
            y      -0.2220     -3.1633      0.0249
            z      -0.0343      0.0110     -1.3449
-------------------------------------------------------------------------------
   67 O1    x      -1.3670      0.0797      0.1306
            y       0.1648     -3.2790      0.0576
            z       0.0658      0.0382     -1.3230
-------------------------------------------------------------------------------
   68 O3    x      -1.3060      0.1479     -0.1067
            y       0.2176     -3.0675      0.1521
            z      -0.0543      0.1345     -1.2487
-------------------------------------------------------------------------------
   69 O1    x      -3.1725      0.1948     -0.0037
            y       0.0849     -1.5232      0.0184
            z       0.0169      0.0457     -1.1844
-------------------------------------------------------------------------------
   70 O1    x      -3.1924      0.2197     -0.0120
            y       0.1808     -1.5518     -0.0085
            z      -0.0127     -0.0459     -1.1870
-------------------------------------------------------------------------------
   71 O3    x      -3.0663     -0.0808      0.0055
            y       0.0033     -1.3987     -0.0110
            z       0.0243     -0.0377     -1.1251
-------------------------------------------------------------------------------
   72 O1    x      -3.2058     -0.1924      0.0037
            y      -0.1698     -1.5390      0.0335
            z      -0.0133      0.0501     -1.1821
-------------------------------------------------------------------------------




  Elastic Constant Matrix: (Units=GPa)

-------------------------------------------------------------------------------
  Indices      1         2         3         4         5         6    
-------------------------------------------------------------------------------
       1     35.9922   17.8731   14.4693   -0.4483   -0.1135   -1.3504
       2     17.8731   35.2948   14.5387    0.3662   -0.1201   -1.9119
       3     14.4693   14.5387   19.4020   -0.3620   -0.7319   -0.1213
       4     -0.4483    0.3662   -0.3620    7.4959   -0.3454    0.3422
       5     -0.1135   -0.1201   -0.7319   -0.3454   15.0552   -1.5610
       6     -1.3504   -1.9119   -0.1213    0.3422   -1.5610   15.5391
-------------------------------------------------------------------------------


  Elastic Compliance Matrix: (Units=1/GPa)

-------------------------------------------------------------------------------
  Indices      1         2         3         4         5         6    
-------------------------------------------------------------------------------
       1    0.043250 -0.012356 -0.022970  0.001963 -0.000642  0.001951
       2   -0.012356  0.044989 -0.024573 -0.004347 -0.000582  0.004307
       3   -0.022970 -0.024573  0.087275  0.004391  0.003551 -0.004078
       4    0.001963 -0.004347  0.004391  0.134222  0.002963 -0.002988
       5   -0.000642 -0.000582  0.003551  0.002963  0.067338  0.006599
       6    0.001951  0.004307 -0.004078 -0.002988  0.006599  0.065750
-------------------------------------------------------------------------------

  Mechanical properties :

-------------------------------------------------------------------------------
  Convention :                    Reuss         Voigt         Hill
-------------------------------------------------------------------------------
  Bulk  Modulus (GPa)     =      17.94867      20.49456      19.22162
  Shear Modulus (GPa)     =       8.60300      10.53856       9.57078
-------------------------------------------------------------------------------
  Velocity S-wave (km/s)  =       1.79578       1.98755       1.89410
  Velocity P-wave (km/s)  =       3.32081       3.59855       3.46247
-------------------------------------------------------------------------------
  Compressibility (1/GPa) =    0.05571442
-------------------------------------------------------------------------------
  Stress axis :                     x             y             z
-------------------------------------------------------------------------------
  Youngs Moduli (GPa)     =      23.12153      22.22790      11.45805
-------------------------------------------------------------------------------
  Poissons Ratio (x)      =                     0.27466       0.26319
  Poissons Ratio (y)      =       0.28570                     0.28156
  Poissons Ratio (z)      =       0.53111       0.54620
-------------------------------------------------------------------------------


  Piezoelectric Strain Matrix: (Units=C/m**2)

-------------------------------------------------------------------------------
  Indices      1         2         3         4         5         6    
-------------------------------------------------------------------------------
       x     0.28593   0.35245   0.27114  -0.06858  -0.01178  -0.11502
       y    -0.38274  -0.50947  -0.20833   0.14353   0.18963  -0.01434
       z     0.19604  -0.11744   0.08716  -0.05871  -0.12460  -0.08545
-------------------------------------------------------------------------------


  Piezoelectric Stress Matrix: (Units=10**-11 C/N)

-------------------------------------------------------------------------------
  Indices      1         2         3         4         5         6    
-------------------------------------------------------------------------------
       x     0.14320   0.54701   0.85609  -0.86770  -0.11810  -0.64652
       y    -0.53408  -1.38678   0.44909   2.04181   1.29025  -0.22115
       z     0.77259  -0.98877   0.56375  -0.67157  -0.88760  -0.67437
-------------------------------------------------------------------------------


  Static dielectric constant tensor : 

-------------------------------------------------------------------------------
              x         y         z
-------------------------------------------------------------------------------
       x     5.20402  -0.00248   0.03114
       y    -0.00248   6.16339   0.03250
       z     0.03114   0.03250   4.02611
--------------------------------------------------------------------------------

  High frequency dielectric constant tensor : 

-------------------------------------------------------------------------------
              x         y         z
-------------------------------------------------------------------------------
       x     1.53583   0.00021  -0.00080
       y     0.00021   1.53950   0.00005
       z    -0.00080   0.00005   1.49704
-------------------------------------------------------------------------------

  Static refractive indices : 

-------------------------------------------------------------------------------
    1 =    2.00619      2 =    2.28141      3 =    2.48272
-------------------------------------------------------------------------------

  High frequency refractive indices : 

-------------------------------------------------------------------------------
    1 =    1.22353      2 =    1.23929      3 =    1.24077
-------------------------------------------------------------------------------


  Time to end of optimisation =       7.4219 seconds


  Peak dynamic memory used =       5.01 MB 


  Timing analysis for GULP :

--------------------------------------------------------------------------------
  Task / Subroutine                                          Time (Seconds)
--------------------------------------------------------------------------------
  Calculation of reciprocal space energy and derivatives          0.5081
  Calculation of real space energy and derivatives                5.1464
  Calculation of three-body energy and derivatives                0.0848
  Calculation and manipulation of Hessian matrix                  2.1067
  Calculation of matrix inversion                                 0.0195
  Global summation overhead                                       0.0001
--------------------------------------------------------------------------------
  Total CPU time                                                  7.4219
--------------------------------------------------------------------------------


  Dump file written as c01221.vasp.grs
  CIF file written as c01221.vasp.cif


  Job Finished at 15:25.15 31st October    2025                               

