********************************************************************************
*                       GENERAL UTILITY LATTICE PROGRAM                        *
*                                 Julian Gale                                  *
*                       Curtin Institute for Computation                       *
*                    School of Molecular and Life Sciences                     *
*                    Curtin University, Western Australia                      *
********************************************************************************
* Version = 6.1.2 * Last modified =   3rd November 2022                        *
********************************************************************************
*  optimise     - perform optimisation run                                     *
*  conp         - constant pressure calculation                                *
*  property     - calculate properties for final geometry                      *
********************************************************************************

  Job Started  at 15:29.27 31st October    2025                               

  Number of CPUs =     1


  Total number of configurations input =      1

********************************************************************************
*  Input for Configuration =   1 : c01249.vasp                                 *
********************************************************************************

  Formula = Ge20Si4O48                                                  

  Number of irreducible atoms/shells =     120


  Total number atoms/shells =     120

  Dimensionality = 3               :  Bulk   



  Cartesian lattice vectors (Angstroms) :

       17.182800    0.000000    0.000000
        0.000000    7.513760    0.000000
        0.000000    0.000000   10.447700

  Cell parameters (Angstroms/Degrees):

  a =      17.1828    alpha =  90.0000
  b =       7.5138    beta  =  90.0000
  c =      10.4477    gamma =  90.0000

  Initial cell volume =        1348.875752 Angs**3

  Temperature of configuration =   0.00     K 

  Pressure of configuration =         0.000 GPa 

  Fractional coordinates of asymmetric unit :

--------------------------------------------------------------------------------
   No.  Atomic       x           y          z         Charge      Occupancy
        Label      (Frac)      (Frac)     (Frac)        (e)         (Frac)  
--------------------------------------------------------------------------------
      1 Ge    c    0.052090    0.000000    0.372270     4.00000    1.000000    
      2 Ge    c    0.447910 *  0.000000 *  0.372270 *   4.00000    1.000000    
      3 Ge    c    0.556730 *  0.000000 *  0.122130 *   4.00000    1.000000    
      4 Ge    c    0.943270 *  0.000000 *  0.122130 *   4.00000    1.000000    
      5 Ge    c    0.443270 *  0.000000 *  0.877870 *   4.00000    1.000000    
      6 Ge    c    0.056730 *  0.000000 *  0.877870 *   4.00000    1.000000    
      7 Ge    c    0.160190 *  0.293910 *  0.273440 *   4.00000    1.000000    
      8 Ge    c    0.339810 *  0.706090 *  0.273440 *   4.00000    1.000000    
      9 Ge    c    0.839810 *  0.293910 *  0.726560 *   4.00000    1.000000    
     10 Ge    c    0.660190 *  0.706090 *  0.726560 *   4.00000    1.000000    
     11 Ge    c    0.839810 *  0.706090 *  0.726560 *   4.00000    1.000000    
     12 Ge    c    0.660190 *  0.293910 *  0.726560 *   4.00000    1.000000    
     13 Ge    c    0.160190 *  0.706090 *  0.273440 *   4.00000    1.000000    
     14 Ge    c    0.660660 *  0.294090 *  0.017440 *   4.00000    1.000000    
     15 Ge    c    0.839340 *  0.705910 *  0.017440 *   4.00000    1.000000    
     16 Ge    c    0.339340 *  0.294090 *  0.982560 *   4.00000    1.000000    
     17 Ge    c    0.160660 *  0.705910 *  0.982560 *   4.00000    1.000000    
     18 Ge    c    0.339340 *  0.705910 *  0.982560 *   4.00000    1.000000    
     19 Ge    c    0.160660 *  0.294090 *  0.982560 *   4.00000    1.000000    
     20 Ge    c    0.839340 *  0.294090 *  0.017440 *   4.00000    1.000000    
     21 Si    c    0.947910 *  0.000000 *  0.627730 *   4.00000    1.000000    
     22 Si    c    0.552090 *  0.000000 *  0.627730 *   4.00000    1.000000    
     23 Si    c    0.339810 *  0.293910 *  0.273440 *   4.00000    1.000000    
     24 Si    c    0.660660 *  0.705910 *  0.017440 *   4.00000    1.000000    
     25 O1    c    0.106570 *  0.174340 *  0.366200 *   1.73396    1.000000    
     26 O1    c    0.393430 *  0.825660 *  0.366200 *   1.73396    1.000000    
     27 O3    c    0.893430 *  0.174340 *  0.633800 *   1.33043    1.000000    
     28 O3    c    0.606570 *  0.825660 *  0.633800 *   1.33043    1.000000    
     29 O3    c    0.893430 *  0.825660 *  0.633800 *   1.33043    1.000000    
     30 O3    c    0.606570 *  0.174340 *  0.633800 *   1.33043    1.000000    
     31 O1    c    0.106570 *  0.825660 *  0.366200 *   1.73396    1.000000    
     32 O3    c    0.393430 *  0.174340 *  0.366200 *   1.33043    1.000000    
     33 O3    c    0.000000 *  0.000000 *  0.500000 *   1.33043    1.000000    
     34 O3    c    0.500000 *  0.000000 *  0.500000 *   1.33043    1.000000    
     35 O1    c    0.994520 *  0.000000 *  0.250840 *   1.73396    1.000000    
     36 O1    c    0.505480 *  0.000000 *  0.250840 *   1.73396    1.000000    
     37 O3    c    0.005480 *  0.000000 *  0.749160 *   1.33043    1.000000    
     38 O3    c    0.494520 *  0.000000 *  0.749160 *   1.33043    1.000000    
     39 O1    c    0.610230 *  0.175520 *  0.115390 *   1.73396    1.000000    
     40 O1    c    0.889770 *  0.824480 *  0.115390 *   1.73396    1.000000    
     41 O1    c    0.389770 *  0.175520 *  0.884610 *   1.73396    1.000000    
     42 O1    c    0.110230 *  0.824480 *  0.884610 *   1.73396    1.000000    
     43 O1    c    0.389770 *  0.824480 *  0.884610 *   1.73396    1.000000    
     44 O1    c    0.110230 *  0.175520 *  0.884610 *   1.73396    1.000000    
     45 O3    c    0.610230 *  0.824480 *  0.115390 *   1.33043    1.000000    
     46 O1    c    0.889770 *  0.175520 *  0.115390 *   1.73396    1.000000    
     47 O1    c    0.500000 *  0.000000 *  0.000000 *   1.73396    1.000000    
     48 O1    c    0.000000 *  0.000000 *  0.000000 *   1.73396    1.000000    
     49 O1    c    0.151750 *  0.500000 *  0.313330 *   1.73396    1.000000    
     50 O3    c    0.348250 *  0.500000 *  0.313330 *   1.33043    1.000000    
     51 O1    c    0.848250 *  0.500000 *  0.686670 *   1.73396    1.000000    
     52 O1    c    0.651750 *  0.500000 *  0.686670 *   1.73396    1.000000    
     53 O3    c    0.250000 *  0.234950 *  0.285720 *   1.33043    1.000000    
     54 O1    c    0.250000 *  0.765050 *  0.285720 *   1.73396    1.000000    
     55 O1    c    0.750000 *  0.234950 *  0.714280 *   1.73396    1.000000    
     56 O1    c    0.750000 *  0.765050 *  0.714280 *   1.73396    1.000000    
     57 O1    c    0.131410 *  0.268650 *  0.127790 *   1.73396    1.000000    
     58 O1    c    0.368590 *  0.731350 *  0.127790 *   1.73396    1.000000    
     59 O1    c    0.868590 *  0.268650 *  0.872210 *   1.73396    1.000000    
     60 O3    c    0.631410 *  0.731350 *  0.872210 *   1.33043    1.000000    
     61 O1    c    0.868590 *  0.731350 *  0.872210 *   1.73396    1.000000    
     62 O1    c    0.631410 *  0.268650 *  0.872210 *   1.73396    1.000000    
     63 O1    c    0.131410 *  0.731350 *  0.127790 *   1.73396    1.000000    
     64 O3    c    0.368590 *  0.268650 *  0.127790 *   1.33043    1.000000    
     65 O3    c    0.653920 *  0.500000 *  0.058200 *   1.33043    1.000000    
     66 O1    c    0.846080 *  0.500000 *  0.058200 *   1.73396    1.000000    
     67 O1    c    0.346080 *  0.500000 *  0.941800 *   1.73396    1.000000    
     68 O1    c    0.153920 *  0.500000 *  0.941800 *   1.73396    1.000000    
     69 O1    c    0.750000 *  0.231060 *  0.027050 *   1.73396    1.000000    
     70 O3    c    0.750000 *  0.768940 *  0.027050 *   1.33043    1.000000    
     71 O1    c    0.250000 *  0.231060 *  0.972950 *   1.73396    1.000000    
     72 O1    c    0.250000 *  0.768940 *  0.972950 *   1.73396    1.000000    
     73 O1    s    0.106570 *  0.174340 *  0.366200 *  -3.73396    1.000000    
     74 O1    s    0.393430 *  0.825660 *  0.366200 *  -3.73396    1.000000    
     75 O3    s    0.893430 *  0.174340 *  0.633800 *  -3.33043    1.000000    
     76 O3    s    0.606570 *  0.825660 *  0.633800 *  -3.33043    1.000000    
     77 O3    s    0.893430 *  0.825660 *  0.633800 *  -3.33043    1.000000    
     78 O3    s    0.606570 *  0.174340 *  0.633800 *  -3.33043    1.000000    
     79 O1    s    0.106570 *  0.825660 *  0.366200 *  -3.73396    1.000000    
     80 O3    s    0.393430 *  0.174340 *  0.366200 *  -3.33043    1.000000    
     81 O3    s    0.000000 *  0.000000 *  0.500000 *  -3.33043    1.000000    
     82 O3    s    0.500000 *  0.000000 *  0.500000 *  -3.33043    1.000000    
     83 O1    s    0.994520 *  0.000000 *  0.250840 *  -3.73396    1.000000    
     84 O1    s    0.505480 *  0.000000 *  0.250840 *  -3.73396    1.000000    
     85 O3    s    0.005480 *  0.000000 *  0.749160 *  -3.33043    1.000000    
     86 O3    s    0.494520 *  0.000000 *  0.749160 *  -3.33043    1.000000    
     87 O1    s    0.610230 *  0.175520 *  0.115390 *  -3.73396    1.000000    
     88 O1    s    0.889770 *  0.824480 *  0.115390 *  -3.73396    1.000000    
     89 O1    s    0.389770 *  0.175520 *  0.884610 *  -3.73396    1.000000    
     90 O1    s    0.110230 *  0.824480 *  0.884610 *  -3.73396    1.000000    
     91 O1    s    0.389770 *  0.824480 *  0.884610 *  -3.73396    1.000000    
     92 O1    s    0.110230 *  0.175520 *  0.884610 *  -3.73396    1.000000    
     93 O3    s    0.610230 *  0.824480 *  0.115390 *  -3.33043    1.000000    
     94 O1    s    0.889770 *  0.175520 *  0.115390 *  -3.73396    1.000000    
     95 O1    s    0.500000 *  0.000000 *  0.000000 *  -3.73396    1.000000    
     96 O1    s    0.000000 *  0.000000 *  0.000000 *  -3.73396    1.000000    
     97 O1    s    0.151750 *  0.500000 *  0.313330 *  -3.73396    1.000000    
     98 O3    s    0.348250 *  0.500000 *  0.313330 *  -3.33043    1.000000    
     99 O1    s    0.848250 *  0.500000 *  0.686670 *  -3.73396    1.000000    
    100 O1    s    0.651750 *  0.500000 *  0.686670 *  -3.73396    1.000000    
    101 O3    s    0.250000 *  0.234950 *  0.285720 *  -3.33043    1.000000    
    102 O1    s    0.250000 *  0.765050 *  0.285720 *  -3.73396    1.000000    
    103 O1    s    0.750000 *  0.234950 *  0.714280 *  -3.73396    1.000000    
    104 O1    s    0.750000 *  0.765050 *  0.714280 *  -3.73396    1.000000    
    105 O1    s    0.131410 *  0.268650 *  0.127790 *  -3.73396    1.000000    
    106 O1    s    0.368590 *  0.731350 *  0.127790 *  -3.73396    1.000000    
    107 O1    s    0.868590 *  0.268650 *  0.872210 *  -3.73396    1.000000    
    108 O3    s    0.631410 *  0.731350 *  0.872210 *  -3.33043    1.000000    
    109 O1    s    0.868590 *  0.731350 *  0.872210 *  -3.73396    1.000000    
    110 O1    s    0.631410 *  0.268650 *  0.872210 *  -3.73396    1.000000    
    111 O1    s    0.131410 *  0.731350 *  0.127790 *  -3.73396    1.000000    
    112 O3    s    0.368590 *  0.268650 *  0.127790 *  -3.33043    1.000000    
    113 O3    s    0.653920 *  0.500000 *  0.058200 *  -3.33043    1.000000    
    114 O1    s    0.846080 *  0.500000 *  0.058200 *  -3.73396    1.000000    
    115 O1    s    0.346080 *  0.500000 *  0.941800 *  -3.73396    1.000000    
    116 O1    s    0.153920 *  0.500000 *  0.941800 *  -3.73396    1.000000    
    117 O1    s    0.750000 *  0.231060 *  0.027050 *  -3.73396    1.000000    
    118 O3    s    0.750000 *  0.768940 *  0.027050 *  -3.33043    1.000000    
    119 O1    s    0.250000 *  0.231060 *  0.972950 *  -3.73396    1.000000    
    120 O1    s    0.250000 *  0.768940 *  0.972950 *  -3.73396    1.000000    
--------------------------------------------------------------------------------



********************************************************************************
*  General input information                                                   *
********************************************************************************

  Species output for all configurations : 

--------------------------------------------------------------------------------
  Species    Type    Atomic    Atomic    Charge       Radii (Angs)     Library
                     Number     Mass       (e)     Cova   Ionic  VDW   Symbol
--------------------------------------------------------------------------------
    Ge       Core       32      72.61   4.000000   1.170  0.000  1.750 Ge       
    Si       Core       14      28.09   4.000000   1.200  0.000  2.100 Si       
    O1       Core        8      16.00   1.733957   0.730  0.000  1.360 O1       
    O2       Core        8      16.00   0.870733   0.730  0.000  0.000 O2       
    O3       Core        8      16.00   1.330431   0.730  0.000  1.360 O3       
    O1       Shell       8       0.00  -3.733957   0.730  0.000  0.000 O1       
    O2       Shell       8       0.00  -2.870733   0.730  0.000  0.000 O2       
    O3       Shell       8       0.00  -3.330431   0.730  0.000  0.000 O3       
--------------------------------------------------------------------------------


  Lattice summation method               =    Ewald          (3-D)
                                         =    Parry          (2-D)
                                         =    Saunders et al (1-D)
  Accuracy factor for lattice sums       =   12.000


  Analytic derivatives to be used

  Time limit = Infinity

  Maximum range for interatomic potentials =    100000.000000 Angstroms

  General interatomic potentials :

--------------------------------------------------------------------------------
Atom  Types   Potential      Parameter       Value         Units   Cutoffs(Ang)
  1     2                                                            Min /  Max 
--------------------------------------------------------------------------------
Si   c O1   s Buckingham    Buckingham A     1315.2478    eV        0.000 16.000
                            Buckingham rho  0.31775900    Ang       
                            Buckingham C     10.141118    eV*Ang^6  
--------------------------------------------------------------------------------
Si   c O2   s Buckingham    Buckingham A     1315.2478    eV        0.000 16.000
                            Buckingham rho  0.31775900    Ang       
                            Buckingham C     10.141118    eV*Ang^6  
--------------------------------------------------------------------------------
Si   c O3   s Buckingham    Buckingham A     1315.2478    eV        0.000 16.000
                            Buckingham rho  0.31775900    Ang       
                            Buckingham C     10.141118    eV*Ang^6  
--------------------------------------------------------------------------------
Ge   c O1   s Buckingham    Buckingham A     1497.3996    eV        0.000 16.000
                            Buckingham rho  0.32564600    Ang       
                            Buckingham C     16.808599    eV*Ang^6  
--------------------------------------------------------------------------------
Ge   c O2   s Buckingham    Buckingham A     1497.3996    eV        0.000 16.000
                            Buckingham rho  0.32564600    Ang       
                            Buckingham C     16.808599    eV*Ang^6  
--------------------------------------------------------------------------------
Ge   c O3   s Buckingham    Buckingham A     1497.3996    eV        0.000 16.000
                            Buckingham rho  0.32564600    Ang       
                            Buckingham C     16.808599    eV*Ang^6  
--------------------------------------------------------------------------------
O1   s O1   s Buckingham    Buckingham A     22764.000    eV        0.000 16.000
                            Buckingham rho  0.14900000    Ang       
                            Buckingham C     10.937044    eV*Ang^6  
--------------------------------------------------------------------------------
O1   s O2   s Buckingham    Buckingham A     22764.000    eV        0.000 16.000
                            Buckingham rho  0.14900000    Ang       
                            Buckingham C     10.937044    eV*Ang^6  
--------------------------------------------------------------------------------
O1   s O3   s Buckingham    Buckingham A     22764.000    eV        0.000 16.000
                            Buckingham rho  0.14900000    Ang       
                            Buckingham C     10.937044    eV*Ang^6  
--------------------------------------------------------------------------------
O2   s O2   s Buckingham    Buckingham A     22764.000    eV        0.000 16.000
                            Buckingham rho  0.14900000    Ang       
                            Buckingham C     10.937044    eV*Ang^6  
--------------------------------------------------------------------------------
O2   s O3   s Buckingham    Buckingham A     22764.000    eV        0.000 16.000
                            Buckingham rho  0.14900000    Ang       
                            Buckingham C     10.937044    eV*Ang^6  
--------------------------------------------------------------------------------
O3   s O3   s Buckingham    Buckingham A     22764.000    eV        0.000 16.000
                            Buckingham rho  0.14900000    Ang       
                            Buckingham C     10.937044    eV*Ang^6  
--------------------------------------------------------------------------------
O1   c O1   s Spring (c-s)  Spring k 2       180.31577    eV*Ang^-2 0.000  0.800
                            Spring k 4       0.0000000    eV*Ang^-4 
--------------------------------------------------------------------------------
O2   c O2   s Spring (c-s)  Spring k 2       75.969800    eV*Ang^-2 0.000  0.800
                            Spring k 4       0.0000000    eV*Ang^-4 
--------------------------------------------------------------------------------
O3   c O3   s Spring (c-s)  Spring k 2       128.14270    eV*Ang^-2 0.000  0.800
                            Spring k 4       0.0000000    eV*Ang^-4 
--------------------------------------------------------------------------------

  General Three-body potentials :

--------------------------------------------------------------------------------
  Atoms       Potential      Parameter       Value         Units   Cutoffs(Ang)
  1 / 2 / 3                                                          Min /  Max 
--------------------------------------------------------------------------------
Si    core    Harmonic      Three-body cnst  1.2614000    eV*rad^-2 0.000  1.900
O1    shel                  Three-body angl  109.47000    degrees   0.000  1.900
O1    shel                  Three-body k4    0.0000000    eV*rad^-4 0.000  3.500
                            Three-body k3    0.0000000    eV*rad^-3 
--------------------------------------------------------------------------------
Si    core    Harmonic      Three-body cnst  1.2614000    eV*rad^-2 0.000  1.900
O1    shel                  Three-body angl  109.47000    degrees   0.000  1.900
õ(1   shel                  Three-body k4    0.0000000    eV*rad^-4 0.000  3.500
                            Three-body k3    0.0000000    eV*rad^-3 
--------------------------------------------------------------------------------
Si    core    Harmonic      Three-body cnst  1.2614000    eV*rad^-2 0.000  1.900
õ(1   shel                  Three-body angl  109.47000    degrees   0.000  1.900
õ(1   shel                  Three-body k4    0.0000000    eV*rad^-4 0.000  3.500
                            Three-body k3    0.0000000    eV*rad^-3 
--------------------------------------------------------------------------------
Si    core    Harmonic      Three-body cnst  1.2614000    eV*rad^-2 0.000  1.900
O1    shel                  Three-body angl  109.47000    degrees   0.000  1.900
O2    shel                  Three-body k4    0.0000000    eV*rad^-4 0.000  3.500
                            Three-body k3    0.0000000    eV*rad^-3 
--------------------------------------------------------------------------------
Si    core    Harmonic      Three-body cnst  1.2614000    eV*rad^-2 0.000  1.900
O1    shel                  Three-body angl  109.47000    degrees   0.000  1.900
õ(2   shel                  Three-body k4    0.0000000    eV*rad^-4 0.000  3.500
                            Three-body k3    0.0000000    eV*rad^-3 
--------------------------------------------------------------------------------
Si    core    Harmonic      Three-body cnst  1.2614000    eV*rad^-2 0.000  1.900
O2    shel                  Three-body angl  109.47000    degrees   0.000  1.900
õ(1   shel                  Three-body k4    0.0000000    eV*rad^-4 0.000  3.500
                            Three-body k3    0.0000000    eV*rad^-3 
--------------------------------------------------------------------------------
Si    core    Harmonic      Three-body cnst  1.2614000    eV*rad^-2 0.000  1.900
õ(1   shel                  Three-body angl  109.47000    degrees   0.000  1.900
õ(2   shel                  Three-body k4    0.0000000    eV*rad^-4 0.000  3.500
                            Three-body k3    0.0000000    eV*rad^-3 
--------------------------------------------------------------------------------
Si    core    Harmonic      Three-body cnst  1.2614000    eV*rad^-2 0.000  1.900
O2    shel                  Three-body angl  109.47000    degrees   0.000  1.900
O2    shel                  Three-body k4    0.0000000    eV*rad^-4 0.000  3.500
                            Three-body k3    0.0000000    eV*rad^-3 
--------------------------------------------------------------------------------
Si    core    Harmonic      Three-body cnst  1.2614000    eV*rad^-2 0.000  1.900
O2    shel                  Three-body angl  109.47000    degrees   0.000  1.900
õ(2   shel                  Three-body k4    0.0000000    eV*rad^-4 0.000  3.500
                            Three-body k3    0.0000000    eV*rad^-3 
--------------------------------------------------------------------------------
Si    core    Harmonic      Three-body cnst  1.2614000    eV*rad^-2 0.000  1.900
õ(2   shel                  Three-body angl  109.47000    degrees   0.000  1.900
õ(2   shel                  Three-body k4    0.0000000    eV*rad^-4 0.000  3.500
                            Three-body k3    0.0000000    eV*rad^-3 
--------------------------------------------------------------------------------

********************************************************************************
*  Output for configuration   1 : c01249.vasp                                  *
********************************************************************************


  Components of energy : 

--------------------------------------------------------------------------------
  Interatomic potentials     =         896.61737668 eV    
  Three-body potentials      =           0.00000000 eV    
  Monopole - monopole (real) =       -2676.00317478 eV    
  Monopole - monopole (recip)=       -1115.35404472 eV    
  Monopole - monopole (total)=       -3791.35721950 eV    
--------------------------------------------------------------------------------
  Total lattice energy       =       -2894.73984283 eV    
--------------------------------------------------------------------------------
  Total lattice energy       =         -279298.1447 kJ/(mole unit cells)
--------------------------------------------------------------------------------


  Number of variables =      363

  Maximum number of calculations  =          1000
  Maximum Hessian update interval =            10
  Maximum step size               =   0.100000000
  Maximum parameter tolerance     =   0.000010000
  Maximum function  tolerance     =   0.000010000
  Maximum gradient  tolerance     =   0.001000000
  Maximum gradient  component     =   0.010000000

  Symmetry not applied to optimisation

  Cell parameters to be optimised using strains

  Newton-Raphson optimiser to be used

  BFGS hessian update to be used

  Lower half triangular hessian to be used

  Minimiser to switch to RFO
  When gradient norm is less than     0.050000

  Dumpfile to be written after every cycle

  Start of bulk optimisation :

  Cycle:      0 Energy:     -2894.739843  Gnorm:      5.897395  CPU:    0.099
  ** Hessian calculated **
  Cycle:      1 Energy:     -2938.384150  Gnorm:      1.422602  CPU:    0.228
  ** Hessian calculated **
  Cycle:      2 Energy:     -2943.388574  Gnorm:      0.830182  CPU:    0.418
  Cycle:      3 Energy:     -2944.386515  Gnorm:      0.407074  CPU:    0.509
  Cycle:      4 Energy:     -2944.952604  Gnorm:      0.327346  CPU:    0.611
  Cycle:      5 Energy:     -2945.626062  Gnorm:      0.270412  CPU:    0.715
  Cycle:      6 Energy:     -2946.308418  Gnorm:      0.220821  CPU:    0.822
  Cycle:      7 Energy:     -2946.590694  Gnorm:      0.146049  CPU:    0.911
  Cycle:      8 Energy:     -2946.685813  Gnorm:      0.099470  CPU:    0.997
  Cycle:      9 Energy:     -2946.719920  Gnorm:      0.070836  CPU:    1.087
  Cycle:     10 Energy:     -2946.749880  Gnorm:      0.063060  CPU:    1.189
  Cycle:     11 Energy:     -2946.775493  Gnorm:      0.064668  CPU:    1.295
  ** Hessian calculated **
  Cycle:     12 Energy:     -2946.783242  Gnorm:      0.054654  CPU:    1.488
  Cycle:     13 Energy:     -2946.797732  Gnorm:      0.052188  CPU:    1.607
  Cycle:     14 Energy:     -2946.814783  Gnorm:      0.047733  CPU:    1.708
  ** Hessian has required structure
  Cycle:     15 Energy:     -2946.819098  Gnorm:      0.073139  CPU:    1.837
  ** Hessian has required structure
  Cycle:     16 Energy:     -2946.828666  Gnorm:      0.090985  CPU:    1.980
  ** Hessian has required structure
  Cycle:     17 Energy:     -2946.839781  Gnorm:      0.104909  CPU:    2.123
  ** Hessian has required structure
  Cycle:     18 Energy:     -2946.849403  Gnorm:      0.122710  CPU:    2.249
  ** Hessian has required structure
  Cycle:     19 Energy:     -2946.860083  Gnorm:      0.128419  CPU:    2.373
  ** Hessian has required structure
  Cycle:     20 Energy:     -2946.864852  Gnorm:      0.113621  CPU:    2.496
  ** Hessian has required structure
  Cycle:     21 Energy:     -2946.868334  Gnorm:      0.116495  CPU:    2.607
  ** Hessian has wrong structure
  ** Imaginary eigenvectors =   6
  ** Hessian has wrong structure
  ** Imaginary eigenvectors =   6
  Cycle:     22 Energy:     -2946.921735  Gnorm:      0.127920  CPU:    3.073
  ** Hessian has wrong structure
  ** Imaginary eigenvectors =   4
  ** Hessian has wrong structure
  ** Imaginary eigenvectors =   4
  Cycle:     23 Energy:     -2947.025308  Gnorm:      0.142942  CPU:    3.514
  ** Hessian has wrong structure
  ** Imaginary eigenvectors =   3
  ** Hessian has wrong structure
  ** Imaginary eigenvectors =   1
  Cycle:     24 Energy:     -2947.071509  Gnorm:      0.148702  CPU:    3.869
  ** Hessian has wrong structure
  ** Imaginary eigenvectors =   1
  ** Hessian has required structure
  Cycle:     25 Energy:     -2947.531735  Gnorm:      0.120039  CPU:    4.299
  ** Hessian has required structure
  Cycle:     26 Energy:     -2947.741904  Gnorm:      0.068241  CPU:    4.430
  ** Hessian has required structure
  Cycle:     27 Energy:     -2947.859687  Gnorm:      0.070441  CPU:    4.561
  ** Hessian has required structure
  Cycle:     28 Energy:     -2947.951454  Gnorm:      0.057826  CPU:    4.692
  ** Hessian has required structure
  Cycle:     29 Energy:     -2947.981669  Gnorm:      0.035901  CPU:    4.823
  ** Hessian has required structure
  Cycle:     30 Energy:     -2948.002696  Gnorm:      0.043242  CPU:    4.956
  ** Hessian has required structure
  Cycle:     31 Energy:     -2948.024344  Gnorm:      0.047219  CPU:    5.113
  ** Hessian has required structure
  Cycle:     32 Energy:     -2948.033208  Gnorm:      0.038947  CPU:    5.250
  ** Hessian has required structure
  Cycle:     33 Energy:     -2948.039892  Gnorm:      0.025318  CPU:    5.392
  ** Hessian has required structure
  Cycle:     34 Energy:     -2948.044718  Gnorm:      0.017597  CPU:    5.547
  ** Hessian has required structure
  Cycle:     35 Energy:     -2948.048576  Gnorm:      0.009013  CPU:    5.792
  ** Hessian has required structure
  Cycle:     36 Energy:     -2948.049662  Gnorm:      0.004702  CPU:    5.954
  ** Hessian has required structure
  Cycle:     37 Energy:     -2948.049992  Gnorm:      0.002407  CPU:    6.116
  ** Hessian has required structure
  Cycle:     38 Energy:     -2948.050070  Gnorm:      0.001453  CPU:    6.263
  ** Hessian has required structure
  Cycle:     39 Energy:     -2948.050104  Gnorm:      0.000728  CPU:    6.408
  ** Hessian has required structure
  Cycle:     40 Energy:     -2948.050114  Gnorm:      0.000437  CPU:    6.542
  ** Hessian has required structure
  Cycle:     41 Energy:     -2948.050116  Gnorm:      0.000305  CPU:    6.663
  ** Hessian has required structure
  Cycle:     42 Energy:     -2948.050117  Gnorm:      0.000213  CPU:    6.784
  ** Hessian has required structure
  Cycle:     43 Energy:     -2948.050120  Gnorm:      0.000107  CPU:    6.936
  ** Hessian has required structure


  **** Optimisation achieved ****


  Final energy =   -2948.05012045 eV      
  Final Gnorm  =       0.00007464

  Components of energy : 

--------------------------------------------------------------------------------
  Interatomic potentials     =         780.81618795 eV    
  Three-body potentials      =           0.00000000 eV    
  Monopole - monopole (real) =       -1555.23209355 eV    
  Monopole - monopole (recip)=       -2173.63421484 eV    
  Monopole - monopole (total)=       -3728.86630839 eV    
--------------------------------------------------------------------------------
  Total lattice energy       =       -2948.05012045 eV    
--------------------------------------------------------------------------------
  Total lattice energy       =         -284441.7715 kJ/(mole unit cells)
--------------------------------------------------------------------------------

  Final fractional coordinates of atoms :

--------------------------------------------------------------------------------
   No.  Atomic        x           y          z          Radius
        Label       (Frac)      (Frac)     (Frac)       (Angs) 
--------------------------------------------------------------------------------
     1  Ge    c     0.052090    0.000000    0.372270    0.000000
     2  Ge    c     0.445781    0.049266    0.363552    0.000000
     3  Ge    c     0.556594    0.011148    0.117104    0.000000
     4  Ge    c     0.944185    0.067441    0.120960    0.000000
     5  Ge    c     0.450187    0.069424    0.863104    0.000000
     6  Ge    c     0.046503    0.002180    0.863599    0.000000
     7  Ge    c     0.174280    0.282216    0.255171    0.000000
     8  Ge    c     0.327398    0.757379    0.258400    0.000000
     9  Ge    c     0.850978    0.374909    0.684059    0.000000
    10  Ge    c     0.647041    0.708225    0.680953    0.000000
    11  Ge    c     0.829171    0.778663    0.682767    0.000000
    12  Ge    c     0.667492    0.302236    0.688089    0.000000
    13  Ge    c     0.143944    0.683842    0.258370    0.000000
    14  Ge    c     0.672169    0.307363    0.004075    0.000000
    15  Ge    c     0.824239    0.785381    0.001586    0.000000
    16  Ge    c     0.349475    0.376764    0.932469    0.000000
    17  Ge    c     0.146695    0.693420    0.939373    0.000000
    18  Ge    c     0.326338    0.782799    0.942927    0.000000
    19  Ge    c     0.171385    0.287030    0.937377    0.000000
    20  Ge    c     0.854289    0.385177    0.002171    0.000000
    21  Si    c     0.946655    0.064237    0.614128    0.000000
    22  Si    c     0.550495    0.018347    0.611819    0.000000
    23  Si    c     0.352435    0.361485    0.245159    0.000000
    24  Si    c     0.647044    0.704732    0.992570    0.000000
    25  O1    c     0.132440    0.124713    0.348246    0.000000
    26  O1    c     0.374468    0.897426    0.359855    0.000000
    27  O3    c     0.913181    0.252263    0.593030    0.000000
    28  O3    c     0.582660    0.828519    0.592281    0.000000
    29  O3    c     0.880775    0.922430    0.586279    0.000000
    30  O3    c     0.618279    0.157954    0.590159    0.000000
    31  O1    c     0.077296    0.792252    0.347001    0.000000
    32  O3    c     0.415072    0.251334    0.320746    0.000000
    33  O3    c     0.022443    0.028838    0.533360    0.000000
    34  O3    c     0.477134    0.057300    0.525779    0.000000
    35  O1    c     0.975074    0.058448    0.280245    0.000000
    36  O1    c     0.524491    0.995607    0.275486    0.000000
    37  O3    c     0.968754    0.046064    0.768256    0.000000
    38  O3    c     0.526431    0.030049    0.764836    0.000000
    39  O1    c     0.627779    0.164894    0.107510    0.000000
    40  O1    c     0.863791    0.940816    0.097119    0.000000
    41  O1    c     0.415177    0.272217    0.841499    0.000000
    42  O1    c     0.083512    0.802309    0.842890    0.000000
    43  O1    c     0.376672    0.922023    0.845322    0.000000
    44  O1    c     0.118005    0.153458    0.841434    0.000000
    45  O3    c     0.585561    0.808503    0.072723    0.000000
    46  O1    c     0.921927    0.276529    0.087579    0.000000
    47  O1    c     0.479872    0.064981    0.023741    0.000000
    48  O1    c     0.017319    0.000538    0.025026    0.000000
    49  O1    c     0.153490    0.479236    0.317966    0.000000
    50  O3    c     0.342035    0.547005    0.309408    0.000000
    51  O1    c     0.842458    0.576463    0.620227    0.000000
    52  O1    c     0.653528    0.504640    0.623551    0.000000
    53  O3    c     0.272161    0.256289    0.250000    0.000000
    54  O1    c     0.231069    0.789683    0.263533    0.000000
    55  O1    c     0.763935    0.268542    0.687265    0.000000
    56  O1    c     0.733288    0.816286    0.674661    0.000000
    57  O1    c     0.140220    0.267285    0.097337    0.000000
    58  O1    c     0.360110    0.794315    0.101793    0.000000
    59  O1    c     0.883173    0.401855    0.841325    0.000000
    60  O3    c     0.619415    0.681540    0.843162    0.000000
    61  O1    c     0.858451    0.792705    0.843460    0.000000
    62  O1    c     0.636754    0.283267    0.847936    0.000000
    63  O1    c     0.114556    0.670171    0.098224    0.000000
    64  O3    c     0.377206    0.394791    0.095879    0.000000
    65  O3    c     0.659200    0.517733    0.054541    0.000000
    66  O1    c     0.844527    0.586399    0.064778    0.000000
    67  O1    c     0.336595    0.579863    0.878425    0.000000
    68  O1    c     0.161301    0.494278    0.879817    0.000000
    69  O1    c     0.768377    0.274455    0.004926    0.000000
    70  O3    c     0.726588    0.812369    0.993192    0.000000
    71  O1    c     0.267273    0.251148    0.930415    0.000000
    72  O1    c     0.229953    0.816151    0.945881    0.000000
    73  O1    s     0.129587    0.127572    0.342758    0.000000
    74  O1    s     0.376388    0.898463    0.352332    0.000000
    75  O3    s     0.911673    0.243637    0.601902    0.000000
    76  O3    s     0.584621    0.836983    0.600947    0.000000
    77  O3    s     0.882962    0.924540    0.596411    0.000000
    78  O3    s     0.615758    0.156135    0.599887    0.000000
    79  O1    s     0.080347    0.799929    0.342344    0.000000
    80  O3    s     0.411336    0.246118    0.316702    0.000000
    81  O3    s     0.017190    0.030096    0.529213    0.000000
    82  O3    s     0.482160    0.052782    0.522261    0.000000
    83  O1    s     0.978604    0.054650    0.275189    0.000000
    84  O1    s     0.520900    0.000899    0.270280    0.000000
    85  O3    s     0.973097    0.044162    0.762235    0.000000
    86  O3    s     0.522274    0.032248    0.759114    0.000000
    87  O1    s     0.625867    0.164412    0.100164    0.000000
    88  O1    s     0.866625    0.937883    0.091325    0.000000
    89  O1    s     0.412715    0.265502    0.849954    0.000000
    90  O1    s     0.085451    0.808929    0.851513    0.000000
    91  O1    s     0.378193    0.922107    0.854208    0.000000
    92  O1    s     0.116860    0.152635    0.850554    0.000000
    93  O3    s     0.589535    0.813822    0.068057    0.000000
    94  O1    s     0.918370    0.269361    0.083459    0.000000
    95  O1    s     0.483555    0.061156    0.019081    0.000000
    96  O1    s     0.013882    0.005755    0.020687    0.000000
    97  O1    s     0.154310    0.479852    0.308901    0.000000
    98  O3    s     0.341924    0.545236    0.299499    0.000000
    99  O1    s     0.842159    0.575617    0.629561    0.000000
   100  O1    s     0.654028    0.505821    0.632602    0.000000
   101  O3    s     0.272008    0.268013    0.249946    0.000000
   102  O1    s     0.231936    0.779480    0.262767    0.000000
   103  O1    s     0.763106    0.278831    0.687109    0.000000
   104  O1    s     0.734100    0.805430    0.675760    0.000000
   105  O1    s     0.144938    0.269761    0.097380    0.000000
   106  O1    s     0.355295    0.790829    0.101903    0.000000
   107  O1    s     0.878617    0.398607    0.841316    0.000000
   108  O3    s     0.624181    0.685790    0.844806    0.000000
   109  O1    s     0.853798    0.791128    0.843249    0.000000
   110  O1    s     0.641590    0.286408    0.847807    0.000000
   111  O1    s     0.119102    0.672888    0.098567    0.000000
   112  O3    s     0.372684    0.390216    0.097965    0.000000
   113  O3    s     0.659010    0.519897    0.044823    0.000000
   114  O1    s     0.843782    0.585876    0.055477    0.000000
   115  O1    s     0.336876    0.578136    0.887305    0.000000
   116  O1    s     0.160887    0.495052    0.888628    0.000000
   117  O1    s     0.767405    0.285086    0.004645    0.000000
   118  O3    s     0.726781    0.800281    0.993768    0.000000
   119  O1    s     0.265963    0.262757    0.931109    0.000000
   120  O1    s     0.231209    0.805094    0.945222    0.000000
--------------------------------------------------------------------------------

  Final Cartesian lattice vectors (Angstroms) :

       17.522450   -0.173508   -0.013441
       -0.076726    7.810735    0.029871
       -0.007827    0.040253   10.196135


  Final cell parameters and derivatives :

--------------------------------------------------------------------------------
       a           17.523314 Angstrom     dE/de1(xx)     0.005179 eV/strain
       b            7.811169 Angstrom     dE/de2(yy)     0.005792 eV/strain
       c           10.196218 Angstrom     dE/de3(zz)     0.003012 eV/strain
       alpha       89.554272 Degrees      dE/de4(yz)     0.000139 eV/strain
       beta        90.090168 Degrees      dE/de5(xz)    -0.000407 eV/strain
       gamma       91.130295 Degrees      dE/de6(xy)     0.000760 eV/strain
--------------------------------------------------------------------------------

  Primitive cell volume =          1395.318238 Angs**3

  Density of cell =      2.775975 g/cm**3

  Non-primitive cell volume =          1395.318238 Angs**3


  Final internal derivatives :

--------------------------------------------------------------------------------
   No.  Atomic          a             b             c           Radius
        Label          (eV)          (eV)          (eV)        (eV/Angs)
--------------------------------------------------------------------------------
      1 Ge    c       0.000000      0.000000      0.000000      0.000000
      2 Ge    c       0.003162     -0.000347      0.003304      0.000000
      3 Ge    c       0.000854      0.000010      0.001661      0.000000
      4 Ge    c      -0.000702      0.000369     -0.000011      0.000000
      5 Ge    c      -0.000484      0.000960      0.001125      0.000000
      6 Ge    c       0.000986     -0.000563      0.000565      0.000000
      7 Ge    c       0.001662     -0.000878     -0.000646      0.000000
      8 Ge    c       0.001254      0.000170     -0.000343      0.000000
      9 Ge    c       0.000869     -0.000688     -0.000007      0.000000
     10 Ge    c      -0.000573      0.000390      0.000240      0.000000
     11 Ge    c       0.000087      0.000438     -0.000153      0.000000
     12 Ge    c      -0.000963     -0.000392     -0.000242      0.000000
     13 Ge    c       0.000058      0.000394     -0.000508      0.000000
     14 Ge    c      -0.000163     -0.000288      0.000140      0.000000
     15 Ge    c      -0.000482      0.000829      0.001079      0.000000
     16 Ge    c       0.000774     -0.000139     -0.000458      0.000000
     17 Ge    c      -0.001752      0.000977     -0.000289      0.000000
     18 Ge    c       0.000652      0.000845     -0.000042      0.000000
     19 Ge    c      -0.001188     -0.000353     -0.000104      0.000000
     20 Ge    c       0.000124     -0.000738     -0.000155      0.000000
     21 Si    c       0.000230      0.000072      0.001362      0.000000
     22 Si    c      -0.002375     -0.000378      0.000454      0.000000
     23 Si    c      -0.003132      0.000188      0.000563      0.000000
     24 Si    c       0.002334     -0.000849     -0.000343      0.000000
     25 O1    c       0.007206      0.003093      0.000272      0.000000
     26 O1    c      -0.003506     -0.002343      0.000343      0.000000
     27 O3    c       0.000695     -0.000844     -0.000182      0.000000
     28 O3    c      -0.001612      0.001696     -0.000365      0.000000
     29 O3    c       0.000337      0.000328      0.000235      0.000000
     30 O3    c       0.002537      0.001202      0.000305      0.000000
     31 O1    c       0.000553     -0.002238      0.000304      0.000000
     32 O3    c       0.000352      0.001207      0.001740      0.000000
     33 O3    c      -0.000674      0.000373     -0.001220      0.000000
     34 O3    c      -0.001207      0.000286     -0.003923      0.000000
     35 O1    c      -0.004266     -0.000217     -0.002895      0.000000
     36 O1    c       0.005872     -0.001214     -0.004330      0.000000
     37 O3    c      -0.003713     -0.000237     -0.002665      0.000000
     38 O3    c       0.004399      0.000104     -0.002510      0.000000
     39 O1    c       0.002415      0.001230     -0.000512      0.000000
     40 O1    c      -0.001119     -0.000398     -0.001539      0.000000
     41 O1    c       0.001597     -0.000797     -0.001648      0.000000
     42 O1    c      -0.000030      0.000283     -0.000718      0.000000
     43 O1    c      -0.003630     -0.002155      0.000073      0.000000
     44 O1    c       0.000432      0.000587      0.000358      0.000000
     45 O3    c      -0.002301      0.000694      0.002405      0.000000
     46 O1    c       0.002411     -0.001375      0.000344      0.000000
     47 O1    c      -0.005235      0.000899     -0.003244      0.000000
     48 O1    c       0.000462      0.000177     -0.000067      0.000000
     49 O1    c      -0.000797      0.000691      0.001227      0.000000
     50 O3    c       0.000191      0.000830      0.001305      0.000000
     51 O1    c       0.000147      0.000485     -0.000842      0.000000
     52 O1    c      -0.000681     -0.000567     -0.000567      0.000000
     53 O3    c      -0.003920     -0.000927     -0.000327      0.000000
     54 O1    c      -0.001745      0.001010     -0.000044      0.000000
     55 O1    c      -0.001646     -0.000668      0.000095      0.000000
     56 O1    c       0.001670      0.000873      0.000079      0.000000
     57 O1    c      -0.000128     -0.000065     -0.000213      0.000000
     58 O1    c       0.000324      0.000290     -0.000345      0.000000
     59 O1    c       0.000576      0.000495      0.000086      0.000000
     60 O3    c      -0.002336      0.000124     -0.001616      0.000000
     61 O1    c       0.000464     -0.000176      0.000013      0.000000
     62 O1    c      -0.000029      0.000381     -0.000047      0.000000
     63 O1    c      -0.000952      0.000070      0.001092      0.000000
     64 O3    c       0.004450     -0.000112     -0.002808      0.000000
     65 O3    c      -0.000099      0.000521      0.000211      0.000000
     66 O1    c      -0.000201      0.001244      0.000721      0.000000
     67 O1    c       0.000936     -0.000297     -0.001120      0.000000
     68 O1    c       0.000083     -0.002088     -0.000970      0.000000
     69 O1    c      -0.000285     -0.000502     -0.000203      0.000000
     70 O3    c       0.003916      0.000764     -0.000195      0.000000
     71 O1    c      -0.002618     -0.002001      0.000454      0.000000
     72 O1    c       0.002876      0.001575      0.000165      0.000000
     73 O1    s      -0.002363     -0.001163      0.000172      0.000000
     74 O1    s       0.000655      0.001055      0.000722      0.000000
     75 O3    s       0.001163      0.000144      0.000228      0.000000
     76 O3    s      -0.001463     -0.000908     -0.000767      0.000000
     77 O3    s       0.000865     -0.000111     -0.000263      0.000000
     78 O3    s      -0.000849     -0.000583     -0.000428      0.000000
     79 O1    s      -0.000063      0.000101      0.000572      0.000000
     80 O3    s       0.002741     -0.000707      0.000218      0.000000
     81 O3    s      -0.001914     -0.000040      0.002513      0.000000
     82 O3    s       0.002157     -0.000793      0.003540      0.000000
     83 O1    s      -0.000151      0.000420      0.001190      0.000000
     84 O1    s      -0.002369      0.001173      0.002414      0.000000
     85 O3    s       0.001829      0.000624      0.000621      0.000000
     86 O3    s      -0.001286     -0.000141      0.001572      0.000000
     87 O1    s      -0.000537     -0.000489      0.000571      0.000000
     88 O1    s       0.000274      0.000186      0.000117      0.000000
     89 O1    s       0.000635      0.000466      0.000463      0.000000
     90 O1    s      -0.001036     -0.000004      0.000259      0.000000
     91 O1    s       0.001774      0.001227     -0.000141      0.000000
     92 O1    s       0.000075     -0.000229     -0.000246      0.000000
     93 O3    s      -0.001516     -0.000416     -0.000487      0.000000
     94 O1    s      -0.000780      0.000602      0.000018      0.000000
     95 O1    s       0.002361     -0.000853      0.002226      0.000000
     96 O1    s      -0.000771     -0.000481      0.000063      0.000000
     97 O1    s       0.001007     -0.000293     -0.000467      0.000000
     98 O3    s      -0.000998      0.000669     -0.000020      0.000000
     99 O1    s       0.000025      0.000008     -0.000179      0.000000
    100 O1    s       0.000960     -0.000200      0.000271      0.000000
    101 O3    s      -0.000893      0.000372      0.000608      0.000000
    102 O1    s       0.000759     -0.000498      0.000216      0.000000
    103 O1    s       0.000214      0.000428     -0.000234      0.000000
    104 O1    s      -0.000210     -0.000565     -0.000434      0.000000
    105 O1    s      -0.000478     -0.000010     -0.000092      0.000000
    106 O1    s      -0.000007     -0.000580     -0.000287      0.000000
    107 O1    s       0.000832     -0.000376     -0.000241      0.000000
    108 O3    s      -0.001059     -0.000300      0.000089      0.000000
    109 O1    s       0.000443      0.000082      0.000314      0.000000
    110 O1    s      -0.000318     -0.000202     -0.000479      0.000000
    111 O1    s      -0.000928     -0.000021     -0.000276      0.000000
    112 O3    s       0.001785      0.000246      0.000128      0.000000
    113 O3    s       0.000706     -0.001007      0.000119      0.000000
    114 O1    s      -0.000330     -0.000144      0.000125      0.000000
    115 O1    s      -0.001311      0.000812      0.000561      0.000000
    116 O1    s       0.000057      0.000521      0.000049      0.000000
    117 O1    s      -0.000254      0.000224      0.000203      0.000000
    118 O3    s       0.000688     -0.000403      0.000220      0.000000
    119 O1    s       0.000117      0.001306     -0.001042      0.000000
    120 O1    s      -0.000655     -0.001039     -0.000263      0.000000
--------------------------------------------------------------------------------
  Maximum abs         0.007206      0.003093      0.004330      0.000000
--------------------------------------------------------------------------------


  Born effective charge tensors : 

-------------------------------------------------------------------------------
  Atom             x           y             z
-------------------------------------------------------------------------------
    1 Ge    x       4.2068     -0.3246     -0.4610
            y       0.1407      3.9071      0.0666
            z      -0.2261      0.0585      4.3419
-------------------------------------------------------------------------------
    2 Ge    x       4.1568     -0.1738      0.4156
            y       0.1860      3.8979     -0.1290
            z       0.1791      0.0773      4.3627
-------------------------------------------------------------------------------
    3 Ge    x       4.2167     -0.1441     -0.3898
            y       0.1794      3.9213      0.1154
            z      -0.3327     -0.0528      4.0169
-------------------------------------------------------------------------------
    4 Ge    x       4.2427     -0.2507      0.3870
            y       0.1706      3.9306     -0.0499
            z       0.3430      0.0097      4.0708
-------------------------------------------------------------------------------
    5 Ge    x       4.1923     -0.1624      0.0794
            y       0.1238      3.9294     -0.0194
            z      -0.6417      0.1618      3.6713
-------------------------------------------------------------------------------
    6 Ge    x       4.2025     -0.1341     -0.0854
            y       0.0913      3.9316     -0.0017
            z       0.6264     -0.1706      3.6718
-------------------------------------------------------------------------------
    7 Ge    x       3.9068      0.2885     -0.2936
            y       0.2459      4.1904     -0.0546
            z      -0.0176     -0.1902      3.6314
-------------------------------------------------------------------------------
    8 Ge    x       3.9904      0.2596      0.2664
            y       0.2821      4.1787      0.1380
            z      -0.0077      0.2211      3.5938
-------------------------------------------------------------------------------
    9 Ge    x       3.8852     -0.0454     -0.1853
            y      -0.3926      4.2592      0.0967
            z       0.0136      0.1770      3.4980
-------------------------------------------------------------------------------
   10 Ge    x       3.8432     -0.0361      0.2196
            y      -0.3908      4.2544     -0.0851
            z       0.0286     -0.1753      3.4440
-------------------------------------------------------------------------------
   11 Ge    x       4.0240      0.2172     -0.2546
            y       0.2388      4.1344     -0.0008
            z       0.0183     -0.0635      3.5097
-------------------------------------------------------------------------------
   12 Ge    x       3.9944      0.2350      0.2543
            y       0.2270      4.1804      0.0179
            z      -0.0431      0.0884      3.5125
-------------------------------------------------------------------------------
   13 Ge    x       3.9926     -0.0891     -0.2010
            y      -0.4676      4.1991      0.1120
            z      -0.1100      0.2120      3.6368
-------------------------------------------------------------------------------
   14 Ge    x       4.0057      0.2337     -0.2897
            y       0.2738      4.1758     -0.1467
            z       0.0068     -0.2319      3.5090
-------------------------------------------------------------------------------
   15 Ge    x       3.9093      0.2479      0.3231
            y       0.2319      4.1832      0.0876
            z       0.0164      0.2142      3.5529
-------------------------------------------------------------------------------
   16 Ge    x       3.9710     -0.0685     -0.3600
            y      -0.4412      4.2084      0.0971
            z      -0.1597      0.2001      3.4262
-------------------------------------------------------------------------------
   17 Ge    x       4.0030     -0.0861      0.3360
            y      -0.4382      4.2071     -0.1083
            z       0.1159     -0.1886      3.4877
-------------------------------------------------------------------------------
   18 Ge    x       4.0914      0.2682     -0.3504
            y       0.3091      4.1714     -0.0880
            z      -0.0483     -0.1672      3.5022
-------------------------------------------------------------------------------
   19 Ge    x       4.1266      0.2525      0.3458
            y       0.3317      4.1378      0.0796
            z       0.0853      0.1427      3.5006
-------------------------------------------------------------------------------
   20 Ge    x       4.0322     -0.0784      0.2657
            y      -0.4615      4.1860     -0.0447
            z       0.1457     -0.1771      3.5131
-------------------------------------------------------------------------------
   21 Si    x       3.8280     -0.2220      0.1267
            y       0.0517      3.6738      0.0009
            z      -0.7692      0.1326      3.8216
-------------------------------------------------------------------------------
   22 Si    x       3.8248     -0.2282     -0.0694
            y       0.1149      3.6558      0.0152
            z       0.8063     -0.1595      3.9099
-------------------------------------------------------------------------------
   23 Si    x       3.7003     -0.0854      0.1880
            y      -0.4447      3.9333     -0.0827
            z       0.0879     -0.2605      3.3464
-------------------------------------------------------------------------------
   24 Si    x       3.7093     -0.0619     -0.2692
            y      -0.4321      3.8984      0.0626
            z      -0.1199      0.2195      3.2679
-------------------------------------------------------------------------------
   25 O1    x      -2.2621     -0.8907      0.5593
            y      -0.9295     -2.2850      0.5292
            z       0.5062      0.5522     -1.6838
-------------------------------------------------------------------------------
   26 O1    x      -2.1460     -0.9298     -0.4961
            y      -0.9692     -2.3871     -0.4799
            z      -0.4608     -0.5343     -1.6904
-------------------------------------------------------------------------------
   27 O3    x      -1.7867      0.8281      0.2443
            y       0.7991     -2.4834     -0.2356
            z       0.3240     -0.2477     -1.4424
-------------------------------------------------------------------------------
   28 O3    x      -1.7970      0.8358     -0.2593
            y       0.7837     -2.4618      0.2298
            z      -0.3417      0.2581     -1.4692
-------------------------------------------------------------------------------
   29 O3    x      -2.0591     -0.8581      0.2068
            y      -0.8958     -2.1612      0.2300
            z       0.2900      0.2327     -1.4737
-------------------------------------------------------------------------------
   30 O3    x      -2.0545     -0.8528     -0.2340
            y      -0.9052     -2.1781     -0.2789
            z      -0.3087     -0.2706     -1.4824
-------------------------------------------------------------------------------
   31 O1    x      -1.9457      0.8377      0.5312
            y       0.7730     -2.5747     -0.5402
            z       0.4871     -0.5409     -1.6699
-------------------------------------------------------------------------------
   32 O3    x      -1.9459      0.8886     -0.5553
            y       0.8066     -2.3459      0.5619
            z      -0.4900      0.5742     -1.5895
-------------------------------------------------------------------------------
   33 O3    x      -2.0778      0.2696      0.8730
            y       0.1154     -1.2182     -0.1597
            z       1.1096     -0.2984     -2.7307
-------------------------------------------------------------------------------
   34 O3    x      -2.0619      0.2073     -0.9298
            y       0.0801     -1.2115      0.0923
            z      -1.1639      0.1586     -2.8203
-------------------------------------------------------------------------------
   35 O1    x      -2.0673      0.2604     -0.7987
            y       0.1378     -1.3108      0.1870
            z      -0.8607      0.2293     -2.8190
-------------------------------------------------------------------------------
   36 O1    x      -2.1352      0.2216      0.8441
            y       0.1266     -1.3228     -0.1186
            z       0.8883     -0.1224     -2.7850
-------------------------------------------------------------------------------
   37 O3    x      -1.9133      0.1810     -0.7082
            y       0.0804     -1.2753      0.1457
            z      -0.6902      0.2009     -2.5199
-------------------------------------------------------------------------------
   38 O3    x      -1.9029      0.1733      0.7241
            y       0.0680     -1.2691     -0.1311
            z       0.7138     -0.1679     -2.5429
-------------------------------------------------------------------------------
   39 O1    x      -2.1244     -0.8998      0.4936
            y      -0.9256     -2.3967      0.5057
            z       0.4329      0.5161     -1.6116
-------------------------------------------------------------------------------
   40 O1    x      -2.2386     -0.8695     -0.5414
            y      -0.8931     -2.2875     -0.5441
            z      -0.4615     -0.5329     -1.6124
-------------------------------------------------------------------------------
   41 O1    x      -2.0774      0.8794      0.3973
            y       0.8261     -2.4661     -0.2860
            z       0.4516     -0.3463     -1.5072
-------------------------------------------------------------------------------
   42 O1    x      -2.0617      0.8750     -0.3950
            y       0.8402     -2.4836      0.3056
            z      -0.4281      0.3302     -1.5050
-------------------------------------------------------------------------------
   43 O1    x      -2.2509     -0.9094      0.3604
            y      -0.9600     -2.2841      0.3792
            z       0.4205      0.3801     -1.5242
-------------------------------------------------------------------------------
   44 O1    x      -2.2728     -0.9241     -0.3625
            y      -0.9617     -2.2558     -0.3458
            z      -0.4355     -0.3693     -1.5266
-------------------------------------------------------------------------------
   45 O3    x      -1.9510      0.8300      0.5869
            y       0.7480     -2.3047     -0.5808
            z       0.5024     -0.5642     -1.5294
-------------------------------------------------------------------------------
   46 O1    x      -1.9939      0.8003     -0.5245
            y       0.7316     -2.5593      0.5410
            z      -0.4757      0.5280     -1.5622
-------------------------------------------------------------------------------
   47 O1    x      -2.1713      0.2431     -0.7318
            y       0.1532     -1.3818      0.1592
            z      -0.4878      0.1234     -2.3176
-------------------------------------------------------------------------------
   48 O1    x      -2.1194      0.2467      0.7208
            y       0.1528     -1.3891     -0.1918
            z       0.4989     -0.1559     -2.3661
-------------------------------------------------------------------------------
   49 O1    x      -1.3851      0.2271      0.0967
            y       0.3362     -3.1331     -0.0151
            z       0.0542     -0.0121     -1.3997
-------------------------------------------------------------------------------
   50 O3    x      -1.2758      0.1709     -0.0429
            y       0.2715     -3.0051     -0.1818
            z       0.0038     -0.1777     -1.3244
-------------------------------------------------------------------------------
   51 O1    x      -1.3422      0.1569      0.0896
            y       0.2519     -3.2282      0.0085
            z       0.0318      0.0248     -1.3972
-------------------------------------------------------------------------------
   52 O1    x      -1.3247      0.1335     -0.0919
            y       0.2439     -3.2622      0.0082
            z      -0.0256     -0.0440     -1.4080
-------------------------------------------------------------------------------
   53 O3    x      -2.8607     -0.3499      0.0491
            y      -0.2867     -1.5175      0.0232
            z       0.0267      0.0601     -1.1639
-------------------------------------------------------------------------------
   54 O1    x      -3.0894     -0.2461      0.0033
            y      -0.1470     -1.5792     -0.0267
            z       0.0354     -0.0571     -1.2247
-------------------------------------------------------------------------------
   55 O1    x      -3.1310     -0.2623      0.0223
            y      -0.1559     -1.5697     -0.0187
            z       0.0476     -0.0436     -1.2055
-------------------------------------------------------------------------------
   56 O1    x      -3.1107     -0.2553      0.0036
            y      -0.1476     -1.5552      0.0355
            z      -0.0038      0.0641     -1.2206
-------------------------------------------------------------------------------
   57 O1    x      -1.5301     -0.1123     -0.0840
            y      -0.1274     -1.4171     -0.0169
            z      -0.0717      0.0049     -2.7380
-------------------------------------------------------------------------------
   58 O1    x      -1.4903     -0.1248      0.0131
            y      -0.1366     -1.4619      0.1063
            z       0.0220      0.1004     -2.7076
-------------------------------------------------------------------------------
   59 O1    x      -1.4517      0.0134     -0.0322
            y       0.0864     -1.4467     -0.0654
            z      -0.0433     -0.0683     -2.7386
-------------------------------------------------------------------------------
   60 O3    x      -1.3490      0.0086     -0.0773
            y       0.0809     -1.3716     -0.0117
            z      -0.0506     -0.0044     -2.5985
-------------------------------------------------------------------------------
   61 O1    x      -1.5145     -0.1041      0.0782
            y      -0.1221     -1.4178      0.0316
            z       0.0464     -0.0212     -2.7342
-------------------------------------------------------------------------------
   62 O1    x      -1.4838     -0.1242     -0.0267
            y      -0.1429     -1.4556     -0.0891
            z      -0.0222     -0.0426     -2.7024
-------------------------------------------------------------------------------
   63 O1    x      -1.4680      0.0162     -0.0328
            y       0.0857     -1.4326      0.0244
            z      -0.0205      0.0336     -2.7558
-------------------------------------------------------------------------------
   64 O3    x      -1.3507      0.0061      0.1022
            y       0.0781     -1.3721      0.0798
            z       0.0791      0.0799     -2.6219
-------------------------------------------------------------------------------
   65 O3    x      -1.3036      0.1788      0.0512
            y       0.2750     -3.0194      0.1622
            z       0.0037      0.1376     -1.2741
-------------------------------------------------------------------------------
   66 O1    x      -1.4108      0.2323     -0.1013
            y       0.3307     -3.1186     -0.0202
            z      -0.0558      0.0042     -1.3662
-------------------------------------------------------------------------------
   67 O1    x      -1.3774      0.1781      0.0833
            y       0.2579     -3.1684     -0.0283
            z       0.0182      0.0200     -1.3661
-------------------------------------------------------------------------------
   68 O1    x      -1.3997      0.2079     -0.0750
            y       0.2690     -3.1600     -0.0322
            z      -0.0231     -0.0380     -1.3395
-------------------------------------------------------------------------------
   69 O1    x      -3.0770     -0.2568      0.0060
            y      -0.1529     -1.5938      0.0131
            z      -0.0228      0.0483     -1.1944
-------------------------------------------------------------------------------
   70 O3    x      -2.8430     -0.3530     -0.0353
            y      -0.2899     -1.5242     -0.0161
            z      -0.0118     -0.0508     -1.1389
-------------------------------------------------------------------------------
   71 O1    x      -3.0242     -0.2992      0.0185
            y      -0.1841     -1.6156     -0.0219
            z       0.0084     -0.0605     -1.2072
-------------------------------------------------------------------------------
   72 O1    x      -3.0460     -0.2975     -0.0208
            y      -0.1867     -1.6261     -0.0014
            z      -0.0444      0.0316     -1.1903
-------------------------------------------------------------------------------




  Elastic Constant Matrix: (Units=GPa)

-------------------------------------------------------------------------------
  Indices      1         2         3         4         5         6    
-------------------------------------------------------------------------------
       1     29.6576   12.9812   10.4513    0.3581    0.0316   -6.4964
       2     12.9812   34.3526    7.8790    0.6573   -0.1136   -6.1007
       3     10.4513    7.8790   16.0218    0.7753    0.1816   -1.4938
       4      0.3581    0.6573    0.7753    8.3347   -1.5539   -0.1055
       5      0.0316   -0.1136    0.1816   -1.5539   15.8733    1.0718
       6     -6.4964   -6.1007   -1.4938   -0.1055    1.0718   19.4887
-------------------------------------------------------------------------------


  Elastic Compliance Matrix: (Units=1/GPa)

-------------------------------------------------------------------------------
  Indices      1         2         3         4         5         6    
-------------------------------------------------------------------------------
       1    0.050293 -0.010957 -0.026414  0.001206 -0.000525  0.011346
       2   -0.010957  0.036894 -0.010261 -0.001435 -0.000218  0.007115
       3   -0.026414 -0.010261  0.084492 -0.006213 -0.001224 -0.005507
       4    0.001206 -0.001435 -0.006213  0.122873  0.012123 -0.000525
       5   -0.000525 -0.000218 -0.001224  0.012123  0.064457 -0.003816
       6    0.011346  0.007115 -0.005507 -0.000525 -0.003816  0.057106
-------------------------------------------------------------------------------

  Mechanical properties :

-------------------------------------------------------------------------------
  Convention :                    Reuss         Voigt         Hill
-------------------------------------------------------------------------------
  Bulk  Modulus (GPa)     =      13.08610      15.85055      14.46833
  Shear Modulus (GPa)     =       9.31360      11.98737      10.65049
-------------------------------------------------------------------------------
  Velocity S-wave (km/s)  =       1.83169       2.07804       1.95874
  Velocity P-wave (km/s)  =       3.03109       3.38638       3.21365
-------------------------------------------------------------------------------
  Compressibility (1/GPa) =    0.07641699
-------------------------------------------------------------------------------
  Stress axis :                     x             y             z
-------------------------------------------------------------------------------
  Youngs Moduli (GPa)     =      19.88333      27.10489      11.83547
-------------------------------------------------------------------------------
  Poissons Ratio (x)      =                     0.29698       0.31262
  Poissons Ratio (y)      =       0.21785                     0.12144
  Poissons Ratio (z)      =       0.52519       0.27811
-------------------------------------------------------------------------------


  Piezoelectric Strain Matrix: (Units=C/m**2)

-------------------------------------------------------------------------------
  Indices      1         2         3         4         5         6    
-------------------------------------------------------------------------------
       x     0.04459   0.12264   0.04743  -0.13043  -0.42047  -0.10077
       y     0.06604   0.18948   0.11824  -0.77192   0.41413  -0.25886
       z    -0.49436   0.16126   1.12670   0.20865   0.11980   0.28456
-------------------------------------------------------------------------------


  Piezoelectric Stress Matrix: (Units=10**-11 C/N)

-------------------------------------------------------------------------------
  Indices      1         2         3         4         5         6    
-------------------------------------------------------------------------------
       x    -0.14341   0.31111   0.34509  -2.14879  -2.84066  -0.29645
       y    -0.59630   0.42297   1.20165  -9.06193   1.81031  -1.45111
       z    -5.29729   0.15044  10.35905   1.91129   0.80112   0.50173
-------------------------------------------------------------------------------


  Static dielectric constant tensor : 

-------------------------------------------------------------------------------
              x         y         z
-------------------------------------------------------------------------------
       x     5.34781   0.08981   0.01051
       y     0.08981   6.38623   0.05324
       z     0.01051   0.05324   4.08074
--------------------------------------------------------------------------------

  High frequency dielectric constant tensor : 

-------------------------------------------------------------------------------
              x         y         z
-------------------------------------------------------------------------------
       x     1.55473  -0.00344  -0.00002
       y    -0.00344   1.56135   0.00049
       z    -0.00002   0.00049   1.51692
-------------------------------------------------------------------------------

  Static refractive indices : 

-------------------------------------------------------------------------------
    1 =    2.01977      2 =    2.31087      3 =    2.52887
-------------------------------------------------------------------------------

  High frequency refractive indices : 

-------------------------------------------------------------------------------
    1 =    1.23163      2 =    1.24630      3 =    1.25012
-------------------------------------------------------------------------------


  Time to end of optimisation =       7.2172 seconds


  Peak dynamic memory used =       5.01 MB 


  Timing analysis for GULP :

--------------------------------------------------------------------------------
  Task / Subroutine                                          Time (Seconds)
--------------------------------------------------------------------------------
  Calculation of reciprocal space energy and derivatives          0.4660
  Calculation of real space energy and derivatives                4.8200
  Calculation of three-body energy and derivatives                0.0619
  Calculation and manipulation of Hessian matrix                  2.2121
  Calculation of matrix inversion                                 0.0218
--------------------------------------------------------------------------------
  Total CPU time                                                  7.2172
--------------------------------------------------------------------------------


  Dump file written as c01249.vasp.grs
  CIF file written as c01249.vasp.cif


  Job Finished at 15:29.34 31st October    2025                               

