********************************************************************************
*                       GENERAL UTILITY LATTICE PROGRAM                        *
*                                 Julian Gale                                  *
*                       Curtin Institute for Computation                       *
*                    School of Molecular and Life Sciences                     *
*                    Curtin University, Western Australia                      *
********************************************************************************
* Version = 6.1.2 * Last modified =   3rd November 2022                        *
********************************************************************************
*  optimise     - perform optimisation run                                     *
*  conp         - constant pressure calculation                                *
*  property     - calculate properties for final geometry                      *
********************************************************************************

  Job Started  at 15:30.02 31st October    2025                               

  Number of CPUs =     1


  Total number of configurations input =      1

********************************************************************************
*  Input for Configuration =   1 : c01253.vasp                                 *
********************************************************************************

  Formula = Ge20Si4O48                                                  

  Number of irreducible atoms/shells =     120


  Total number atoms/shells =     120

  Dimensionality = 3               :  Bulk   



  Cartesian lattice vectors (Angstroms) :

       17.182800    0.000000    0.000000
        0.000000    7.513760    0.000000
        0.000000    0.000000   10.447700

  Cell parameters (Angstroms/Degrees):

  a =      17.1828    alpha =  90.0000
  b =       7.5138    beta  =  90.0000
  c =      10.4477    gamma =  90.0000

  Initial cell volume =        1348.875752 Angs**3

  Temperature of configuration =   0.00     K 

  Pressure of configuration =         0.000 GPa 

  Fractional coordinates of asymmetric unit :

--------------------------------------------------------------------------------
   No.  Atomic       x           y          z         Charge      Occupancy
        Label      (Frac)      (Frac)     (Frac)        (e)         (Frac)  
--------------------------------------------------------------------------------
      1 Ge    c    0.052090    0.000000    0.372270     4.00000    1.000000    
      2 Ge    c    0.447910 *  0.000000 *  0.372270 *   4.00000    1.000000    
      3 Ge    c    0.556730 *  0.000000 *  0.122130 *   4.00000    1.000000    
      4 Ge    c    0.943270 *  0.000000 *  0.122130 *   4.00000    1.000000    
      5 Ge    c    0.443270 *  0.000000 *  0.877870 *   4.00000    1.000000    
      6 Ge    c    0.056730 *  0.000000 *  0.877870 *   4.00000    1.000000    
      7 Ge    c    0.160190 *  0.293910 *  0.273440 *   4.00000    1.000000    
      8 Ge    c    0.339810 *  0.706090 *  0.273440 *   4.00000    1.000000    
      9 Ge    c    0.839810 *  0.293910 *  0.726560 *   4.00000    1.000000    
     10 Ge    c    0.660190 *  0.706090 *  0.726560 *   4.00000    1.000000    
     11 Ge    c    0.839810 *  0.706090 *  0.726560 *   4.00000    1.000000    
     12 Ge    c    0.660190 *  0.293910 *  0.726560 *   4.00000    1.000000    
     13 Ge    c    0.160190 *  0.706090 *  0.273440 *   4.00000    1.000000    
     14 Ge    c    0.660660 *  0.294090 *  0.017440 *   4.00000    1.000000    
     15 Ge    c    0.839340 *  0.705910 *  0.017440 *   4.00000    1.000000    
     16 Ge    c    0.160660 *  0.705910 *  0.982560 *   4.00000    1.000000    
     17 Ge    c    0.339340 *  0.705910 *  0.982560 *   4.00000    1.000000    
     18 Ge    c    0.160660 *  0.294090 *  0.982560 *   4.00000    1.000000    
     19 Ge    c    0.660660 *  0.705910 *  0.017440 *   4.00000    1.000000    
     20 Ge    c    0.839340 *  0.294090 *  0.017440 *   4.00000    1.000000    
     21 Si    c    0.947910 *  0.000000 *  0.627730 *   4.00000    1.000000    
     22 Si    c    0.552090 *  0.000000 *  0.627730 *   4.00000    1.000000    
     23 Si    c    0.339810 *  0.293910 *  0.273440 *   4.00000    1.000000    
     24 Si    c    0.339340 *  0.294090 *  0.982560 *   4.00000    1.000000    
     25 O1    c    0.106570 *  0.174340 *  0.366200 *   1.73396    1.000000    
     26 O1    c    0.393430 *  0.825660 *  0.366200 *   1.73396    1.000000    
     27 O3    c    0.893430 *  0.174340 *  0.633800 *   1.33043    1.000000    
     28 O3    c    0.606570 *  0.825660 *  0.633800 *   1.33043    1.000000    
     29 O3    c    0.893430 *  0.825660 *  0.633800 *   1.33043    1.000000    
     30 O3    c    0.606570 *  0.174340 *  0.633800 *   1.33043    1.000000    
     31 O1    c    0.106570 *  0.825660 *  0.366200 *   1.73396    1.000000    
     32 O3    c    0.393430 *  0.174340 *  0.366200 *   1.33043    1.000000    
     33 O3    c    0.000000 *  0.000000 *  0.500000 *   1.33043    1.000000    
     34 O3    c    0.500000 *  0.000000 *  0.500000 *   1.33043    1.000000    
     35 O1    c    0.994520 *  0.000000 *  0.250840 *   1.73396    1.000000    
     36 O1    c    0.505480 *  0.000000 *  0.250840 *   1.73396    1.000000    
     37 O3    c    0.005480 *  0.000000 *  0.749160 *   1.33043    1.000000    
     38 O3    c    0.494520 *  0.000000 *  0.749160 *   1.33043    1.000000    
     39 O1    c    0.610230 *  0.175520 *  0.115390 *   1.73396    1.000000    
     40 O1    c    0.889770 *  0.824480 *  0.115390 *   1.73396    1.000000    
     41 O3    c    0.389770 *  0.175520 *  0.884610 *   1.33043    1.000000    
     42 O1    c    0.110230 *  0.824480 *  0.884610 *   1.73396    1.000000    
     43 O1    c    0.389770 *  0.824480 *  0.884610 *   1.73396    1.000000    
     44 O1    c    0.110230 *  0.175520 *  0.884610 *   1.73396    1.000000    
     45 O1    c    0.610230 *  0.824480 *  0.115390 *   1.73396    1.000000    
     46 O1    c    0.889770 *  0.175520 *  0.115390 *   1.73396    1.000000    
     47 O1    c    0.500000 *  0.000000 *  0.000000 *   1.73396    1.000000    
     48 O1    c    0.000000 *  0.000000 *  0.000000 *   1.73396    1.000000    
     49 O1    c    0.151750 *  0.500000 *  0.313330 *   1.73396    1.000000    
     50 O3    c    0.348250 *  0.500000 *  0.313330 *   1.33043    1.000000    
     51 O1    c    0.848250 *  0.500000 *  0.686670 *   1.73396    1.000000    
     52 O1    c    0.651750 *  0.500000 *  0.686670 *   1.73396    1.000000    
     53 O3    c    0.250000 *  0.234950 *  0.285720 *   1.33043    1.000000    
     54 O1    c    0.250000 *  0.765050 *  0.285720 *   1.73396    1.000000    
     55 O1    c    0.750000 *  0.234950 *  0.714280 *   1.73396    1.000000    
     56 O1    c    0.750000 *  0.765050 *  0.714280 *   1.73396    1.000000    
     57 O1    c    0.131410 *  0.268650 *  0.127790 *   1.73396    1.000000    
     58 O1    c    0.368590 *  0.731350 *  0.127790 *   1.73396    1.000000    
     59 O1    c    0.868590 *  0.268650 *  0.872210 *   1.73396    1.000000    
     60 O1    c    0.631410 *  0.731350 *  0.872210 *   1.73396    1.000000    
     61 O1    c    0.868590 *  0.731350 *  0.872210 *   1.73396    1.000000    
     62 O1    c    0.631410 *  0.268650 *  0.872210 *   1.73396    1.000000    
     63 O1    c    0.131410 *  0.731350 *  0.127790 *   1.73396    1.000000    
     64 O2    c    0.368590 *  0.268650 *  0.127790 *   0.87073    1.000000    
     65 O1    c    0.653920 *  0.500000 *  0.058200 *   1.73396    1.000000    
     66 O1    c    0.846080 *  0.500000 *  0.058200 *   1.73396    1.000000    
     67 O3    c    0.346080 *  0.500000 *  0.941800 *   1.33043    1.000000    
     68 O1    c    0.153920 *  0.500000 *  0.941800 *   1.73396    1.000000    
     69 O1    c    0.750000 *  0.231060 *  0.027050 *   1.73396    1.000000    
     70 O1    c    0.750000 *  0.768940 *  0.027050 *   1.73396    1.000000    
     71 O3    c    0.250000 *  0.231060 *  0.972950 *   1.33043    1.000000    
     72 O1    c    0.250000 *  0.768940 *  0.972950 *   1.73396    1.000000    
     73 O1    s    0.106570 *  0.174340 *  0.366200 *  -3.73396    1.000000    
     74 O1    s    0.393430 *  0.825660 *  0.366200 *  -3.73396    1.000000    
     75 O3    s    0.893430 *  0.174340 *  0.633800 *  -3.33043    1.000000    
     76 O3    s    0.606570 *  0.825660 *  0.633800 *  -3.33043    1.000000    
     77 O3    s    0.893430 *  0.825660 *  0.633800 *  -3.33043    1.000000    
     78 O3    s    0.606570 *  0.174340 *  0.633800 *  -3.33043    1.000000    
     79 O1    s    0.106570 *  0.825660 *  0.366200 *  -3.73396    1.000000    
     80 O3    s    0.393430 *  0.174340 *  0.366200 *  -3.33043    1.000000    
     81 O3    s    0.000000 *  0.000000 *  0.500000 *  -3.33043    1.000000    
     82 O3    s    0.500000 *  0.000000 *  0.500000 *  -3.33043    1.000000    
     83 O1    s    0.994520 *  0.000000 *  0.250840 *  -3.73396    1.000000    
     84 O1    s    0.505480 *  0.000000 *  0.250840 *  -3.73396    1.000000    
     85 O3    s    0.005480 *  0.000000 *  0.749160 *  -3.33043    1.000000    
     86 O3    s    0.494520 *  0.000000 *  0.749160 *  -3.33043    1.000000    
     87 O1    s    0.610230 *  0.175520 *  0.115390 *  -3.73396    1.000000    
     88 O1    s    0.889770 *  0.824480 *  0.115390 *  -3.73396    1.000000    
     89 O3    s    0.389770 *  0.175520 *  0.884610 *  -3.33043    1.000000    
     90 O1    s    0.110230 *  0.824480 *  0.884610 *  -3.73396    1.000000    
     91 O1    s    0.389770 *  0.824480 *  0.884610 *  -3.73396    1.000000    
     92 O1    s    0.110230 *  0.175520 *  0.884610 *  -3.73396    1.000000    
     93 O1    s    0.610230 *  0.824480 *  0.115390 *  -3.73396    1.000000    
     94 O1    s    0.889770 *  0.175520 *  0.115390 *  -3.73396    1.000000    
     95 O1    s    0.500000 *  0.000000 *  0.000000 *  -3.73396    1.000000    
     96 O1    s    0.000000 *  0.000000 *  0.000000 *  -3.73396    1.000000    
     97 O1    s    0.151750 *  0.500000 *  0.313330 *  -3.73396    1.000000    
     98 O3    s    0.348250 *  0.500000 *  0.313330 *  -3.33043    1.000000    
     99 O1    s    0.848250 *  0.500000 *  0.686670 *  -3.73396    1.000000    
    100 O1    s    0.651750 *  0.500000 *  0.686670 *  -3.73396    1.000000    
    101 O3    s    0.250000 *  0.234950 *  0.285720 *  -3.33043    1.000000    
    102 O1    s    0.250000 *  0.765050 *  0.285720 *  -3.73396    1.000000    
    103 O1    s    0.750000 *  0.234950 *  0.714280 *  -3.73396    1.000000    
    104 O1    s    0.750000 *  0.765050 *  0.714280 *  -3.73396    1.000000    
    105 O1    s    0.131410 *  0.268650 *  0.127790 *  -3.73396    1.000000    
    106 O1    s    0.368590 *  0.731350 *  0.127790 *  -3.73396    1.000000    
    107 O1    s    0.868590 *  0.268650 *  0.872210 *  -3.73396    1.000000    
    108 O1    s    0.631410 *  0.731350 *  0.872210 *  -3.73396    1.000000    
    109 O1    s    0.868590 *  0.731350 *  0.872210 *  -3.73396    1.000000    
    110 O1    s    0.631410 *  0.268650 *  0.872210 *  -3.73396    1.000000    
    111 O1    s    0.131410 *  0.731350 *  0.127790 *  -3.73396    1.000000    
    112 O2    s    0.368590 *  0.268650 *  0.127790 *  -2.87073    1.000000    
    113 O1    s    0.653920 *  0.500000 *  0.058200 *  -3.73396    1.000000    
    114 O1    s    0.846080 *  0.500000 *  0.058200 *  -3.73396    1.000000    
    115 O3    s    0.346080 *  0.500000 *  0.941800 *  -3.33043    1.000000    
    116 O1    s    0.153920 *  0.500000 *  0.941800 *  -3.73396    1.000000    
    117 O1    s    0.750000 *  0.231060 *  0.027050 *  -3.73396    1.000000    
    118 O1    s    0.750000 *  0.768940 *  0.027050 *  -3.73396    1.000000    
    119 O3    s    0.250000 *  0.231060 *  0.972950 *  -3.33043    1.000000    
    120 O1    s    0.250000 *  0.768940 *  0.972950 *  -3.73396    1.000000    
--------------------------------------------------------------------------------



********************************************************************************
*  General input information                                                   *
********************************************************************************

  Species output for all configurations : 

--------------------------------------------------------------------------------
  Species    Type    Atomic    Atomic    Charge       Radii (Angs)     Library
                     Number     Mass       (e)     Cova   Ionic  VDW   Symbol
--------------------------------------------------------------------------------
    Ge       Core       32      72.61   4.000000   1.170  0.000  1.750 Ge       
    Si       Core       14      28.09   4.000000   1.200  0.000  2.100 Si       
    O1       Core        8      16.00   1.733957   0.730  0.000  1.360 O1       
    O2       Core        8      16.00   0.870733   0.730  0.000  1.360 O2       
    O3       Core        8      16.00   1.330431   0.730  0.000  1.360 O3       
    O1       Shell       8       0.00  -3.733957   0.730  0.000  0.000 O1       
    O2       Shell       8       0.00  -2.870733   0.730  0.000  0.000 O2       
    O3       Shell       8       0.00  -3.330431   0.730  0.000  0.000 O3       
--------------------------------------------------------------------------------


  Lattice summation method               =    Ewald          (3-D)
                                         =    Parry          (2-D)
                                         =    Saunders et al (1-D)
  Accuracy factor for lattice sums       =   12.000


  Analytic derivatives to be used

  Time limit = Infinity

  Maximum range for interatomic potentials =    100000.000000 Angstroms

  General interatomic potentials :

--------------------------------------------------------------------------------
Atom  Types   Potential      Parameter       Value         Units   Cutoffs(Ang)
  1     2                                                            Min /  Max 
--------------------------------------------------------------------------------
Si   c O1   s Buckingham    Buckingham A     1315.2478    eV        0.000 16.000
                            Buckingham rho  0.31775900    Ang       
                            Buckingham C     10.141118    eV*Ang^6  
--------------------------------------------------------------------------------
Si   c O2   s Buckingham    Buckingham A     1315.2478    eV        0.000 16.000
                            Buckingham rho  0.31775900    Ang       
                            Buckingham C     10.141118    eV*Ang^6  
--------------------------------------------------------------------------------
Si   c O3   s Buckingham    Buckingham A     1315.2478    eV        0.000 16.000
                            Buckingham rho  0.31775900    Ang       
                            Buckingham C     10.141118    eV*Ang^6  
--------------------------------------------------------------------------------
Ge   c O1   s Buckingham    Buckingham A     1497.3996    eV        0.000 16.000
                            Buckingham rho  0.32564600    Ang       
                            Buckingham C     16.808599    eV*Ang^6  
--------------------------------------------------------------------------------
Ge   c O2   s Buckingham    Buckingham A     1497.3996    eV        0.000 16.000
                            Buckingham rho  0.32564600    Ang       
                            Buckingham C     16.808599    eV*Ang^6  
--------------------------------------------------------------------------------
Ge   c O3   s Buckingham    Buckingham A     1497.3996    eV        0.000 16.000
                            Buckingham rho  0.32564600    Ang       
                            Buckingham C     16.808599    eV*Ang^6  
--------------------------------------------------------------------------------
O1   s O1   s Buckingham    Buckingham A     22764.000    eV        0.000 16.000
                            Buckingham rho  0.14900000    Ang       
                            Buckingham C     10.937044    eV*Ang^6  
--------------------------------------------------------------------------------
O1   s O2   s Buckingham    Buckingham A     22764.000    eV        0.000 16.000
                            Buckingham rho  0.14900000    Ang       
                            Buckingham C     10.937044    eV*Ang^6  
--------------------------------------------------------------------------------
O1   s O3   s Buckingham    Buckingham A     22764.000    eV        0.000 16.000
                            Buckingham rho  0.14900000    Ang       
                            Buckingham C     10.937044    eV*Ang^6  
--------------------------------------------------------------------------------
O2   s O2   s Buckingham    Buckingham A     22764.000    eV        0.000 16.000
                            Buckingham rho  0.14900000    Ang       
                            Buckingham C     10.937044    eV*Ang^6  
--------------------------------------------------------------------------------
O2   s O3   s Buckingham    Buckingham A     22764.000    eV        0.000 16.000
                            Buckingham rho  0.14900000    Ang       
                            Buckingham C     10.937044    eV*Ang^6  
--------------------------------------------------------------------------------
O3   s O3   s Buckingham    Buckingham A     22764.000    eV        0.000 16.000
                            Buckingham rho  0.14900000    Ang       
                            Buckingham C     10.937044    eV*Ang^6  
--------------------------------------------------------------------------------
O1   c O1   s Spring (c-s)  Spring k 2       180.31577    eV*Ang^-2 0.000  0.800
                            Spring k 4       0.0000000    eV*Ang^-4 
--------------------------------------------------------------------------------
O2   c O2   s Spring (c-s)  Spring k 2       75.969800    eV*Ang^-2 0.000  0.800
                            Spring k 4       0.0000000    eV*Ang^-4 
--------------------------------------------------------------------------------
O3   c O3   s Spring (c-s)  Spring k 2       128.14270    eV*Ang^-2 0.000  0.800
                            Spring k 4       0.0000000    eV*Ang^-4 
--------------------------------------------------------------------------------

  General Three-body potentials :

--------------------------------------------------------------------------------
  Atoms       Potential      Parameter       Value         Units   Cutoffs(Ang)
  1 / 2 / 3                                                          Min /  Max 
--------------------------------------------------------------------------------
Si    core    Harmonic      Three-body cnst  1.2614000    eV*rad^-2 0.000  1.900
O1    shel                  Three-body angl  109.47000    degrees   0.000  1.900
O1    shel                  Three-body k4    0.0000000    eV*rad^-4 0.000  3.500
                            Three-body k3    0.0000000    eV*rad^-3 
--------------------------------------------------------------------------------
Si    core    Harmonic      Three-body cnst  1.2614000    eV*rad^-2 0.000  1.900
O1    shel                  Three-body angl  109.47000    degrees   0.000  1.900
õ(1   shel                  Three-body k4    0.0000000    eV*rad^-4 0.000  3.500
                            Three-body k3    0.0000000    eV*rad^-3 
--------------------------------------------------------------------------------
Si    core    Harmonic      Three-body cnst  1.2614000    eV*rad^-2 0.000  1.900
õ(1   shel                  Three-body angl  109.47000    degrees   0.000  1.900
õ(1   shel                  Three-body k4    0.0000000    eV*rad^-4 0.000  3.500
                            Three-body k3    0.0000000    eV*rad^-3 
--------------------------------------------------------------------------------
Si    core    Harmonic      Three-body cnst  1.2614000    eV*rad^-2 0.000  1.900
O1    shel                  Three-body angl  109.47000    degrees   0.000  1.900
O2    shel                  Three-body k4    0.0000000    eV*rad^-4 0.000  3.500
                            Three-body k3    0.0000000    eV*rad^-3 
--------------------------------------------------------------------------------
Si    core    Harmonic      Three-body cnst  1.2614000    eV*rad^-2 0.000  1.900
O1    shel                  Three-body angl  109.47000    degrees   0.000  1.900
õ(2   shel                  Three-body k4    0.0000000    eV*rad^-4 0.000  3.500
                            Three-body k3    0.0000000    eV*rad^-3 
--------------------------------------------------------------------------------
Si    core    Harmonic      Three-body cnst  1.2614000    eV*rad^-2 0.000  1.900
O2    shel                  Three-body angl  109.47000    degrees   0.000  1.900
õ(1   shel                  Three-body k4    0.0000000    eV*rad^-4 0.000  3.500
                            Three-body k3    0.0000000    eV*rad^-3 
--------------------------------------------------------------------------------
Si    core    Harmonic      Three-body cnst  1.2614000    eV*rad^-2 0.000  1.900
õ(1   shel                  Three-body angl  109.47000    degrees   0.000  1.900
õ(2   shel                  Three-body k4    0.0000000    eV*rad^-4 0.000  3.500
                            Three-body k3    0.0000000    eV*rad^-3 
--------------------------------------------------------------------------------
Si    core    Harmonic      Three-body cnst  1.2614000    eV*rad^-2 0.000  1.900
O2    shel                  Three-body angl  109.47000    degrees   0.000  1.900
O2    shel                  Three-body k4    0.0000000    eV*rad^-4 0.000  3.500
                            Three-body k3    0.0000000    eV*rad^-3 
--------------------------------------------------------------------------------
Si    core    Harmonic      Three-body cnst  1.2614000    eV*rad^-2 0.000  1.900
O2    shel                  Three-body angl  109.47000    degrees   0.000  1.900
õ(2   shel                  Three-body k4    0.0000000    eV*rad^-4 0.000  3.500
                            Three-body k3    0.0000000    eV*rad^-3 
--------------------------------------------------------------------------------
Si    core    Harmonic      Three-body cnst  1.2614000    eV*rad^-2 0.000  1.900
õ(2   shel                  Three-body angl  109.47000    degrees   0.000  1.900
õ(2   shel                  Three-body k4    0.0000000    eV*rad^-4 0.000  3.500
                            Three-body k3    0.0000000    eV*rad^-3 
--------------------------------------------------------------------------------

********************************************************************************
*  Output for configuration   1 : c01253.vasp                                  *
********************************************************************************


  Components of energy : 

--------------------------------------------------------------------------------
  Interatomic potentials     =         896.61737668 eV    
  Three-body potentials      =           0.00000000 eV    
  Monopole - monopole (real) =       -2676.00317478 eV    
  Monopole - monopole (recip)=       -1115.35404472 eV    
  Monopole - monopole (total)=       -3791.35721950 eV    
--------------------------------------------------------------------------------
  Total lattice energy       =       -2894.73984283 eV    
--------------------------------------------------------------------------------
  Total lattice energy       =         -279298.1447 kJ/(mole unit cells)
--------------------------------------------------------------------------------


  Number of variables =      363

  Maximum number of calculations  =          1000
  Maximum Hessian update interval =            10
  Maximum step size               =   0.100000000
  Maximum parameter tolerance     =   0.000010000
  Maximum function  tolerance     =   0.000010000
  Maximum gradient  tolerance     =   0.001000000
  Maximum gradient  component     =   0.010000000

  Symmetry not applied to optimisation

  Cell parameters to be optimised using strains

  Newton-Raphson optimiser to be used

  BFGS hessian update to be used

  Lower half triangular hessian to be used

  Minimiser to switch to RFO
  When gradient norm is less than     0.050000

  Dumpfile to be written after every cycle

  Start of bulk optimisation :

  Cycle:      0 Energy:     -2894.739843  Gnorm:      5.897641  CPU:    0.104
  ** Hessian calculated **
  Cycle:      1 Energy:     -2907.988642  Gnorm:      5.086036  CPU:    0.277
  ** Hessian calculated **
  Cycle:      2 Energy:     -2939.845022  Gnorm:      1.205638  CPU:    0.482
  ** Hessian calculated **
  Cycle:      3 Energy:     -2943.222186  Gnorm:      0.591839  CPU:    0.668
  Cycle:      4 Energy:     -2943.997262  Gnorm:      0.358172  CPU:    0.766
  Cycle:      5 Energy:     -2944.520379  Gnorm:      0.294471  CPU:    0.879
  Cycle:      6 Energy:     -2945.140838  Gnorm:      0.236139  CPU:    0.991
  Cycle:      7 Energy:     -2945.709926  Gnorm:      0.219837  CPU:    1.106
  Cycle:      8 Energy:     -2945.932556  Gnorm:      0.136114  CPU:    1.201
  Cycle:      9 Energy:     -2946.019491  Gnorm:      0.112713  CPU:    1.296
  Cycle:     10 Energy:     -2946.084877  Gnorm:      0.098290  CPU:    1.410
  Cycle:     11 Energy:     -2946.138836  Gnorm:      0.096073  CPU:    1.523
  Cycle:     12 Energy:     -2946.196171  Gnorm:      0.105836  CPU:    1.637
  ** Hessian calculated **
  Cycle:     13 Energy:     -2946.212979  Gnorm:      0.086456  CPU:    1.821
  Cycle:     14 Energy:     -2946.244719  Gnorm:      0.079472  CPU:    1.952
  Cycle:     15 Energy:     -2946.286105  Gnorm:      0.080911  CPU:    2.064
  Cycle:     16 Energy:     -2946.334803  Gnorm:      0.083126  CPU:    2.176
  Cycle:     17 Energy:     -2946.381986  Gnorm:      0.088311  CPU:    2.290
  Cycle:     18 Energy:     -2946.411248  Gnorm:      0.077350  CPU:    2.386
  Cycle:     19 Energy:     -2946.441776  Gnorm:      0.078470  CPU:    2.499
  Cycle:     20 Energy:     -2946.482004  Gnorm:      0.080193  CPU:    2.612
  Cycle:     21 Energy:     -2946.532326  Gnorm:      0.089401  CPU:    2.724
  Cycle:     22 Energy:     -2946.584657  Gnorm:      0.086552  CPU:    2.838
  ** Hessian calculated **
  Cycle:     23 Energy:     -2946.615585  Gnorm:      0.083986  CPU:    3.039
  ** Hessian calculated **
  Cycle:     24 Energy:     -2946.658362  Gnorm:      0.079375  CPU:    3.241
  Cycle:     25 Energy:     -2946.707267  Gnorm:      0.072631  CPU:    3.371
  ** Hessian calculated **
  Cycle:     26 Energy:     -2946.715756  Gnorm:      0.057388  CPU:    3.556
  Cycle:     27 Energy:     -2946.731611  Gnorm:      0.048595  CPU:    3.686
  ** Hessian has required structure
  Cycle:     28 Energy:     -2946.738961  Gnorm:      0.092824  CPU:    3.819
  ** Hessian has required structure
  Cycle:     29 Energy:     -2946.746153  Gnorm:      0.088917  CPU:    3.971
  ** Hessian has required structure
  Cycle:     30 Energy:     -2946.753305  Gnorm:      0.074404  CPU:    4.102
  ** Hessian has required structure
  Cycle:     31 Energy:     -2946.757861  Gnorm:      0.075860  CPU:    4.235
  ** Hessian has required structure
  Cycle:     32 Energy:     -2946.760376  Gnorm:      0.080673  CPU:    4.368
  ** Hessian has required structure
  Cycle:     33 Energy:     -2946.763950  Gnorm:      0.094035  CPU:    4.501
  ** Hessian has required structure
  Cycle:     34 Energy:     -2946.773643  Gnorm:      0.094978  CPU:    4.653
  ** Hessian has required structure
  Cycle:     35 Energy:     -2946.779821  Gnorm:      0.071906  CPU:    4.787
  ** Hessian has wrong structure
  ** Imaginary eigenvectors =   6
  Cycle:     36 Energy:     -2946.808581  Gnorm:      0.072659  CPU:    5.228
  ** Hessian has wrong structure
  ** Imaginary eigenvectors =   6
  Cycle:     37 Energy:     -2946.879387  Gnorm:      0.085729  CPU:    5.631
  ** Hessian has wrong structure
  ** Imaginary eigenvectors =   4
  Cycle:     38 Energy:     -2946.966149  Gnorm:      0.111602  CPU:    5.965
  ** Hessian has wrong structure
  ** Imaginary eigenvectors =   1
  ** Hessian has required structure
  Cycle:     39 Energy:     -2947.345204  Gnorm:      0.100598  CPU:    6.402
  ** Hessian has required structure
  Cycle:     40 Energy:     -2947.544149  Gnorm:      0.058722  CPU:    6.551
  ** Hessian has required structure
  Cycle:     41 Energy:     -2947.653462  Gnorm:      0.076626  CPU:    6.699
  ** Hessian has required structure
  Cycle:     42 Energy:     -2947.719245  Gnorm:      0.074363  CPU:    6.827
  ** Hessian has required structure
  Cycle:     43 Energy:     -2947.772053  Gnorm:      0.085840  CPU:    6.942
  ** Hessian has required structure
  Cycle:     44 Energy:     -2947.788255  Gnorm:      0.061507  CPU:    7.057
  ** Hessian has required structure
  Cycle:     45 Energy:     -2947.822350  Gnorm:      0.080340  CPU:    7.200
  ** Hessian has required structure
  Cycle:     46 Energy:     -2947.857793  Gnorm:      0.067401  CPU:    7.328
  ** Hessian has required structure
  Cycle:     47 Energy:     -2947.880210  Gnorm:      0.065150  CPU:    7.457
  ** Hessian has required structure
  Cycle:     48 Energy:     -2947.896184  Gnorm:      0.045914  CPU:    7.571
  ** Hessian has required structure
  Cycle:     49 Energy:     -2947.920812  Gnorm:      0.027877  CPU:    7.789
  ** Hessian has required structure
  Cycle:     50 Energy:     -2947.931604  Gnorm:      0.015898  CPU:    7.933
  ** Hessian has required structure
  Cycle:     51 Energy:     -2947.935378  Gnorm:      0.008286  CPU:    8.079
  ** Hessian has required structure
  Cycle:     52 Energy:     -2947.936637  Gnorm:      0.004606  CPU:    8.226
  ** Hessian has required structure
  Cycle:     53 Energy:     -2947.937042  Gnorm:      0.002211  CPU:    8.370
  ** Hessian has required structure
  Cycle:     54 Energy:     -2947.937167  Gnorm:      0.001301  CPU:    8.514
  ** Hessian has required structure
  Cycle:     55 Energy:     -2947.937201  Gnorm:      0.000476  CPU:    8.658
  ** Hessian has required structure
  Cycle:     56 Energy:     -2947.937205  Gnorm:      0.000400  CPU:    8.772
  ** Hessian has required structure
  Cycle:     57 Energy:     -2947.937210  Gnorm:      0.000209  CPU:    8.901
  ** Hessian has required structure
  Cycle:     58 Energy:     -2947.937211  Gnorm:      0.000152  CPU:    9.016
  ** Hessian has required structure
  Cycle:     59 Energy:     -2947.937211  Gnorm:      0.000107  CPU:    9.204
  ** Hessian has required structure
  Cycle:     60 Energy:     -2947.937212  Gnorm:      0.000075  CPU:    9.320
  ** Hessian has required structure
  Cycle:     61 Energy:     -2947.937212  Gnorm:      0.000052  CPU:    9.435
  ** Hessian has required structure


  **** Optimisation achieved ****


  Final energy =   -2947.93721193 eV      
  Final Gnorm  =       0.00003674

  Components of energy : 

--------------------------------------------------------------------------------
  Interatomic potentials     =         780.28868958 eV    
  Three-body potentials      =           0.00000000 eV    
  Monopole - monopole (real) =       -1552.56603251 eV    
  Monopole - monopole (recip)=       -2175.65986900 eV    
  Monopole - monopole (total)=       -3728.22590151 eV    
--------------------------------------------------------------------------------
  Total lattice energy       =       -2947.93721193 eV    
--------------------------------------------------------------------------------
  Total lattice energy       =         -284430.8776 kJ/(mole unit cells)
--------------------------------------------------------------------------------

  Final fractional coordinates of atoms :

--------------------------------------------------------------------------------
   No.  Atomic        x           y          z          Radius
        Label       (Frac)      (Frac)     (Frac)       (Angs) 
--------------------------------------------------------------------------------
     1  Ge    c     0.052090    0.000000    0.372270    0.000000
     2  Ge    c     0.444392    0.054165    0.368069    0.000000
     3  Ge    c     0.555194    0.003211    0.125002    0.000000
     4  Ge    c     0.946917    0.063569    0.117107    0.000000
     5  Ge    c     0.447342    0.072256    0.872581    0.000000
     6  Ge    c     0.048869    0.003000    0.860181    0.000000
     7  Ge    c     0.174811    0.282465    0.257398    0.000000
     8  Ge    c     0.327310    0.760430    0.258895    0.000000
     9  Ge    c     0.849700    0.378213    0.675947    0.000000
    10  Ge    c     0.643957    0.710698    0.682921    0.000000
    11  Ge    c     0.827280    0.780276    0.682336    0.000000
    12  Ge    c     0.667013    0.306914    0.683922    0.000000
    13  Ge    c     0.143920    0.685085    0.256131    0.000000
    14  Ge    c     0.675763    0.289743    0.004362    0.000000
    15  Ge    c     0.825195    0.780699    0.001937    0.000000
    16  Ge    c     0.147098    0.692136    0.935338    0.000000
    17  Ge    c     0.328076    0.774348    0.943485    0.000000
    18  Ge    c     0.172733    0.288750    0.935688    0.000000
    19  Ge    c     0.645096    0.692212    0.002297    0.000000
    20  Ge    c     0.855361    0.379067    0.996446    0.000000
    21  Si    c     0.945917    0.066510    0.613726    0.000000
    22  Si    c     0.546997    0.025436    0.617947    0.000000
    23  Si    c     0.350962    0.363840    0.248324    0.000000
    24  Si    c     0.347238    0.376594    0.937518    0.000000
    25  O1    c     0.132367    0.125455    0.350739    0.000000
    26  O1    c     0.373407    0.901944    0.360508    0.000000
    27  O3    c     0.913638    0.255253    0.589197    0.000000
    28  O3    c     0.579224    0.836004    0.598141    0.000000
    29  O3    c     0.878514    0.928242    0.587848    0.000000
    30  O3    c     0.614985    0.162855    0.590345    0.000000
    31  O1    c     0.077271    0.792748    0.344590    0.000000
    32  O3    c     0.416656    0.256625    0.316992    0.000000
    33  O3    c     0.021189    0.025334    0.533343    0.000000
    34  O3    c     0.472857    0.062581    0.532240    0.000000
    35  O1    c     0.976713    0.061934    0.277913    0.000000
    36  O1    c     0.525004    0.003279    0.285151    0.000000
    37  O3    c     0.970333    0.051894    0.767895    0.000000
    38  O3    c     0.523709    0.045814    0.771188    0.000000
    39  O1    c     0.632866    0.137146    0.101731    0.000000
    40  O1    c     0.868917    0.929943    0.098782    0.000000
    41  O3    c     0.410074    0.276958    0.857685    0.000000
    42  O1    c     0.085123    0.803204    0.837528    0.000000
    43  O1    c     0.379225    0.914727    0.846630    0.000000
    44  O1    c     0.122663    0.149718    0.839864    0.000000
    45  O1    c     0.578360    0.795988    0.090445    0.000000
    46  O1    c     0.925084    0.271706    0.077676    0.000000
    47  O1    c     0.479337    0.065769    0.031627    0.000000
    48  O1    c     0.021238    0.999569    0.022910    0.000000
    49  O1    c     0.153211    0.480458    0.316652    0.000000
    50  O3    c     0.343557    0.550308    0.310635    0.000000
    51  O1    c     0.841066    0.581625    0.613997    0.000000
    52  O1    c     0.652547    0.509793    0.620048    0.000000
    53  O3    c     0.272460    0.255597    0.263682    0.000000
    54  O1    c     0.231127    0.790644    0.262240    0.000000
    55  O1    c     0.763119    0.270953    0.675680    0.000000
    56  O1    c     0.731296    0.816358    0.680486    0.000000
    57  O1    c     0.143976    0.265732    0.097079    0.000000
    58  O1    c     0.360939    0.797446    0.102285    0.000000
    59  O1    c     0.880648    0.406738    0.834296    0.000000
    60  O1    c     0.614364    0.678747    0.841966    0.000000
    61  O1    c     0.858545    0.791818    0.842558    0.000000
    62  O1    c     0.640495    0.288198    0.846274    0.000000
    63  O1    c     0.115265    0.671496    0.095142    0.000000
    64  O2    c     0.367363    0.397939    0.093060    0.000000
    65  O1    c     0.660424    0.491865    0.065148    0.000000
    66  O1    c     0.842366    0.577006    0.062068    0.000000
    67  O3    c     0.337958    0.567261    0.882906    0.000000
    68  O1    c     0.157002    0.491886    0.875420    0.000000
    69  O1    c     0.772015    0.258501    0.001377    0.000000
    70  O1    c     0.729043    0.811030    0.000688    0.000000
    71  O3    c     0.270176    0.260989    0.929061    0.000000
    72  O1    c     0.232185    0.807998    0.941262    0.000000
    73  O1    s     0.129564    0.128264    0.344997    0.000000
    74  O1    s     0.375389    0.902924    0.353276    0.000000
    75  O3    s     0.911893    0.246644    0.598006    0.000000
    76  O3    s     0.581157    0.844153    0.606462    0.000000
    77  O3    s     0.880922    0.929819    0.597638    0.000000
    78  O3    s     0.612686    0.161294    0.600314    0.000000
    79  O1    s     0.080339    0.800359    0.340105    0.000000
    80  O3    s     0.412184    0.251626    0.314057    0.000000
    81  O3    s     0.016151    0.027396    0.529075    0.000000
    82  O3    s     0.478024    0.058300    0.528321    0.000000
    83  O1    s     0.980263    0.057277    0.273046    0.000000
    84  O1    s     0.521097    0.007217    0.279434    0.000000
    85  O3    s     0.974522    0.049264    0.761688    0.000000
    86  O3    s     0.519555    0.046074    0.765600    0.000000
    87  O1    s     0.630330    0.138967    0.095856    0.000000
    88  O1    s     0.871425    0.928402    0.092591    0.000000
    89  O3    s     0.406630    0.271496    0.866680    0.000000
    90  O1    s     0.087025    0.809713    0.846413    0.000000
    91  O1    s     0.380333    0.915604    0.855984    0.000000
    92  O1    s     0.121182    0.149876    0.848917    0.000000
    93  O1    s     0.581847    0.803322    0.086119    0.000000
    94  O1    s     0.921299    0.264644    0.074275    0.000000
    95  O1    s     0.482664    0.061454    0.026682    0.000000
    96  O1    s     0.017633    0.004665    0.018326    0.000000
    97  O1    s     0.154112    0.481016    0.307732    0.000000
    98  O3    s     0.343054    0.548058    0.300746    0.000000
    99  O1    s     0.840744    0.580419    0.623513    0.000000
   100  O1    s     0.652930    0.510404    0.629356    0.000000
   101  O3    s     0.272331    0.267896    0.261736    0.000000
   102  O1    s     0.232058    0.780643    0.261534    0.000000
   103  O1    s     0.762392    0.281499    0.676327    0.000000
   104  O1    s     0.732154    0.806013    0.680813    0.000000
   105  O1    s     0.148323    0.268611    0.097079    0.000000
   106  O1    s     0.356100    0.793103    0.102291    0.000000
   107  O1    s     0.876417    0.402537    0.834427    0.000000
   108  O1    s     0.618883    0.682147    0.841862    0.000000
   109  O1    s     0.853835    0.790162    0.842375    0.000000
   110  O1    s     0.645065    0.289711    0.845944    0.000000
   111  O1    s     0.119750    0.674024    0.095525    0.000000
   112  O2    s     0.363699    0.392431    0.093347    0.000000
   113  O1    s     0.660361    0.492583    0.056032    0.000000
   114  O1    s     0.842116    0.576689    0.052844    0.000000
   115  O3    s     0.338139    0.563611    0.892846    0.000000
   116  O1    s     0.157386    0.492693    0.884611    0.000000
   117  O1    s     0.770870    0.269555    0.001220    0.000000
   118  O1    s     0.730228    0.800161    0.000880    0.000000
   119  O3    s     0.269761    0.273785    0.930392    0.000000
   120  O1    s     0.233379    0.797288    0.941029    0.000000
--------------------------------------------------------------------------------

  Final Cartesian lattice vectors (Angstroms) :

       17.556242   -0.184831   -0.024570
       -0.081942    7.808199    0.050153
       -0.012527    0.065025   10.157906


  Final cell parameters and derivatives :

--------------------------------------------------------------------------------
       a           17.557232 Angstrom     dE/de1(xx)     0.002719 eV/strain
       b            7.808790 Angstrom     dE/de2(yy)     0.002462 eV/strain
       c           10.158122 Angstrom     dE/de3(zz)     0.001980 eV/strain
       alpha       89.264517 Degrees      dE/de4(yz)    -0.000145 eV/strain
       beta        90.154691 Degrees      dE/de5(xz)    -0.000012 eV/strain
       gamma       91.204930 Degrees      dE/de6(xy)    -0.000045 eV/strain
--------------------------------------------------------------------------------

  Primitive cell volume =          1392.259238 Angs**3

  Density of cell =      2.782074 g/cm**3

  Non-primitive cell volume =          1392.259238 Angs**3


  Final internal derivatives :

--------------------------------------------------------------------------------
   No.  Atomic          a             b             c           Radius
        Label          (eV)          (eV)          (eV)        (eV/Angs)
--------------------------------------------------------------------------------
      1 Ge    c       0.000000      0.000000      0.000000      0.000000
      2 Ge    c       0.000086      0.000212      0.000062      0.000000
      3 Ge    c       0.000136     -0.000418      0.000306      0.000000
      4 Ge    c      -0.001363     -0.001586      0.001212      0.000000
      5 Ge    c      -0.000264      0.000022      0.000010      0.000000
      6 Ge    c       0.001756     -0.000320     -0.000159      0.000000
      7 Ge    c       0.000264     -0.000052      0.000310      0.000000
      8 Ge    c      -0.000049      0.000087     -0.000012      0.000000
      9 Ge    c       0.000068      0.000015     -0.000472      0.000000
     10 Ge    c      -0.000346      0.000123      0.000130      0.000000
     11 Ge    c       0.000216      0.000215      0.000068      0.000000
     12 Ge    c      -0.000271     -0.000025     -0.000047      0.000000
     13 Ge    c       0.000365      0.000268      0.000343      0.000000
     14 Ge    c      -0.000455     -0.000324     -0.000222      0.000000
     15 Ge    c      -0.000023      0.000170     -0.000492      0.000000
     16 Ge    c      -0.000633      0.000336     -0.000067      0.000000
     17 Ge    c       0.000287      0.000132     -0.000156      0.000000
     18 Ge    c       0.000308     -0.000334     -0.000253      0.000000
     19 Ge    c       0.000003      0.000206     -0.000118      0.000000
     20 Ge    c      -0.002590      0.000529     -0.000018      0.000000
     21 Si    c       0.000026      0.000139     -0.000100      0.000000
     22 Si    c      -0.000035      0.000048      0.000224      0.000000
     23 Si    c       0.000110     -0.000132     -0.000053      0.000000
     24 Si    c       0.000553     -0.000250     -0.000195      0.000000
     25 O1    c       0.000992      0.000223     -0.000176      0.000000
     26 O1    c      -0.000496     -0.000356      0.000011      0.000000
     27 O3    c      -0.000112      0.000197     -0.000274      0.000000
     28 O3    c       0.000353     -0.000018      0.000015      0.000000
     29 O3    c      -0.001021     -0.000541     -0.000316      0.000000
     30 O3    c      -0.000046     -0.000110      0.000025      0.000000
     31 O1    c      -0.000285     -0.000369      0.000012      0.000000
     32 O3    c      -0.000152     -0.000149      0.000163      0.000000
     33 O3    c       0.000565      0.000066     -0.000328      0.000000
     34 O3    c       0.000292     -0.000065     -0.000162      0.000000
     35 O1    c      -0.001961      0.000347     -0.000787      0.000000
     36 O1    c       0.000643     -0.000174     -0.000290      0.000000
     37 O3    c      -0.001875      0.000058     -0.000594      0.000000
     38 O3    c       0.000231      0.000131     -0.000272      0.000000
     39 O1    c       0.002006      0.000880     -0.000183      0.000000
     40 O1    c      -0.000437     -0.000387      0.000363      0.000000
     41 O3    c      -0.000227     -0.000095      0.000092      0.000000
     42 O1    c      -0.000002      0.000276      0.000010      0.000000
     43 O1    c       0.000099      0.000064      0.000258      0.000000
     44 O1    c       0.000378      0.000222      0.000130      0.000000
     45 O1    c       0.000408      0.000138      0.000306      0.000000
     46 O1    c      -0.000168      0.002826      0.001392      0.000000
     47 O1    c      -0.002173      0.000188     -0.000871      0.000000
     48 O1    c       0.007859     -0.000645     -0.002306      0.000000
     49 O1    c      -0.000051     -0.000268      0.000263      0.000000
     50 O3    c      -0.000006      0.000016      0.000185      0.000000
     51 O1    c       0.000208     -0.000335     -0.000415      0.000000
     52 O1    c      -0.000036     -0.000146     -0.000095      0.000000
     53 O3    c      -0.000293     -0.000105      0.000016      0.000000
     54 O1    c      -0.000216      0.000132     -0.000054      0.000000
     55 O1    c      -0.001066     -0.000253      0.000134      0.000000
     56 O1    c      -0.000115      0.000241     -0.000062      0.000000
     57 O1    c      -0.000166     -0.000025     -0.000424      0.000000
     58 O1    c       0.000068     -0.000008      0.000081      0.000000
     59 O1    c       0.002563      0.000082     -0.001212      0.000000
     60 O1    c       0.000152     -0.000087      0.000033      0.000000
     61 O1    c      -0.000081      0.000052      0.000243      0.000000
     62 O1    c       0.000085      0.000175      0.000470      0.000000
     63 O1    c      -0.001211      0.000227     -0.000664      0.000000
     64 O2    c      -0.000038      0.000018      0.000268      0.000000
     65 O1    c      -0.000203      0.000450      0.000339      0.000000
     66 O1    c       0.000456     -0.000860      0.000436      0.000000
     67 O3    c      -0.000061      0.000224     -0.000123      0.000000
     68 O1    c      -0.000044     -0.000103     -0.000525      0.000000
     69 O1    c       0.000153     -0.000576     -0.000077      0.000000
     70 O1    c      -0.001285      0.000240      0.000067      0.000000
     71 O3    c      -0.000691     -0.000196      0.000055      0.000000
     72 O1    c       0.000985      0.000403      0.000150      0.000000
     73 O1    s       0.000308      0.000065      0.000230      0.000000
     74 O1    s       0.000179      0.000168      0.000048      0.000000
     75 O3    s       0.000213      0.000062      0.000131      0.000000
     76 O3    s      -0.000608      0.000021     -0.000043      0.000000
     77 O3    s       0.000185      0.000110      0.000095      0.000000
     78 O3    s      -0.000305      0.000131     -0.000079      0.000000
     79 O1    s       0.000086     -0.000176      0.000293      0.000000
     80 O3    s       0.000340      0.000117     -0.000141      0.000000
     81 O3    s       0.000049     -0.000025      0.000815      0.000000
     82 O3    s       0.000363      0.000024      0.000355      0.000000
     83 O1    s       0.000636     -0.000222      0.001334      0.000000
     84 O1    s      -0.000720      0.000182      0.000451      0.000000
     85 O3    s       0.001012      0.000144      0.000437      0.000000
     86 O3    s      -0.000598     -0.000175     -0.000008      0.000000
     87 O1    s      -0.000864     -0.000412      0.000127      0.000000
     88 O1    s      -0.001050     -0.000468      0.000054      0.000000
     89 O3    s       0.000409     -0.000036     -0.000073      0.000000
     90 O1    s      -0.000435     -0.000219     -0.000245      0.000000
     91 O1    s       0.000158     -0.000012     -0.000190      0.000000
     92 O1    s      -0.000134      0.000014     -0.000035      0.000000
     93 O1    s      -0.000412     -0.000380     -0.000198      0.000000
     94 O1    s       0.000317     -0.000646      0.000420      0.000000
     95 O1    s       0.000563     -0.000077      0.000498      0.000000
     96 O1    s      -0.001695      0.000573      0.000967      0.000000
     97 O1    s       0.000171      0.000055     -0.000087      0.000000
     98 O3    s       0.000087      0.000027     -0.000052      0.000000
     99 O1    s      -0.000119      0.000363      0.000345      0.000000
    100 O1    s      -0.000182      0.000064     -0.000097      0.000000
    101 O3    s       0.000182      0.000043      0.000007      0.000000
    102 O1    s       0.000567     -0.000037      0.000128      0.000000
    103 O1    s       0.000366     -0.000008     -0.000366      0.000000
    104 O1    s       0.000040     -0.000169      0.000031      0.000000
    105 O1    s      -0.000371      0.000020     -0.000041      0.000000
    106 O1    s       0.000104      0.000018     -0.000122      0.000000
    107 O1    s       0.000090     -0.000061     -0.000104      0.000000
    108 O1    s      -0.000168      0.000143      0.000004      0.000000
    109 O1    s       0.000522     -0.000152     -0.000435      0.000000
    110 O1    s      -0.000307     -0.000208     -0.000365      0.000000
    111 O1    s       0.000319     -0.000359      0.000241      0.000000
    112 O2    s       0.000353     -0.000063     -0.000035      0.000000
    113 O1    s       0.000274     -0.000193     -0.000111      0.000000
    114 O1    s      -0.000471      0.000673      0.000105      0.000000
    115 O3    s       0.000149      0.000054     -0.000057      0.000000
    116 O1    s      -0.000058     -0.000131      0.000279      0.000000
    117 O1    s      -0.001282      0.000174      0.000122      0.000000
    118 O1    s      -0.000079      0.000040     -0.000077      0.000000
    119 O3    s      -0.000116      0.000137     -0.000090      0.000000
    120 O1    s      -0.000281     -0.000214     -0.000225      0.000000
--------------------------------------------------------------------------------
  Maximum abs         0.007859      0.002826      0.002306      0.000000
--------------------------------------------------------------------------------


  Born effective charge tensors : 

-------------------------------------------------------------------------------
  Atom             x           y             z
-------------------------------------------------------------------------------
    1 Ge    x       4.2003     -0.3172     -0.4541
            y       0.1481      3.9069      0.0914
            z      -0.2438      0.0456      4.3521
-------------------------------------------------------------------------------
    2 Ge    x       4.1050     -0.1799      0.4785
            y       0.1997      3.9077     -0.1505
            z       0.1952      0.0541      4.3562
-------------------------------------------------------------------------------
    3 Ge    x       4.2691     -0.2335     -0.4040
            y       0.1463      3.9331      0.0746
            z      -0.3287     -0.0066      4.0129
-------------------------------------------------------------------------------
    4 Ge    x       4.2296     -0.2149      0.3683
            y       0.1779      3.9223     -0.0834
            z       0.3061      0.0266      4.0642
-------------------------------------------------------------------------------
    5 Ge    x       4.1317     -0.1399      0.0642
            y       0.1441      3.9320      0.0573
            z      -0.6548      0.1829      3.7023
-------------------------------------------------------------------------------
    6 Ge    x       4.2253     -0.1447     -0.0894
            y       0.1083      3.9302      0.0131
            z       0.6465     -0.1757      3.6653
-------------------------------------------------------------------------------
    7 Ge    x       3.8942      0.2854     -0.2829
            y       0.2426      4.1851     -0.0690
            z      -0.0519     -0.1848      3.6428
-------------------------------------------------------------------------------
    8 Ge    x       3.9488      0.2630      0.2518
            y       0.2612      4.2135      0.1720
            z      -0.0153      0.2590      3.5992
-------------------------------------------------------------------------------
    9 Ge    x       3.9160     -0.0372     -0.1506
            y      -0.4054      4.2659      0.1013
            z       0.0203      0.1871      3.4853
-------------------------------------------------------------------------------
   10 Ge    x       3.9245     -0.0577      0.1493
            y      -0.4139      4.2540     -0.0790
            z      -0.0225     -0.1824      3.5018
-------------------------------------------------------------------------------
   11 Ge    x       4.0523      0.2265     -0.2474
            y       0.2325      4.1357      0.0352
            z       0.0395     -0.0524      3.5073
-------------------------------------------------------------------------------
   12 Ge    x       4.0492      0.2292      0.2331
            y       0.2365      4.1549     -0.0165
            z      -0.0359      0.0582      3.5136
-------------------------------------------------------------------------------
   13 Ge    x       3.9809     -0.1032     -0.2030
            y      -0.4722      4.1978      0.1172
            z      -0.1188      0.2139      3.6443
-------------------------------------------------------------------------------
   14 Ge    x       4.0539      0.2219     -0.3032
            y       0.2133      4.1983     -0.0933
            z      -0.0036     -0.2190      3.5588
-------------------------------------------------------------------------------
   15 Ge    x       4.0519      0.2198      0.3092
            y       0.2118      4.1934      0.0921
            z       0.0060      0.2146      3.5557
-------------------------------------------------------------------------------
   16 Ge    x       4.0047     -0.1127      0.3271
            y      -0.4422      4.2079     -0.1035
            z       0.1299     -0.1739      3.4885
-------------------------------------------------------------------------------
   17 Ge    x       4.0367      0.2831     -0.2960
            y       0.3418      4.1832     -0.1187
            z      -0.0222     -0.2021      3.4376
-------------------------------------------------------------------------------
   18 Ge    x       3.9967      0.2914      0.3535
            y       0.3555      4.1304      0.0667
            z       0.1227      0.1275      3.5129
-------------------------------------------------------------------------------
   19 Ge    x       4.0198     -0.0519     -0.2856
            y      -0.4567      4.1740      0.0556
            z      -0.1407      0.1838      3.5335
-------------------------------------------------------------------------------
   20 Ge    x       4.0285     -0.0530      0.2565
            y      -0.4529      4.1833     -0.0345
            z       0.1426     -0.1979      3.5199
-------------------------------------------------------------------------------
   21 Si    x       3.8762     -0.2444      0.1593
            y       0.0592      3.6676     -0.0050
            z      -0.7279      0.1611      3.8010
-------------------------------------------------------------------------------
   22 Si    x       3.8576     -0.2359     -0.1438
            y       0.1115      3.6496      0.0322
            z       0.7594     -0.0992      3.9278
-------------------------------------------------------------------------------
   23 Si    x       3.6204     -0.0759      0.2250
            y      -0.4386      3.9093     -0.0362
            z       0.2023     -0.2157      3.0729
-------------------------------------------------------------------------------
   24 Si    x       3.6398     -0.0494     -0.3384
            y      -0.4093      3.8936      0.0954
            z      -0.2101      0.2018      2.9837
-------------------------------------------------------------------------------
   25 O1    x      -2.2726     -0.9037      0.5532
            y      -0.9376     -2.2827      0.5179
            z       0.5070      0.5454     -1.6802
-------------------------------------------------------------------------------
   26 O1    x      -2.1077     -0.9176     -0.5052
            y      -0.9636     -2.4155     -0.5063
            z      -0.4753     -0.5631     -1.7039
-------------------------------------------------------------------------------
   27 O3    x      -1.8053      0.8305      0.2211
            y       0.8009     -2.4916     -0.1988
            z       0.3124     -0.2261     -1.4260
-------------------------------------------------------------------------------
   28 O3    x      -1.8164      0.8451     -0.2293
            y       0.8019     -2.4910      0.2061
            z      -0.3224      0.2356     -1.4339
-------------------------------------------------------------------------------
   29 O3    x      -2.0888     -0.8584      0.2002
            y      -0.9077     -2.1640      0.2306
            z       0.2869      0.2365     -1.4531
-------------------------------------------------------------------------------
   30 O3    x      -2.1068     -0.8640     -0.1952
            y      -0.9200     -2.1504     -0.2286
            z      -0.2829     -0.2373     -1.4679
-------------------------------------------------------------------------------
   31 O1    x      -1.9473      0.8345      0.5355
            y       0.7756     -2.5707     -0.5570
            z       0.4927     -0.5466     -1.6792
-------------------------------------------------------------------------------
   32 O3    x      -1.9551      0.8877     -0.5660
            y       0.8033     -2.3217      0.5721
            z      -0.4961      0.5774     -1.5866
-------------------------------------------------------------------------------
   33 O3    x      -2.0859      0.2904      0.8661
            y       0.1278     -1.2242     -0.1666
            z       1.1099     -0.3113     -2.7214
-------------------------------------------------------------------------------
   34 O3    x      -2.0481      0.2005     -0.9064
            y       0.0718     -1.2122      0.0797
            z      -1.1296      0.1440     -2.8179
-------------------------------------------------------------------------------
   35 O1    x      -2.0462      0.2494     -0.7970
            y       0.1242     -1.3109      0.1654
            z      -0.8375      0.2034     -2.8297
-------------------------------------------------------------------------------
   36 O1    x      -2.1261      0.2548      0.7793
            y       0.1499     -1.3162     -0.1484
            z       0.8291     -0.1718     -2.7366
-------------------------------------------------------------------------------
   37 O3    x      -1.9414      0.1955     -0.7135
            y       0.0899     -1.2700      0.1347
            z      -0.7132      0.1882     -2.5074
-------------------------------------------------------------------------------
   38 O3    x      -1.9294      0.1706      0.7719
            y       0.0580     -1.2726     -0.1515
            z       0.7535     -0.1952     -2.5936
-------------------------------------------------------------------------------
   39 O1    x      -2.2330     -0.8815      0.5389
            y      -0.8939     -2.2813      0.5232
            z       0.4628      0.5232     -1.6084
-------------------------------------------------------------------------------
   40 O1    x      -2.2409     -0.8827     -0.5242
            y      -0.8972     -2.2691     -0.5067
            z      -0.4594     -0.5184     -1.6087
-------------------------------------------------------------------------------
   41 O3    x      -2.0335      0.8836      0.4403
            y       0.8259     -2.2731     -0.3498
            z       0.4806     -0.4015     -1.4234
-------------------------------------------------------------------------------
   42 O1    x      -2.0361      0.8705     -0.3820
            y       0.8423     -2.5100      0.3042
            z      -0.4230      0.3250     -1.5100
-------------------------------------------------------------------------------
   43 O1    x      -2.1511     -0.9166      0.3190
            y      -0.9821     -2.4174      0.3432
            z       0.3983      0.3711     -1.5116
-------------------------------------------------------------------------------
   44 O1    x      -2.2858     -0.9309     -0.3638
            y      -0.9836     -2.2816     -0.3745
            z      -0.4371     -0.3855     -1.5246
-------------------------------------------------------------------------------
   45 O1    x      -1.9981      0.7991      0.5554
            y       0.7200     -2.5163     -0.5628
            z       0.4888     -0.5462     -1.5850
-------------------------------------------------------------------------------
   46 O1    x      -2.0313      0.8076     -0.5270
            y       0.7325     -2.5226      0.5395
            z      -0.4695      0.5235     -1.5517
-------------------------------------------------------------------------------
   47 O1    x      -2.1600      0.2645     -0.7458
            y       0.1724     -1.3911      0.1975
            z      -0.5132      0.1581     -2.3225
-------------------------------------------------------------------------------
   48 O1    x      -2.1257      0.2458      0.7153
            y       0.1535     -1.3877     -0.1780
            z       0.4873     -0.1380     -2.3583
-------------------------------------------------------------------------------
   49 O1    x      -1.3858      0.2429      0.0965
            y       0.3445     -3.1366      0.0032
            z       0.0614     -0.0051     -1.3945
-------------------------------------------------------------------------------
   50 O3    x      -1.2444      0.1485     -0.0487
            y       0.2590     -3.0190     -0.2041
            z      -0.0057     -0.2021     -1.3507
-------------------------------------------------------------------------------
   51 O1    x      -1.3480      0.1466      0.0896
            y       0.2590     -3.2121     -0.0375
            z       0.0313      0.0035     -1.4113
-------------------------------------------------------------------------------
   52 O1    x      -1.3524      0.1574     -0.0834
            y       0.2688     -3.2289     -0.0125
            z      -0.0279     -0.0354     -1.3993
-------------------------------------------------------------------------------
   53 O3    x      -2.8086     -0.3594      0.0719
            y      -0.2967     -1.5143      0.0566
            z       0.0702      0.0965     -1.1829
-------------------------------------------------------------------------------
   54 O1    x      -3.0711     -0.2486     -0.0081
            y      -0.1486     -1.5826     -0.0334
            z       0.0290     -0.0614     -1.2240
-------------------------------------------------------------------------------
   55 O1    x      -3.1509     -0.2597      0.0434
            y      -0.1543     -1.5650     -0.0203
            z       0.0619     -0.0470     -1.2111
-------------------------------------------------------------------------------
   56 O1    x      -3.1586     -0.2489      0.0088
            y      -0.1493     -1.5604      0.0161
            z      -0.0234      0.0454     -1.2093
-------------------------------------------------------------------------------
   57 O1    x      -1.5194     -0.1168     -0.0361
            y      -0.1299     -1.4118     -0.0009
            z      -0.0514      0.0077     -2.7630
-------------------------------------------------------------------------------
   58 O1    x      -1.4675     -0.1385      0.0291
            y      -0.1556     -1.4916      0.0453
            z       0.0385      0.0418     -2.6829
-------------------------------------------------------------------------------
   59 O1    x      -1.4375      0.0043     -0.0519
            y       0.0792     -1.4553     -0.0341
            z      -0.0606     -0.0353     -2.7566
-------------------------------------------------------------------------------
   60 O1    x      -1.4518      0.0089      0.0053
            y       0.0825     -1.4446      0.0672
            z       0.0159      0.0792     -2.7530
-------------------------------------------------------------------------------
   61 O1    x      -1.5010     -0.1059      0.0192
            y      -0.1153     -1.4276      0.0373
            z       0.0108     -0.0043     -2.7370
-------------------------------------------------------------------------------
   62 O1    x      -1.4911     -0.0984     -0.0648
            y      -0.1080     -1.4279      0.0000
            z      -0.0616      0.0480     -2.7499
-------------------------------------------------------------------------------
   63 O1    x      -1.4653      0.0268     -0.0203
            y       0.0941     -1.4300      0.0062
            z      -0.0146      0.0197     -2.7579
-------------------------------------------------------------------------------
   64 O2    x      -1.2096      0.0202      0.0030
            y       0.0886     -1.2853      0.0243
            z       0.0056      0.0220     -2.1051
-------------------------------------------------------------------------------
   65 O1    x      -1.4019      0.2206      0.0737
            y       0.3320     -3.1412      0.0177
            z       0.0295     -0.0101     -1.3692
-------------------------------------------------------------------------------
   66 O1    x      -1.4036      0.2176     -0.0743
            y       0.3248     -3.1331     -0.0610
            z      -0.0302     -0.0312     -1.3757
-------------------------------------------------------------------------------
   67 O3    x      -1.2737      0.1543      0.0632
            y       0.2177     -3.0219      0.0908
            z       0.0092      0.1400     -1.2877
-------------------------------------------------------------------------------
   68 O1    x      -1.4074      0.2414     -0.1001
            y       0.2882     -3.1352     -0.0215
            z      -0.0510     -0.0292     -1.3374
-------------------------------------------------------------------------------
   69 O1    x      -3.0590     -0.3045      0.0389
            y      -0.2108     -1.6046      0.0157
            z       0.0139      0.0546     -1.2035
-------------------------------------------------------------------------------
   70 O1    x      -3.0637     -0.3048      0.0090
            y      -0.2144     -1.5969     -0.0103
            z       0.0260     -0.0455     -1.2051
-------------------------------------------------------------------------------
   71 O3    x      -2.8082     -0.3853     -0.0343
            y      -0.2865     -1.5385     -0.0418
            z      -0.0467     -0.0813     -1.1483
-------------------------------------------------------------------------------
   72 O1    x      -3.0604     -0.2624     -0.0470
            y      -0.1323     -1.6219     -0.0029
            z      -0.0746      0.0326     -1.1827
-------------------------------------------------------------------------------




  Elastic Constant Matrix: (Units=GPa)

-------------------------------------------------------------------------------
  Indices      1         2         3         4         5         6    
-------------------------------------------------------------------------------
       1     30.6780   14.2665   10.3343    0.7791    0.0558   -6.8969
       2     14.2665   36.8945    8.0363    0.6533    0.4179   -6.3532
       3     10.3343    8.0363   15.6696    0.9679    0.0063   -1.1844
       4      0.7791    0.6533    0.9679    8.0454   -1.4085   -0.5561
       5      0.0558    0.4179    0.0063   -1.4085   16.0740    1.1441
       6     -6.8969   -6.3532   -1.1844   -0.5561    1.1441   19.8580
-------------------------------------------------------------------------------


  Elastic Compliance Matrix: (Units=1/GPa)

-------------------------------------------------------------------------------
  Indices      1         2         3         4         5         6    
-------------------------------------------------------------------------------
       1    0.049248 -0.011365 -0.025742 -0.000048 -0.000722  0.011973
       2   -0.011365  0.034811 -0.009833 -0.000321 -0.001365  0.006673
       3   -0.025742 -0.009833  0.085757 -0.007493  0.000167 -0.007191
       4   -0.000048 -0.000321 -0.007493  0.127316  0.010999  0.002365
       5   -0.000722 -0.001365  0.000167  0.010999  0.063501 -0.004028
       6    0.011973  0.006673 -0.007191  0.002365 -0.004028  0.056520
-------------------------------------------------------------------------------

  Mechanical properties :

-------------------------------------------------------------------------------
  Convention :                    Reuss         Voigt         Hill
-------------------------------------------------------------------------------
  Bulk  Modulus (GPa)     =      13.16916      16.50181      14.83549
  Shear Modulus (GPa)     =       9.32233      12.16914      10.74574
-------------------------------------------------------------------------------
  Velocity S-wave (km/s)  =       1.83053       2.09144       1.96532
  Velocity P-wave (km/s)  =       3.03338       3.42982       3.23767
-------------------------------------------------------------------------------
  Compressibility (1/GPa) =    0.07593500
-------------------------------------------------------------------------------
  Stress axis :                     x             y             z
-------------------------------------------------------------------------------
  Youngs Moduli (GPa)     =      20.30540      28.72639      11.66080
-------------------------------------------------------------------------------
  Poissons Ratio (x)      =                     0.32649       0.30018
  Poissons Ratio (y)      =       0.23078                     0.11466
  Poissons Ratio (z)      =       0.52271       0.28246
-------------------------------------------------------------------------------


  Piezoelectric Strain Matrix: (Units=C/m**2)

-------------------------------------------------------------------------------
  Indices      1         2         3         4         5         6    
-------------------------------------------------------------------------------
       x     0.41914   0.18221   0.22968  -0.11036  -0.51167   0.13053
       y     0.24184   0.17475   0.36045  -0.77289   0.32103  -0.19345
       z    -0.44482   0.04164   1.08974   0.29961  -0.01056   0.29918
-------------------------------------------------------------------------------


  Piezoelectric Stress Matrix: (Units=10**-11 C/N)

-------------------------------------------------------------------------------
  Indices      1         2         3         4         5         6    
-------------------------------------------------------------------------------
       x     1.45958   0.09256   0.69187  -2.11691  -3.47441   1.37602
       y    -0.18658  -0.16908   3.02039  -9.80965   1.23110  -1.25857
       z    -4.68568  -0.22956  10.00963   3.05785   0.18660   0.47767
-------------------------------------------------------------------------------


  Static dielectric constant tensor : 

-------------------------------------------------------------------------------
              x         y         z
-------------------------------------------------------------------------------
       x     5.32927   0.08499  -0.02004
       y     0.08499   6.52887   0.08160
       z    -0.02004   0.08160   4.10053
--------------------------------------------------------------------------------

  High frequency dielectric constant tensor : 

-------------------------------------------------------------------------------
              x         y         z
-------------------------------------------------------------------------------
       x     1.55701  -0.00365  -0.00013
       y    -0.00365   1.56351   0.00090
       z    -0.00013   0.00090   1.51822
-------------------------------------------------------------------------------

  Static refractive indices : 

-------------------------------------------------------------------------------
    1 =    2.02419      2 =    2.30734      3 =    2.55685
-------------------------------------------------------------------------------

  High frequency refractive indices : 

-------------------------------------------------------------------------------
    1 =    1.23215      2 =    1.24715      3 =    1.25106
-------------------------------------------------------------------------------


  Time to end of optimisation =       9.7626 seconds


  Peak dynamic memory used =       5.01 MB 


  Timing analysis for GULP :

--------------------------------------------------------------------------------
  Task / Subroutine                                          Time (Seconds)
--------------------------------------------------------------------------------
  Calculation of reciprocal space energy and derivatives          0.6659
  Calculation of real space energy and derivatives                7.0511
  Calculation of three-body energy and derivatives                0.0961
  Calculation and manipulation of Hessian matrix                  2.3119
  Calculation of matrix inversion                                 0.0503
  Global summation overhead                                       0.0001
--------------------------------------------------------------------------------
  Total CPU time                                                  9.7627
--------------------------------------------------------------------------------


  Dump file written as c01253.vasp.grs
  CIF file written as c01253.vasp.cif


  Job Finished at 15:30.12 31st October    2025                               

