********************************************************************************
*                       GENERAL UTILITY LATTICE PROGRAM                        *
*                                 Julian Gale                                  *
*                       Curtin Institute for Computation                       *
*                    School of Molecular and Life Sciences                     *
*                    Curtin University, Western Australia                      *
********************************************************************************
* Version = 6.1.2 * Last modified =   3rd November 2022                        *
********************************************************************************
*  optimise     - perform optimisation run                                     *
*  conp         - constant pressure calculation                                *
*  property     - calculate properties for final geometry                      *
********************************************************************************

  Job Started  at 15:51.23 31st October    2025                               

  Number of CPUs =     1


  Total number of configurations input =      1

********************************************************************************
*  Input for Configuration =   1 : c01390.vasp                                 *
********************************************************************************

  Formula = Ge20Si4O48                                                  

  Number of irreducible atoms/shells =     120


  Total number atoms/shells =     120

  Dimensionality = 3               :  Bulk   



  Cartesian lattice vectors (Angstroms) :

       17.182800    0.000000    0.000000
        0.000000    7.513760    0.000000
        0.000000    0.000000   10.447700

  Cell parameters (Angstroms/Degrees):

  a =      17.1828    alpha =  90.0000
  b =       7.5138    beta  =  90.0000
  c =      10.4477    gamma =  90.0000

  Initial cell volume =        1348.875752 Angs**3

  Temperature of configuration =   0.00     K 

  Pressure of configuration =         0.000 GPa 

  Fractional coordinates of asymmetric unit :

--------------------------------------------------------------------------------
   No.  Atomic       x           y          z         Charge      Occupancy
        Label      (Frac)      (Frac)     (Frac)        (e)         (Frac)  
--------------------------------------------------------------------------------
      1 Ge    c    0.052090    0.000000    0.372270     4.00000    1.000000    
      2 Ge    c    0.552090 *  0.000000 *  0.627730 *   4.00000    1.000000    
      3 Ge    c    0.556730 *  0.000000 *  0.122130 *   4.00000    1.000000    
      4 Ge    c    0.943270 *  0.000000 *  0.122130 *   4.00000    1.000000    
      5 Ge    c    0.443270 *  0.000000 *  0.877870 *   4.00000    1.000000    
      6 Ge    c    0.160190 *  0.293910 *  0.273440 *   4.00000    1.000000    
      7 Ge    c    0.339810 *  0.706090 *  0.273440 *   4.00000    1.000000    
      8 Ge    c    0.839810 *  0.293910 *  0.726560 *   4.00000    1.000000    
      9 Ge    c    0.660190 *  0.706090 *  0.726560 *   4.00000    1.000000    
     10 Ge    c    0.839810 *  0.706090 *  0.726560 *   4.00000    1.000000    
     11 Ge    c    0.660190 *  0.293910 *  0.726560 *   4.00000    1.000000    
     12 Ge    c    0.160190 *  0.706090 *  0.273440 *   4.00000    1.000000    
     13 Ge    c    0.660660 *  0.294090 *  0.017440 *   4.00000    1.000000    
     14 Ge    c    0.839340 *  0.705910 *  0.017440 *   4.00000    1.000000    
     15 Ge    c    0.339340 *  0.294090 *  0.982560 *   4.00000    1.000000    
     16 Ge    c    0.160660 *  0.705910 *  0.982560 *   4.00000    1.000000    
     17 Ge    c    0.339340 *  0.705910 *  0.982560 *   4.00000    1.000000    
     18 Ge    c    0.160660 *  0.294090 *  0.982560 *   4.00000    1.000000    
     19 Ge    c    0.660660 *  0.705910 *  0.017440 *   4.00000    1.000000    
     20 Ge    c    0.839340 *  0.294090 *  0.017440 *   4.00000    1.000000    
     21 Si    c    0.447910 *  0.000000 *  0.372270 *   4.00000    1.000000    
     22 Si    c    0.947910 *  0.000000 *  0.627730 *   4.00000    1.000000    
     23 Si    c    0.056730 *  0.000000 *  0.877870 *   4.00000    1.000000    
     24 Si    c    0.339810 *  0.293910 *  0.273440 *   4.00000    1.000000    
     25 O1    c    0.106570 *  0.174340 *  0.366200 *   1.73396    1.000000    
     26 O3    c    0.393430 *  0.825660 *  0.366200 *   1.33043    1.000000    
     27 O3    c    0.893430 *  0.174340 *  0.633800 *   1.33043    1.000000    
     28 O1    c    0.606570 *  0.825660 *  0.633800 *   1.73396    1.000000    
     29 O3    c    0.893430 *  0.825660 *  0.633800 *   1.33043    1.000000    
     30 O1    c    0.606570 *  0.174340 *  0.633800 *   1.73396    1.000000    
     31 O1    c    0.106570 *  0.825660 *  0.366200 *   1.73396    1.000000    
     32 O2    c    0.393430 *  0.174340 *  0.366200 *   0.87073    1.000000    
     33 O3    c    0.000000 *  0.000000 *  0.500000 *   1.33043    1.000000    
     34 O3    c    0.500000 *  0.000000 *  0.500000 *   1.33043    1.000000    
     35 O1    c    0.994520 *  0.000000 *  0.250840 *   1.73396    1.000000    
     36 O3    c    0.505480 *  0.000000 *  0.250840 *   1.33043    1.000000    
     37 O2    c    0.005480 *  0.000000 *  0.749160 *   0.87073    1.000000    
     38 O1    c    0.494520 *  0.000000 *  0.749160 *   1.73396    1.000000    
     39 O1    c    0.610230 *  0.175520 *  0.115390 *   1.73396    1.000000    
     40 O1    c    0.889770 *  0.824480 *  0.115390 *   1.73396    1.000000    
     41 O1    c    0.389770 *  0.175520 *  0.884610 *   1.73396    1.000000    
     42 O3    c    0.110230 *  0.824480 *  0.884610 *   1.33043    1.000000    
     43 O1    c    0.389770 *  0.824480 *  0.884610 *   1.73396    1.000000    
     44 O3    c    0.110230 *  0.175520 *  0.884610 *   1.33043    1.000000    
     45 O1    c    0.610230 *  0.824480 *  0.115390 *   1.73396    1.000000    
     46 O1    c    0.889770 *  0.175520 *  0.115390 *   1.73396    1.000000    
     47 O1    c    0.500000 *  0.000000 *  0.000000 *   1.73396    1.000000    
     48 O3    c    0.000000 *  0.000000 *  0.000000 *   1.33043    1.000000    
     49 O1    c    0.151750 *  0.500000 *  0.313330 *   1.73396    1.000000    
     50 O3    c    0.348250 *  0.500000 *  0.313330 *   1.33043    1.000000    
     51 O1    c    0.848250 *  0.500000 *  0.686670 *   1.73396    1.000000    
     52 O1    c    0.651750 *  0.500000 *  0.686670 *   1.73396    1.000000    
     53 O3    c    0.250000 *  0.234950 *  0.285720 *   1.33043    1.000000    
     54 O1    c    0.250000 *  0.765050 *  0.285720 *   1.73396    1.000000    
     55 O1    c    0.750000 *  0.234950 *  0.714280 *   1.73396    1.000000    
     56 O1    c    0.750000 *  0.765050 *  0.714280 *   1.73396    1.000000    
     57 O1    c    0.131410 *  0.268650 *  0.127790 *   1.73396    1.000000    
     58 O1    c    0.368590 *  0.731350 *  0.127790 *   1.73396    1.000000    
     59 O1    c    0.868590 *  0.268650 *  0.872210 *   1.73396    1.000000    
     60 O1    c    0.631410 *  0.731350 *  0.872210 *   1.73396    1.000000    
     61 O1    c    0.868590 *  0.731350 *  0.872210 *   1.73396    1.000000    
     62 O1    c    0.631410 *  0.268650 *  0.872210 *   1.73396    1.000000    
     63 O1    c    0.131410 *  0.731350 *  0.127790 *   1.73396    1.000000    
     64 O3    c    0.368590 *  0.268650 *  0.127790 *   1.33043    1.000000    
     65 O1    c    0.653920 *  0.500000 *  0.058200 *   1.73396    1.000000    
     66 O1    c    0.846080 *  0.500000 *  0.058200 *   1.73396    1.000000    
     67 O1    c    0.346080 *  0.500000 *  0.941800 *   1.73396    1.000000    
     68 O1    c    0.153920 *  0.500000 *  0.941800 *   1.73396    1.000000    
     69 O1    c    0.750000 *  0.231060 *  0.027050 *   1.73396    1.000000    
     70 O1    c    0.750000 *  0.768940 *  0.027050 *   1.73396    1.000000    
     71 O1    c    0.250000 *  0.231060 *  0.972950 *   1.73396    1.000000    
     72 O1    c    0.250000 *  0.768940 *  0.972950 *   1.73396    1.000000    
     73 O1    s    0.106570 *  0.174340 *  0.366200 *  -3.73396    1.000000    
     74 O3    s    0.393430 *  0.825660 *  0.366200 *  -3.33043    1.000000    
     75 O3    s    0.893430 *  0.174340 *  0.633800 *  -3.33043    1.000000    
     76 O1    s    0.606570 *  0.825660 *  0.633800 *  -3.73396    1.000000    
     77 O3    s    0.893430 *  0.825660 *  0.633800 *  -3.33043    1.000000    
     78 O1    s    0.606570 *  0.174340 *  0.633800 *  -3.73396    1.000000    
     79 O1    s    0.106570 *  0.825660 *  0.366200 *  -3.73396    1.000000    
     80 O2    s    0.393430 *  0.174340 *  0.366200 *  -2.87073    1.000000    
     81 O3    s    0.000000 *  0.000000 *  0.500000 *  -3.33043    1.000000    
     82 O3    s    0.500000 *  0.000000 *  0.500000 *  -3.33043    1.000000    
     83 O1    s    0.994520 *  0.000000 *  0.250840 *  -3.73396    1.000000    
     84 O3    s    0.505480 *  0.000000 *  0.250840 *  -3.33043    1.000000    
     85 O2    s    0.005480 *  0.000000 *  0.749160 *  -2.87073    1.000000    
     86 O1    s    0.494520 *  0.000000 *  0.749160 *  -3.73396    1.000000    
     87 O1    s    0.610230 *  0.175520 *  0.115390 *  -3.73396    1.000000    
     88 O1    s    0.889770 *  0.824480 *  0.115390 *  -3.73396    1.000000    
     89 O1    s    0.389770 *  0.175520 *  0.884610 *  -3.73396    1.000000    
     90 O3    s    0.110230 *  0.824480 *  0.884610 *  -3.33043    1.000000    
     91 O1    s    0.389770 *  0.824480 *  0.884610 *  -3.73396    1.000000    
     92 O3    s    0.110230 *  0.175520 *  0.884610 *  -3.33043    1.000000    
     93 O1    s    0.610230 *  0.824480 *  0.115390 *  -3.73396    1.000000    
     94 O1    s    0.889770 *  0.175520 *  0.115390 *  -3.73396    1.000000    
     95 O1    s    0.500000 *  0.000000 *  0.000000 *  -3.73396    1.000000    
     96 O3    s    0.000000 *  0.000000 *  0.000000 *  -3.33043    1.000000    
     97 O1    s    0.151750 *  0.500000 *  0.313330 *  -3.73396    1.000000    
     98 O3    s    0.348250 *  0.500000 *  0.313330 *  -3.33043    1.000000    
     99 O1    s    0.848250 *  0.500000 *  0.686670 *  -3.73396    1.000000    
    100 O1    s    0.651750 *  0.500000 *  0.686670 *  -3.73396    1.000000    
    101 O3    s    0.250000 *  0.234950 *  0.285720 *  -3.33043    1.000000    
    102 O1    s    0.250000 *  0.765050 *  0.285720 *  -3.73396    1.000000    
    103 O1    s    0.750000 *  0.234950 *  0.714280 *  -3.73396    1.000000    
    104 O1    s    0.750000 *  0.765050 *  0.714280 *  -3.73396    1.000000    
    105 O1    s    0.131410 *  0.268650 *  0.127790 *  -3.73396    1.000000    
    106 O1    s    0.368590 *  0.731350 *  0.127790 *  -3.73396    1.000000    
    107 O1    s    0.868590 *  0.268650 *  0.872210 *  -3.73396    1.000000    
    108 O1    s    0.631410 *  0.731350 *  0.872210 *  -3.73396    1.000000    
    109 O1    s    0.868590 *  0.731350 *  0.872210 *  -3.73396    1.000000    
    110 O1    s    0.631410 *  0.268650 *  0.872210 *  -3.73396    1.000000    
    111 O1    s    0.131410 *  0.731350 *  0.127790 *  -3.73396    1.000000    
    112 O3    s    0.368590 *  0.268650 *  0.127790 *  -3.33043    1.000000    
    113 O1    s    0.653920 *  0.500000 *  0.058200 *  -3.73396    1.000000    
    114 O1    s    0.846080 *  0.500000 *  0.058200 *  -3.73396    1.000000    
    115 O1    s    0.346080 *  0.500000 *  0.941800 *  -3.73396    1.000000    
    116 O1    s    0.153920 *  0.500000 *  0.941800 *  -3.73396    1.000000    
    117 O1    s    0.750000 *  0.231060 *  0.027050 *  -3.73396    1.000000    
    118 O1    s    0.750000 *  0.768940 *  0.027050 *  -3.73396    1.000000    
    119 O1    s    0.250000 *  0.231060 *  0.972950 *  -3.73396    1.000000    
    120 O1    s    0.250000 *  0.768940 *  0.972950 *  -3.73396    1.000000    
--------------------------------------------------------------------------------



********************************************************************************
*  General input information                                                   *
********************************************************************************

  Species output for all configurations : 

--------------------------------------------------------------------------------
  Species    Type    Atomic    Atomic    Charge       Radii (Angs)     Library
                     Number     Mass       (e)     Cova   Ionic  VDW   Symbol
--------------------------------------------------------------------------------
    Ge       Core       32      72.61   4.000000   1.170  0.000  1.750 Ge       
    Si       Core       14      28.09   4.000000   1.200  0.000  2.100 Si       
    O1       Core        8      16.00   1.733957   0.730  0.000  1.360 O1       
    O2       Core        8      16.00   0.870733   0.730  0.000  1.360 O2       
    O3       Core        8      16.00   1.330431   0.730  0.000  1.360 O3       
    O1       Shell       8       0.00  -3.733957   0.730  0.000  0.000 O1       
    O2       Shell       8       0.00  -2.870733   0.730  0.000  0.000 O2       
    O3       Shell       8       0.00  -3.330431   0.730  0.000  0.000 O3       
--------------------------------------------------------------------------------


  Lattice summation method               =    Ewald          (3-D)
                                         =    Parry          (2-D)
                                         =    Saunders et al (1-D)
  Accuracy factor for lattice sums       =   12.000


  Analytic derivatives to be used

  Time limit = Infinity

  Maximum range for interatomic potentials =    100000.000000 Angstroms

  General interatomic potentials :

--------------------------------------------------------------------------------
Atom  Types   Potential      Parameter       Value         Units   Cutoffs(Ang)
  1     2                                                            Min /  Max 
--------------------------------------------------------------------------------
Si   c O1   s Buckingham    Buckingham A     1315.2478    eV        0.000 16.000
                            Buckingham rho  0.31775900    Ang       
                            Buckingham C     10.141118    eV*Ang^6  
--------------------------------------------------------------------------------
Si   c O2   s Buckingham    Buckingham A     1315.2478    eV        0.000 16.000
                            Buckingham rho  0.31775900    Ang       
                            Buckingham C     10.141118    eV*Ang^6  
--------------------------------------------------------------------------------
Si   c O3   s Buckingham    Buckingham A     1315.2478    eV        0.000 16.000
                            Buckingham rho  0.31775900    Ang       
                            Buckingham C     10.141118    eV*Ang^6  
--------------------------------------------------------------------------------
Ge   c O1   s Buckingham    Buckingham A     1497.3996    eV        0.000 16.000
                            Buckingham rho  0.32564600    Ang       
                            Buckingham C     16.808599    eV*Ang^6  
--------------------------------------------------------------------------------
Ge   c O2   s Buckingham    Buckingham A     1497.3996    eV        0.000 16.000
                            Buckingham rho  0.32564600    Ang       
                            Buckingham C     16.808599    eV*Ang^6  
--------------------------------------------------------------------------------
Ge   c O3   s Buckingham    Buckingham A     1497.3996    eV        0.000 16.000
                            Buckingham rho  0.32564600    Ang       
                            Buckingham C     16.808599    eV*Ang^6  
--------------------------------------------------------------------------------
O1   s O1   s Buckingham    Buckingham A     22764.000    eV        0.000 16.000
                            Buckingham rho  0.14900000    Ang       
                            Buckingham C     10.937044    eV*Ang^6  
--------------------------------------------------------------------------------
O1   s O2   s Buckingham    Buckingham A     22764.000    eV        0.000 16.000
                            Buckingham rho  0.14900000    Ang       
                            Buckingham C     10.937044    eV*Ang^6  
--------------------------------------------------------------------------------
O1   s O3   s Buckingham    Buckingham A     22764.000    eV        0.000 16.000
                            Buckingham rho  0.14900000    Ang       
                            Buckingham C     10.937044    eV*Ang^6  
--------------------------------------------------------------------------------
O2   s O2   s Buckingham    Buckingham A     22764.000    eV        0.000 16.000
                            Buckingham rho  0.14900000    Ang       
                            Buckingham C     10.937044    eV*Ang^6  
--------------------------------------------------------------------------------
O2   s O3   s Buckingham    Buckingham A     22764.000    eV        0.000 16.000
                            Buckingham rho  0.14900000    Ang       
                            Buckingham C     10.937044    eV*Ang^6  
--------------------------------------------------------------------------------
O3   s O3   s Buckingham    Buckingham A     22764.000    eV        0.000 16.000
                            Buckingham rho  0.14900000    Ang       
                            Buckingham C     10.937044    eV*Ang^6  
--------------------------------------------------------------------------------
O1   c O1   s Spring (c-s)  Spring k 2       180.31577    eV*Ang^-2 0.000  0.800
                            Spring k 4       0.0000000    eV*Ang^-4 
--------------------------------------------------------------------------------
O2   c O2   s Spring (c-s)  Spring k 2       75.969800    eV*Ang^-2 0.000  0.800
                            Spring k 4       0.0000000    eV*Ang^-4 
--------------------------------------------------------------------------------
O3   c O3   s Spring (c-s)  Spring k 2       128.14270    eV*Ang^-2 0.000  0.800
                            Spring k 4       0.0000000    eV*Ang^-4 
--------------------------------------------------------------------------------

  General Three-body potentials :

--------------------------------------------------------------------------------
  Atoms       Potential      Parameter       Value         Units   Cutoffs(Ang)
  1 / 2 / 3                                                          Min /  Max 
--------------------------------------------------------------------------------
Si    core    Harmonic      Three-body cnst  1.2614000    eV*rad^-2 0.000  1.900
O1    shel                  Three-body angl  109.47000    degrees   0.000  1.900
O1    shel                  Three-body k4    0.0000000    eV*rad^-4 0.000  3.500
                            Three-body k3    0.0000000    eV*rad^-3 
--------------------------------------------------------------------------------
Si    core    Harmonic      Three-body cnst  1.2614000    eV*rad^-2 0.000  1.900
O1    shel                  Three-body angl  109.47000    degrees   0.000  1.900
õ(1   shel                  Three-body k4    0.0000000    eV*rad^-4 0.000  3.500
                            Three-body k3    0.0000000    eV*rad^-3 
--------------------------------------------------------------------------------
Si    core    Harmonic      Three-body cnst  1.2614000    eV*rad^-2 0.000  1.900
õ(1   shel                  Three-body angl  109.47000    degrees   0.000  1.900
õ(1   shel                  Three-body k4    0.0000000    eV*rad^-4 0.000  3.500
                            Three-body k3    0.0000000    eV*rad^-3 
--------------------------------------------------------------------------------
Si    core    Harmonic      Three-body cnst  1.2614000    eV*rad^-2 0.000  1.900
O1    shel                  Three-body angl  109.47000    degrees   0.000  1.900
O2    shel                  Three-body k4    0.0000000    eV*rad^-4 0.000  3.500
                            Three-body k3    0.0000000    eV*rad^-3 
--------------------------------------------------------------------------------
Si    core    Harmonic      Three-body cnst  1.2614000    eV*rad^-2 0.000  1.900
O1    shel                  Three-body angl  109.47000    degrees   0.000  1.900
õ(2   shel                  Three-body k4    0.0000000    eV*rad^-4 0.000  3.500
                            Three-body k3    0.0000000    eV*rad^-3 
--------------------------------------------------------------------------------
Si    core    Harmonic      Three-body cnst  1.2614000    eV*rad^-2 0.000  1.900
O2    shel                  Three-body angl  109.47000    degrees   0.000  1.900
õ(1   shel                  Three-body k4    0.0000000    eV*rad^-4 0.000  3.500
                            Three-body k3    0.0000000    eV*rad^-3 
--------------------------------------------------------------------------------
Si    core    Harmonic      Three-body cnst  1.2614000    eV*rad^-2 0.000  1.900
õ(1   shel                  Three-body angl  109.47000    degrees   0.000  1.900
õ(2   shel                  Three-body k4    0.0000000    eV*rad^-4 0.000  3.500
                            Three-body k3    0.0000000    eV*rad^-3 
--------------------------------------------------------------------------------
Si    core    Harmonic      Three-body cnst  1.2614000    eV*rad^-2 0.000  1.900
O2    shel                  Three-body angl  109.47000    degrees   0.000  1.900
O2    shel                  Three-body k4    0.0000000    eV*rad^-4 0.000  3.500
                            Three-body k3    0.0000000    eV*rad^-3 
--------------------------------------------------------------------------------
Si    core    Harmonic      Three-body cnst  1.2614000    eV*rad^-2 0.000  1.900
O2    shel                  Three-body angl  109.47000    degrees   0.000  1.900
õ(2   shel                  Three-body k4    0.0000000    eV*rad^-4 0.000  3.500
                            Three-body k3    0.0000000    eV*rad^-3 
--------------------------------------------------------------------------------
Si    core    Harmonic      Three-body cnst  1.2614000    eV*rad^-2 0.000  1.900
õ(2   shel                  Three-body angl  109.47000    degrees   0.000  1.900
õ(2   shel                  Three-body k4    0.0000000    eV*rad^-4 0.000  3.500
                            Three-body k3    0.0000000    eV*rad^-3 
--------------------------------------------------------------------------------

********************************************************************************
*  Output for configuration   1 : c01390.vasp                                  *
********************************************************************************


  Components of energy : 

--------------------------------------------------------------------------------
  Interatomic potentials     =         896.58623700 eV    
  Three-body potentials      =           0.00000000 eV    
  Monopole - monopole (real) =       -2676.00317478 eV    
  Monopole - monopole (recip)=       -1115.35404472 eV    
  Monopole - monopole (total)=       -3791.35721950 eV    
--------------------------------------------------------------------------------
  Total lattice energy       =       -2894.77098251 eV    
--------------------------------------------------------------------------------
  Total lattice energy       =         -279301.1492 kJ/(mole unit cells)
--------------------------------------------------------------------------------


  Number of variables =      363

  Maximum number of calculations  =          1000
  Maximum Hessian update interval =            10
  Maximum step size               =   0.100000000
  Maximum parameter tolerance     =   0.000010000
  Maximum function  tolerance     =   0.000010000
  Maximum gradient  tolerance     =   0.001000000
  Maximum gradient  component     =   0.010000000

  Symmetry not applied to optimisation

  Cell parameters to be optimised using strains

  Newton-Raphson optimiser to be used

  BFGS hessian update to be used

  Lower half triangular hessian to be used

  Minimiser to switch to RFO
  When gradient norm is less than     0.050000

  Dumpfile to be written after every cycle

  Start of bulk optimisation :

  Cycle:      0 Energy:     -2894.770983  Gnorm:      5.938194  CPU:    0.079
  ** Hessian calculated **
  Cycle:      1 Energy:     -2938.217881  Gnorm:      1.416937  CPU:    0.169
  ** Hessian calculated **
  Cycle:      2 Energy:     -2943.197957  Gnorm:      0.818401  CPU:    0.322
  Cycle:      3 Energy:     -2944.139099  Gnorm:      0.373932  CPU:    0.393
  Cycle:      4 Energy:     -2944.609569  Gnorm:      0.302275  CPU:    0.478
  Cycle:      5 Energy:     -2945.178710  Gnorm:      0.260491  CPU:    0.562
  Cycle:      6 Energy:     -2945.805295  Gnorm:      0.223021  CPU:    0.647
  Cycle:      7 Energy:     -2946.188341  Gnorm:      0.176124  CPU:    0.718
  Cycle:      8 Energy:     -2946.334163  Gnorm:      0.121631  CPU:    0.790
  Cycle:      9 Energy:     -2946.383874  Gnorm:      0.089258  CPU:    0.861
  Cycle:     10 Energy:     -2946.423284  Gnorm:      0.078614  CPU:    0.946
  Cycle:     11 Energy:     -2946.453837  Gnorm:      0.071412  CPU:    1.030
  ** Hessian calculated **
  Cycle:     12 Energy:     -2946.462986  Gnorm:      0.066465  CPU:    1.182
  Cycle:     13 Energy:     -2946.478528  Gnorm:      0.063201  CPU:    1.280
  Cycle:     14 Energy:     -2946.497170  Gnorm:      0.060874  CPU:    1.364
  Cycle:     15 Energy:     -2946.520704  Gnorm:      0.052375  CPU:    1.448
  Cycle:     16 Energy:     -2946.548506  Gnorm:      0.047283  CPU:    1.532
  ** Hessian has required structure
  Cycle:     17 Energy:     -2946.553084  Gnorm:      0.079820  CPU:    1.633
  ** Hessian has required structure
  Cycle:     18 Energy:     -2946.571616  Gnorm:      0.121232  CPU:    1.748
  ** Hessian has required structure
  Cycle:     19 Energy:     -2946.589751  Gnorm:      0.133783  CPU:    1.850
  ** Hessian has required structure
  Cycle:     20 Energy:     -2946.594623  Gnorm:      0.130055  CPU:    1.952
  ** Hessian has required structure
  Cycle:     21 Energy:     -2946.605209  Gnorm:      0.155028  CPU:    2.053
  ** Hessian has wrong structure
  ** Imaginary eigenvectors =   7
  ** Hessian has wrong structure
  ** Imaginary eigenvectors =   6
  Cycle:     22 Energy:     -2946.670166  Gnorm:      0.157747  CPU:    2.457
  ** Hessian has wrong structure
  ** Imaginary eigenvectors =   5
  ** Hessian has wrong structure
  ** Imaginary eigenvectors =   5
  Cycle:     23 Energy:     -2946.692055  Gnorm:      0.159008  CPU:    2.874
  ** Hessian has wrong structure
  ** Imaginary eigenvectors =   3
  ** Hessian has wrong structure
  ** Imaginary eigenvectors =   1
  Cycle:     24 Energy:     -2946.820738  Gnorm:      0.165516  CPU:    3.281
  ** Hessian has wrong structure
  ** Imaginary eigenvectors =   1
  ** Hessian has required structure
  Cycle:     25 Energy:     -2947.242211  Gnorm:      0.111968  CPU:    3.679
  ** Hessian has required structure
  Cycle:     26 Energy:     -2947.465041  Gnorm:      0.068857  CPU:    3.815
  ** Hessian has required structure
  Cycle:     27 Energy:     -2947.559772  Gnorm:      0.036510  CPU:    3.937
  ** Hessian has required structure
  Cycle:     28 Energy:     -2947.615423  Gnorm:      0.064616  CPU:    4.059
  ** Hessian has required structure
  Cycle:     29 Energy:     -2947.652384  Gnorm:      0.052241  CPU:    4.163
  ** Hessian has required structure
  Cycle:     30 Energy:     -2947.681326  Gnorm:      0.048386  CPU:    4.295
  ** Hessian has required structure
  Cycle:     31 Energy:     -2947.705785  Gnorm:      0.049030  CPU:    4.414
  ** Hessian has required structure
  Cycle:     32 Energy:     -2947.721537  Gnorm:      0.030781  CPU:    4.533
  ** Hessian has required structure
  Cycle:     33 Energy:     -2947.730678  Gnorm:      0.030212  CPU:    4.651
  ** Hessian has required structure
  Cycle:     34 Energy:     -2947.739260  Gnorm:      0.021927  CPU:    4.771
  ** Hessian has required structure
  Cycle:     35 Energy:     -2947.750299  Gnorm:      0.011551  CPU:    4.971
  ** Hessian has required structure
  Cycle:     36 Energy:     -2947.753255  Gnorm:      0.006293  CPU:    5.104
  ** Hessian has required structure
  Cycle:     37 Energy:     -2947.754098  Gnorm:      0.003190  CPU:    5.237
  ** Hessian has required structure
  Cycle:     38 Energy:     -2947.754331  Gnorm:      0.001679  CPU:    5.370
  ** Hessian has required structure
  Cycle:     39 Energy:     -2947.754392  Gnorm:      0.000830  CPU:    5.501
  ** Hessian has required structure
  Cycle:     40 Energy:     -2947.754412  Gnorm:      0.000385  CPU:    5.647
  ** Hessian has required structure
  Cycle:     41 Energy:     -2947.754415  Gnorm:      0.000265  CPU:    5.752
  ** Hessian has required structure
  Cycle:     42 Energy:     -2947.754416  Gnorm:      0.000188  CPU:    5.858
  ** Hessian has required structure
  Cycle:     43 Energy:     -2947.754416  Gnorm:      0.000169  CPU:    5.963
  ** Hessian has required structure
  Cycle:     44 Energy:     -2947.754416  Gnorm:      0.000160  CPU:    6.069
  ** Hessian has required structure
  Cycle:     45 Energy:     -2947.754416  Gnorm:      0.000160  CPU:    6.256
  ** Hessian has required structure
  Cycle:     46 Energy:     -2947.754416  Gnorm:      0.000159  CPU:    6.361
  ** Hessian has required structure
  Cycle:     47 Energy:     -2947.754416  Gnorm:      0.000159  CPU:    6.467
  ** Hessian has required structure
  Cycle:     48 Energy:     -2947.754416  Gnorm:      0.000159  CPU:    6.573
  ** Hessian has required structure
  Cycle:     49 Energy:     -2947.754416  Gnorm:      0.000158  CPU:    6.679
  ** Hessian has required structure
  Cycle:     50 Energy:     -2947.754416  Gnorm:      0.000158  CPU:    6.785
  ** Hessian has required structure
  Cycle:     51 Energy:     -2947.754416  Gnorm:      0.000157  CPU:    6.891
  ** Hessian has required structure
  Cycle:     52 Energy:     -2947.754416  Gnorm:      0.000157  CPU:    6.995
  ** Hessian has required structure
  Cycle:     53 Energy:     -2947.754416  Gnorm:      0.000157  CPU:    7.101
  ** Hessian has required structure
  Cycle:     54 Energy:     -2947.754416  Gnorm:      0.000156  CPU:    7.206
  ** Hessian has required structure
  Cycle:     55 Energy:     -2947.754416  Gnorm:      0.000156  CPU:    7.393
  ** Hessian has required structure
  Cycle:     56 Energy:     -2947.754416  Gnorm:      0.000156  CPU:    7.498
  ** Hessian has required structure
  Cycle:     57 Energy:     -2947.754416  Gnorm:      0.000156  CPU:    7.603
  ** Hessian has required structure
  Cycle:     58 Energy:     -2947.754416  Gnorm:      0.000156  CPU:    7.709
  ** Hessian has required structure
  Cycle:     59 Energy:     -2947.754416  Gnorm:      0.000156  CPU:    7.815
  ** Hessian has required structure
  Cycle:     60 Energy:     -2947.754416  Gnorm:      0.000156  CPU:    7.920
  ** Hessian has required structure


  **** Too many failed attempts to optimise ****

  Final energy =   -2947.75441625 eV      
  Final Gnorm  =       0.00015590

  Components of energy : 

--------------------------------------------------------------------------------
  Interatomic potentials     =         779.10442471 eV    
  Three-body potentials      =           0.00000000 eV    
  Monopole - monopole (real) =       -1553.89175524 eV    
  Monopole - monopole (recip)=       -2172.96708572 eV    
  Monopole - monopole (total)=       -3726.85884096 eV    
--------------------------------------------------------------------------------
  Total lattice energy       =       -2947.75441625 eV    
--------------------------------------------------------------------------------
  Total lattice energy       =         -284413.2406 kJ/(mole unit cells)
--------------------------------------------------------------------------------

  Final fractional coordinates of atoms :

--------------------------------------------------------------------------------
   No.  Atomic        x           y          z          Radius
        Label       (Frac)      (Frac)     (Frac)       (Angs) 
--------------------------------------------------------------------------------
     1  Ge    c     0.052090    0.000000    0.372270    0.000000
     2  Ge    c     0.548467    0.016497    0.592418    0.000000
     3  Ge    c     0.546314    0.008150    0.107259    0.000000
     4  Ge    c     0.941923    0.065434    0.119226    0.000000
     5  Ge    c     0.443023    0.068610    0.849448    0.000000
     6  Ge    c     0.170684    0.287035    0.253311    0.000000
     7  Ge    c     0.329362    0.754459    0.247246    0.000000
     8  Ge    c     0.854416    0.377292    0.685265    0.000000
     9  Ge    c     0.647069    0.703026    0.669823    0.000000
    10  Ge    c     0.829499    0.779831    0.684057    0.000000
    11  Ge    c     0.671795    0.298679    0.677214    0.000000
    12  Ge    c     0.144238    0.686341    0.260116    0.000000
    13  Ge    c     0.669089    0.292921    0.994171    0.000000
    14  Ge    c     0.820574    0.782209    0.002447    0.000000
    15  Ge    c     0.341045    0.372308    0.921484    0.000000
    16  Ge    c     0.139691    0.698783    0.941991    0.000000
    17  Ge    c     0.321480    0.776904    0.932573    0.000000
    18  Ge    c     0.160538    0.293158    0.937489    0.000000
    19  Ge    c     0.639202    0.697679    0.988557    0.000000
    20  Ge    c     0.850726    0.381118    0.001671    0.000000
    21  Si    c     0.440930    0.051148    0.350319    0.000000
    22  Si    c     0.948654    0.065169    0.616451    0.000000
    23  Si    c     0.042646    0.003925    0.867388    0.000000
    24  Si    c     0.350321    0.359731    0.231790    0.000000
    25  O1    c     0.132468    0.125767    0.346664    0.000000
    26  O3    c     0.377138    0.901301    0.344290    0.000000
    27  O3    c     0.918347    0.255629    0.598511    0.000000
    28  O1    c     0.584003    0.816261    0.574834    0.000000
    29  O3    c     0.880581    0.927985    0.589768    0.000000
    30  O1    c     0.622853    0.162014    0.575917    0.000000
    31  O1    c     0.079501    0.793876    0.351155    0.000000
    32  O2    c     0.410126    0.235674    0.304203    0.000000
    33  O3    c     0.022180    0.030460    0.531363    0.000000
    34  O3    c     0.469114    0.063349    0.499942    0.000000
    35  O1    c     0.976161    0.054218    0.275970    0.000000
    36  O3    c     0.515721    0.005850    0.268606    0.000000
    37  O2    c     0.971802    0.038384    0.770554    0.000000
    38  O1    c     0.518460    0.030305    0.753275    0.000000
    39  O1    c     0.624901    0.142359    0.091653    0.000000
    40  O1    c     0.863989    0.930773    0.100434    0.000000
    41  O1    c     0.403924    0.267245    0.826870    0.000000
    42  O3    c     0.076873    0.817513    0.848159    0.000000
    43  O1    c     0.370488    0.916784    0.833652    0.000000
    44  O3    c     0.107856    0.149866    0.845219    0.000000
    45  O1    c     0.570384    0.802239    0.071156    0.000000
    46  O1    c     0.916748    0.273010    0.091935    0.000000
    47  O1    c     0.472958    0.072333    0.010461    0.000000
    48  O3    c     0.014680    0.006988    0.016939    0.000000
    49  O1    c     0.152380    0.481732    0.319896    0.000000
    50  O3    c     0.346753    0.544693    0.298454    0.000000
    51  O1    c     0.845338    0.579022    0.621772    0.000000
    52  O1    c     0.660177    0.502189    0.613751    0.000000
    53  O3    c     0.268068    0.264212    0.237379    0.000000
    54  O1    c     0.233285    0.785469    0.259808    0.000000
    55  O1    c     0.768235    0.265703    0.683309    0.000000
    56  O1    c     0.733301    0.815372    0.673954    0.000000
    57  O1    c     0.132194    0.277431    0.098201    0.000000
    58  O1    c     0.358972    0.787132    0.089343    0.000000
    59  O1    c     0.883905    0.402241    0.844008    0.000000
    60  O1    c     0.612794    0.682967    0.826830    0.000000
    61  O1    c     0.855881    0.789925    0.845787    0.000000
    62  O1    c     0.637048    0.278735    0.834584    0.000000
    63  O1    c     0.110915    0.675947    0.101788    0.000000
    64  O3    c     0.373749    0.392534    0.082413    0.000000
    65  O1    c     0.651364    0.495393    0.049766    0.000000
    66  O1    c     0.836230    0.579112    0.064157    0.000000
    67  O1    c     0.329210    0.575829    0.866702    0.000000
    68  O1    c     0.147294    0.498972    0.879340    0.000000
    69  O1    c     0.765908    0.264839    0.996665    0.000000
    70  O1    c     0.724102    0.813695    0.997240    0.000000
    71  O1    c     0.256160    0.255865    0.924842    0.000000
    72  O1    c     0.225483    0.811602    0.943596    0.000000
    73  O1    s     0.129414    0.129101    0.341142    0.000000
    74  O3    s     0.379584    0.904202    0.337036    0.000000
    75  O3    s     0.916425    0.246529    0.606759    0.000000
    76  O1    s     0.585937    0.822968    0.583044    0.000000
    77  O3    s     0.883081    0.929462    0.599609    0.000000
    78  O1    s     0.620999    0.161494    0.584841    0.000000
    79  O1    s     0.082306    0.801458    0.345903    0.000000
    80  O2    s     0.407058    0.229532    0.301402    0.000000
    81  O3    s     0.017025    0.031565    0.527497    0.000000
    82  O3    s     0.472826    0.058397    0.493104    0.000000
    83  O1    s     0.979399    0.050871    0.271317    0.000000
    84  O3    s     0.510983    0.010351    0.264092    0.000000
    85  O2    s     0.976989    0.037387    0.765991    0.000000
    86  O1    s     0.514449    0.032411    0.749661    0.000000
    87  O1    s     0.622386    0.143917    0.085258    0.000000
    88  O1    s     0.866552    0.929453    0.094232    0.000000
    89  O1    s     0.401930    0.261052    0.835694    0.000000
    90  O3    s     0.078435    0.826103    0.857197    0.000000
    91  O1    s     0.371941    0.916908    0.842543    0.000000
    92  O3    s     0.105896    0.147540    0.854783    0.000000
    93  O1    s     0.573913    0.809382    0.067444    0.000000
    94  O1    s     0.913588    0.265613    0.087072    0.000000
    95  O1    s     0.476508    0.067002    0.006333    0.000000
    96  O3    s     0.011620    0.011308    0.010841    0.000000
    97  O1    s     0.153132    0.482474    0.310489    0.000000
    98  O3    s     0.345822    0.542773    0.288433    0.000000
    99  O1    s     0.844912    0.577952    0.630972    0.000000
   100  O1    s     0.659999    0.503182    0.622693    0.000000
   101  O3    s     0.268227    0.275232    0.238086    0.000000
   102  O1    s     0.234043    0.775787    0.258873    0.000000
   103  O1    s     0.767291    0.276270    0.683016    0.000000
   104  O1    s     0.734252    0.804712    0.674425    0.000000
   105  O1    s     0.137073    0.279266    0.097783    0.000000
   106  O1    s     0.354100    0.783998    0.090026    0.000000
   107  O1    s     0.879228    0.398807    0.843654    0.000000
   108  O1    s     0.617279    0.685532    0.827225    0.000000
   109  O1    s     0.851269    0.788584    0.845331    0.000000
   110  O1    s     0.641834    0.281164    0.834765    0.000000
   111  O1    s     0.115528    0.678416    0.101593    0.000000
   112  O3    s     0.368996    0.387841    0.085025    0.000000
   113  O1    s     0.651729    0.495979    0.041138    0.000000
   114  O1    s     0.836212    0.578614    0.055030    0.000000
   115  O1    s     0.329569    0.574324    0.875755    0.000000
   116  O1    s     0.147658    0.499555    0.888311    0.000000
   117  O1    s     0.764871    0.275417    0.996830    0.000000
   118  O1    s     0.725169    0.802934    0.996982    0.000000
   119  O1    s     0.255149    0.267105    0.925574    0.000000
   120  O1    s     0.226432    0.800796    0.942674    0.000000
--------------------------------------------------------------------------------

  Final Cartesian lattice vectors (Angstroms) :

       17.496904   -0.220184   -0.043255
       -0.097199    7.824270    0.049913
       -0.027761    0.070070   10.215737


  Final cell parameters and derivatives :

--------------------------------------------------------------------------------
       a           17.498342 Angstrom     dE/de1(xx)     0.011711 eV/strain
       b            7.825033 Angstrom     dE/de2(yy)     0.017529 eV/strain
       c           10.216015 Angstrom     dE/de3(zz)     0.006244 eV/strain
       alpha       89.239640 Degrees      dE/de4(yz)    -0.000161 eV/strain
       beta        90.302260 Degrees      dE/de5(xz)     0.000021 eV/strain
       gamma       91.433587 Degrees      dE/de6(xy)     0.002672 eV/strain
--------------------------------------------------------------------------------

  Primitive cell volume =          1398.250847 Angs**3

  Density of cell =      2.770153 g/cm**3

  Non-primitive cell volume =          1398.250847 Angs**3


  Final internal derivatives :

--------------------------------------------------------------------------------
   No.  Atomic          a             b             c           Radius
        Label          (eV)          (eV)          (eV)        (eV/Angs)
--------------------------------------------------------------------------------
      1 Ge    c       0.000000      0.000000      0.000000      0.000000
      2 Ge    c      -0.000946     -0.000160      0.000174      0.000000
      3 Ge    c       0.000846     -0.000595      0.000528      0.000000
      4 Ge    c       0.000367     -0.000082     -0.001396      0.000000
      5 Ge    c       0.003792      0.000795     -0.000086      0.000000
      6 Ge    c       0.004307     -0.002529     -0.002732      0.000000
      7 Ge    c       0.001258      0.001329     -0.000656      0.000000
      8 Ge    c       0.003572     -0.002161      0.000408      0.000000
      9 Ge    c      -0.000560      0.001226      0.000399      0.000000
     10 Ge    c       0.000017      0.000718      0.000658      0.000000
     11 Ge    c      -0.001753     -0.000315     -0.000213      0.000000
     12 Ge    c       0.003726      0.001228     -0.000837      0.000000
     13 Ge    c      -0.001180     -0.000367      0.000206      0.000000
     14 Ge    c      -0.000246      0.000775      0.000297      0.000000
     15 Ge    c       0.004063     -0.003716      0.001470      0.000000
     16 Ge    c      -0.005512      0.002107      0.001650      0.000000
     17 Ge    c       0.001881      0.001956      0.000247      0.000000
     18 Ge    c      -0.002650     -0.002265      0.001468      0.000000
     19 Ge    c      -0.001651      0.001086     -0.000460      0.000000
     20 Ge    c       0.002162     -0.001629      0.000218      0.000000
     21 Si    c       0.000347      0.002837      0.002671      0.000000
     22 Si    c       0.000281      0.000179      0.000075      0.000000
     23 Si    c      -0.004905     -0.000597      0.001485      0.000000
     24 Si    c      -0.000457     -0.002092     -0.000384      0.000000
     25 O1    c       0.015857      0.007063      0.001392      0.000000
     26 O3    c      -0.008800     -0.006942      0.001232      0.000000
     27 O3    c       0.000187      0.001359      0.000300      0.000000
     28 O1    c       0.000724      0.001736     -0.000444      0.000000
     29 O3    c       0.003075      0.001062     -0.000621      0.000000
     30 O1    c       0.004453      0.000758      0.000108      0.000000
     31 O1    c       0.002970     -0.007081      0.001005      0.000000
     32 O2    c       0.000397      0.000671     -0.000520      0.000000
     33 O3    c       0.002653     -0.001225      0.003783      0.000000
     34 O3    c       0.005472     -0.001433     -0.000041      0.000000
     35 O1    c      -0.011878     -0.000231     -0.005542      0.000000
     36 O3    c       0.003165     -0.000804     -0.004004      0.000000
     37 O2    c      -0.004299      0.000137     -0.003289      0.000000
     38 O1    c      -0.009095      0.001156      0.000589      0.000000
     39 O1    c       0.006611      0.002152     -0.002063      0.000000
     40 O1    c      -0.000731      0.000449     -0.000867      0.000000
     41 O1    c      -0.002701      0.002138     -0.001308      0.000000
     42 O3    c       0.005897     -0.003421     -0.002731      0.000000
     43 O1    c      -0.009724     -0.005392     -0.000035      0.000000
     44 O3    c       0.010254      0.005894     -0.001186      0.000000
     45 O1    c       0.000682     -0.000372     -0.002128      0.000000
     46 O1    c      -0.001402      0.000193     -0.000689      0.000000
     47 O1    c       0.000752     -0.000384      0.003335      0.000000
     48 O3    c      -0.001247      0.001588      0.003710      0.000000
     49 O1    c      -0.001957      0.003207      0.003062      0.000000
     50 O3    c       0.000598     -0.002260      0.002462      0.000000
     51 O1    c       0.003241      0.001859     -0.002190      0.000000
     52 O1    c       0.000269     -0.001499     -0.000768      0.000000
     53 O3    c      -0.009518      0.000424     -0.000476      0.000000
     54 O1    c      -0.008881      0.001412      0.000230      0.000000
     55 O1    c      -0.003794     -0.000965      0.000521      0.000000
     56 O1    c      -0.001824      0.000695      0.000240      0.000000
     57 O1    c       0.002999      0.000267      0.001696      0.000000
     58 O1    c       0.001076      0.000311     -0.000584      0.000000
     59 O1    c       0.003080      0.002278     -0.000325      0.000000
     60 O1    c      -0.000002     -0.000382     -0.000327      0.000000
     61 O1    c       0.003567     -0.001218     -0.000083      0.000000
     62 O1    c      -0.000175      0.000577     -0.000044      0.000000
     63 O1    c      -0.002078      0.000711     -0.001977      0.000000
     64 O3    c      -0.000277      0.000391     -0.001781      0.000000
     65 O1    c       0.000294     -0.001511      0.000582      0.000000
     66 O1    c      -0.000274      0.001677      0.001896      0.000000
     67 O1    c       0.003715      0.004353     -0.004060      0.000000
     68 O1    c      -0.003694     -0.000249     -0.003030      0.000000
     69 O1    c       0.000020     -0.001368     -0.000893      0.000000
     70 O1    c       0.000750      0.000956     -0.000716      0.000000
     71 O1    c      -0.001473     -0.004107      0.000057      0.000000
     72 O1    c       0.012181      0.004360      0.000421      0.000000
     73 O1    s      -0.003497     -0.001617     -0.000329      0.000000
     74 O3    s       0.001530      0.002569      0.000557      0.000000
     75 O3    s       0.001091     -0.000313     -0.001701      0.000000
     76 O1    s      -0.003797     -0.001577      0.000210      0.000000
     77 O3    s      -0.003502     -0.000312     -0.001362      0.000000
     78 O1    s      -0.002892      0.000084     -0.000285      0.000000
     79 O1    s       0.001747      0.000723      0.001498      0.000000
     80 O2    s       0.000952      0.001458      0.000123      0.000000
     81 O3    s      -0.003189      0.000611      0.001962      0.000000
     82 O3    s       0.002595      0.000391      0.000989      0.000000
     83 O1    s      -0.002385      0.000138      0.001634      0.000000
     84 O3    s       0.003435      0.001130      0.003162      0.000000
     85 O2    s      -0.005868     -0.000390      0.002695      0.000000
     86 O1    s       0.006533     -0.000596     -0.000848      0.000000
     87 O1    s      -0.002371     -0.000850      0.000639      0.000000
     88 O1    s       0.000503     -0.000291      0.000055      0.000000
     89 O1    s       0.004319     -0.000308     -0.000835      0.000000
     90 O3    s      -0.003963     -0.001506     -0.000929      0.000000
     91 O1    s       0.003900      0.001850     -0.000897      0.000000
     92 O3    s      -0.000873     -0.000546     -0.001395      0.000000
     93 O1    s      -0.001354     -0.000215      0.000635      0.000000
     94 O1    s       0.001325     -0.000074      0.000071      0.000000
     95 O1    s       0.003557      0.000424     -0.001919      0.000000
     96 O3    s      -0.004870     -0.001817     -0.000285      0.000000
     97 O1    s       0.001345     -0.002031     -0.001194      0.000000
     98 O3    s      -0.000204      0.000994     -0.000388      0.000000
     99 O1    s      -0.003463     -0.000800     -0.000851      0.000000
    100 O1    s      -0.000655      0.000564     -0.000037      0.000000
    101 O3    s       0.004803     -0.000016     -0.000163      0.000000
    102 O1    s       0.003889      0.000066      0.000451      0.000000
    103 O1    s       0.002062     -0.000155     -0.000925      0.000000
    104 O1    s       0.002011      0.000012     -0.000380      0.000000
    105 O1    s      -0.003794     -0.000412     -0.000364      0.000000
    106 O1    s       0.001292      0.000231     -0.000519      0.000000
    107 O1    s      -0.000438     -0.001210     -0.000073      0.000000
    108 O1    s      -0.001677      0.000660      0.000051      0.000000
    109 O1    s      -0.002253      0.000953     -0.000238      0.000000
    110 O1    s      -0.000495     -0.000662      0.000121      0.000000
    111 O1    s      -0.000889     -0.001060      0.001274      0.000000
    112 O3    s       0.002287      0.000152      0.001726      0.000000
    113 O1    s      -0.000977      0.000367      0.000611      0.000000
    114 O1    s       0.000460     -0.000882      0.001066      0.000000
    115 O1    s      -0.004655     -0.001450      0.001404      0.000000
    116 O1    s       0.004903     -0.000343      0.001038      0.000000
    117 O1    s      -0.001742     -0.000080      0.001046      0.000000
    118 O1    s      -0.001393     -0.000021      0.001091      0.000000
    119 O1    s      -0.000471      0.003476     -0.000483      0.000000
    120 O1    s      -0.006147     -0.003739     -0.000872      0.000000
--------------------------------------------------------------------------------
  Maximum abs         0.015857      0.007081      0.005542      0.000000
--------------------------------------------------------------------------------


  Born effective charge tensors : 

-------------------------------------------------------------------------------
  Atom             x           y             z
-------------------------------------------------------------------------------
    1 Ge    x       4.1486     -0.3250     -0.4443
            y       0.1262      3.9002      0.0477
            z      -0.2277      0.0673      4.4272
-------------------------------------------------------------------------------
    2 Ge    x       4.1282     -0.2220     -0.0833
            y       0.1174      3.8872      0.0428
            z       0.7674     -0.1436      4.2180
-------------------------------------------------------------------------------
    3 Ge    x       4.2894     -0.2241     -0.4019
            y       0.1651      3.9276      0.1111
            z      -0.2954     -0.0090      3.8414
-------------------------------------------------------------------------------
    4 Ge    x       4.1452     -0.1923      0.3814
            y       0.1838      3.9348     -0.0592
            z       0.3554     -0.0022      4.0384
-------------------------------------------------------------------------------
    5 Ge    x       4.2915     -0.1760     -0.0215
            y       0.0765      3.9168      0.0165
            z      -0.7134      0.2013      3.8026
-------------------------------------------------------------------------------
    6 Ge    x       3.8789      0.2926     -0.2904
            y       0.2321      4.1979     -0.0433
            z       0.0093     -0.2037      3.6465
-------------------------------------------------------------------------------
    7 Ge    x       3.9431      0.2349      0.1885
            y       0.2409      4.1966      0.1049
            z      -0.0806      0.1831      3.5021
-------------------------------------------------------------------------------
    8 Ge    x       3.8727     -0.0513     -0.1516
            y      -0.4262      4.2792      0.0861
            z       0.0424      0.1760      3.4920
-------------------------------------------------------------------------------
    9 Ge    x       3.9968     -0.0894      0.2327
            y      -0.4411      4.2196     -0.1198
            z       0.0804     -0.2013      3.6093
-------------------------------------------------------------------------------
   10 Ge    x       4.0423      0.2391     -0.2216
            y       0.2476      4.1543      0.0137
            z       0.0683     -0.0645      3.5025
-------------------------------------------------------------------------------
   11 Ge    x       4.0821      0.2550      0.3317
            y       0.2742      4.1509      0.0655
            z       0.0502      0.1405      3.6239
-------------------------------------------------------------------------------
   12 Ge    x       3.9994     -0.0894     -0.2117
            y      -0.4506      4.1958      0.1053
            z      -0.1068      0.2036      3.6579
-------------------------------------------------------------------------------
   13 Ge    x       4.0817      0.2472     -0.3595
            y       0.2150      4.2004     -0.0885
            z      -0.0417     -0.1893      3.5539
-------------------------------------------------------------------------------
   14 Ge    x       4.0784      0.2187      0.2952
            y       0.2204      4.1895      0.0937
            z      -0.0091      0.2077      3.5449
-------------------------------------------------------------------------------
   15 Ge    x       3.9839     -0.0616     -0.3570
            y      -0.4210      4.1938      0.1013
            z      -0.1286      0.2043      3.4596
-------------------------------------------------------------------------------
   16 Ge    x       3.9231     -0.0465      0.2986
            y      -0.3912      4.2481     -0.0713
            z       0.0550     -0.1515      3.4194
-------------------------------------------------------------------------------
   17 Ge    x       4.0770      0.2513     -0.3331
            y       0.2988      4.1687     -0.0667
            z      -0.0347     -0.1629      3.5182
-------------------------------------------------------------------------------
   18 Ge    x       4.0618      0.2146      0.3052
            y       0.2710      4.1614      0.0413
            z       0.0203      0.1121      3.4236
-------------------------------------------------------------------------------
   19 Ge    x       4.0797     -0.0771     -0.2886
            y      -0.4489      4.1948      0.0785
            z      -0.1625      0.2016      3.5347
-------------------------------------------------------------------------------
   20 Ge    x       4.0333     -0.0583      0.2785
            y      -0.4575      4.1888     -0.0525
            z       0.1034     -0.1747      3.5053
-------------------------------------------------------------------------------
   21 Si    x       3.7723     -0.0235      0.4075
            y       0.2362      3.4893     -0.0828
            z       0.1935      0.1678      4.0898
-------------------------------------------------------------------------------
   22 Si    x       3.7589     -0.2325      0.0352
            y       0.0835      3.6607      0.0373
            z      -0.8230      0.1577      3.6060
-------------------------------------------------------------------------------
   23 Si    x       3.6436     -0.0865     -0.1942
            y       0.1194      3.6816      0.0275
            z       0.4610     -0.1014      3.2910
-------------------------------------------------------------------------------
   24 Si    x       3.4895      0.0369      0.0794
            y      -0.2619      3.8708      0.0500
            z      -0.0453     -0.1652      3.2163
-------------------------------------------------------------------------------
   25 O1    x      -2.1925     -0.8690      0.5465
            y      -0.9008     -2.3028      0.5436
            z       0.4898      0.5700     -1.7020
-------------------------------------------------------------------------------
   26 O3    x      -1.9873     -0.9074     -0.4098
            y      -0.9208     -2.3584     -0.4029
            z      -0.3586     -0.4454     -1.5009
-------------------------------------------------------------------------------
   27 O3    x      -1.7785      0.8464      0.2258
            y       0.7946     -2.5186     -0.2240
            z       0.3078     -0.2408     -1.4369
-------------------------------------------------------------------------------
   28 O1    x      -1.9857      0.8910     -0.3797
            y       0.8420     -2.5072      0.3197
            z      -0.4682      0.3742     -1.6240
-------------------------------------------------------------------------------
   29 O3    x      -2.0968     -0.8742      0.1653
            y      -0.9106     -2.1500      0.2152
            z       0.2464      0.2150     -1.4748
-------------------------------------------------------------------------------
   30 O1    x      -2.2184     -0.8939     -0.3673
            y      -0.9552     -2.2503     -0.3980
            z      -0.4503     -0.4073     -1.6563
-------------------------------------------------------------------------------
   31 O1    x      -1.9196      0.8344      0.5293
            y       0.7867     -2.5715     -0.5348
            z       0.4992     -0.5444     -1.6945
-------------------------------------------------------------------------------
   32 O2    x      -1.5852      0.6366     -0.3634
            y       0.5699     -2.0213      0.4048
            z      -0.2947      0.3903     -1.3628
-------------------------------------------------------------------------------
   33 O3    x      -2.0156      0.2727      0.8974
            y       0.1205     -1.2124     -0.1793
            z       1.1547     -0.3286     -2.8270
-------------------------------------------------------------------------------
   34 O3    x      -1.9142      0.1607     -0.8863
            y       0.0456     -1.2031      0.0456
            z      -1.1004      0.1044     -2.9831
-------------------------------------------------------------------------------
   35 O1    x      -2.0613      0.2450     -0.8151
            y       0.1287     -1.3045      0.1849
            z      -0.9054      0.2303     -2.8752
-------------------------------------------------------------------------------
   36 O3    x      -2.0897      0.2486      0.7805
            y       0.1446     -1.2614     -0.1374
            z       0.7539     -0.1611     -2.4526
-------------------------------------------------------------------------------
   37 O2    x      -1.6577      0.1396     -0.5375
            y       0.0412     -1.1857      0.1050
            z      -0.5177      0.1554     -2.0346
-------------------------------------------------------------------------------
   38 O1    x      -2.1566      0.2119      0.8534
            y       0.0991     -1.3210     -0.1584
            z       0.8703     -0.2062     -2.7075
-------------------------------------------------------------------------------
   39 O1    x      -2.2916     -0.9208      0.5526
            y      -0.9105     -2.2669      0.4972
            z       0.4716      0.5105     -1.5945
-------------------------------------------------------------------------------
   40 O1    x      -2.2397     -0.8803     -0.5083
            y      -0.9043     -2.2686     -0.5179
            z      -0.4319     -0.5081     -1.6109
-------------------------------------------------------------------------------
   41 O1    x      -2.0536      0.8679      0.3887
            y       0.8397     -2.4422     -0.3005
            z       0.4324     -0.3407     -1.5556
-------------------------------------------------------------------------------
   42 O3    x      -1.8712      0.8419     -0.2929
            y       0.8104     -2.4676      0.2459
            z      -0.3287      0.2512     -1.3461
-------------------------------------------------------------------------------
   43 O1    x      -2.1816     -0.8882      0.3523
            y      -0.9430     -2.3033      0.3908
            z       0.4018      0.3877     -1.5535
-------------------------------------------------------------------------------
   44 O3    x      -2.1143     -0.9040     -0.2714
            y      -0.9178     -2.1991     -0.2614
            z      -0.3331     -0.2779     -1.3672
-------------------------------------------------------------------------------
   45 O1    x      -2.0719      0.8528      0.5802
            y       0.7528     -2.5242     -0.5690
            z       0.5039     -0.5491     -1.5674
-------------------------------------------------------------------------------
   46 O1    x      -1.9954      0.8262     -0.5159
            y       0.7537     -2.5481      0.5152
            z      -0.4550      0.4987     -1.5586
-------------------------------------------------------------------------------
   47 O1    x      -2.1077      0.2347     -0.7143
            y       0.1427     -1.3794      0.1587
            z      -0.5085      0.1322     -2.3533
-------------------------------------------------------------------------------
   48 O3    x      -1.8986      0.1814      0.6771
            y       0.1028     -1.2956     -0.1651
            z       0.4633     -0.1403     -2.3065
-------------------------------------------------------------------------------
   49 O1    x      -1.3639      0.2029      0.1025
            y       0.3018     -3.1360     -0.0407
            z       0.0543     -0.0352     -1.4190
-------------------------------------------------------------------------------
   50 O3    x      -1.2569      0.1232     -0.0643
            y       0.2366     -3.0921     -0.2082
            z      -0.0128     -0.1949     -1.3152
-------------------------------------------------------------------------------
   51 O1    x      -1.3517      0.1680      0.0821
            y       0.2855     -3.2304      0.0065
            z       0.0263      0.0199     -1.3936
-------------------------------------------------------------------------------
   52 O1    x      -1.3612      0.1836     -0.0738
            y       0.2812     -3.1732      0.0190
            z      -0.0240     -0.0110     -1.3919
-------------------------------------------------------------------------------
   53 O3    x      -2.9181     -0.3186      0.0953
            y      -0.2392     -1.4717      0.0237
            z       0.0618      0.0645     -1.1558
-------------------------------------------------------------------------------
   54 O1    x      -3.1329     -0.2388      0.0709
            y      -0.1672     -1.5623     -0.0257
            z       0.0850     -0.0532     -1.2247
-------------------------------------------------------------------------------
   55 O1    x      -3.1088     -0.2657     -0.0448
            y      -0.1397     -1.5717     -0.0171
            z      -0.0264     -0.0490     -1.2124
-------------------------------------------------------------------------------
   56 O1    x      -3.1165     -0.2753     -0.0710
            y      -0.2002     -1.5856      0.0064
            z      -0.1035      0.0330     -1.2196
-------------------------------------------------------------------------------
   57 O1    x      -1.5315     -0.1109     -0.1774
            y      -0.1284     -1.4177     -0.0308
            z      -0.1319     -0.0006     -2.7333
-------------------------------------------------------------------------------
   58 O1    x      -1.4932     -0.1234     -0.0689
            y      -0.1365     -1.4615      0.0775
            z      -0.0317      0.0801     -2.7076
-------------------------------------------------------------------------------
   59 O1    x      -1.4582      0.0117      0.0149
            y       0.0870     -1.4490     -0.0442
            z       0.0077     -0.0461     -2.7244
-------------------------------------------------------------------------------
   60 O1    x      -1.4702      0.0175      0.0985
            y       0.0842     -1.4311      0.0070
            z       0.0903      0.0196     -2.7790
-------------------------------------------------------------------------------
   61 O1    x      -1.4958     -0.1080      0.0801
            y      -0.1197     -1.4273      0.0170
            z       0.0635     -0.0158     -2.7353
-------------------------------------------------------------------------------
   62 O1    x      -1.5185     -0.1103      0.0518
            y      -0.1200     -1.4239     -0.0168
            z       0.0401      0.0074     -2.7389
-------------------------------------------------------------------------------
   63 O1    x      -1.4552      0.0251     -0.1055
            y       0.0941     -1.4399      0.0485
            z      -0.0813      0.0493     -2.7661
-------------------------------------------------------------------------------
   64 O3    x      -1.3491      0.0126      0.0486
            y       0.0833     -1.3818      0.0936
            z       0.0220      0.0830     -2.6195
-------------------------------------------------------------------------------
   65 O1    x      -1.4146      0.2218      0.0901
            y       0.3258     -3.1724      0.0341
            z       0.0460      0.0124     -1.3468
-------------------------------------------------------------------------------
   66 O1    x      -1.3986      0.2165     -0.0703
            y       0.3302     -3.1455     -0.0338
            z      -0.0194     -0.0107     -1.3695
-------------------------------------------------------------------------------
   67 O1    x      -1.3624      0.1515      0.0778
            y       0.2298     -3.1756     -0.0412
            z       0.0086      0.0120     -1.3843
-------------------------------------------------------------------------------
   68 O1    x      -1.3826      0.1720     -0.1024
            y       0.2427     -3.2524     -0.0517
            z      -0.0424     -0.0479     -1.3370
-------------------------------------------------------------------------------
   69 O1    x      -3.0947     -0.3103     -0.0378
            y      -0.2150     -1.5879      0.0017
            z      -0.0395      0.0343     -1.2043
-------------------------------------------------------------------------------
   70 O1    x      -3.0997     -0.2904     -0.0643
            y      -0.2063     -1.5910     -0.0294
            z      -0.0187     -0.0606     -1.2041
-------------------------------------------------------------------------------
   71 O1    x      -3.0862     -0.2840      0.0674
            y      -0.2013     -1.5860     -0.0187
            z       0.0419     -0.0549     -1.2095
-------------------------------------------------------------------------------
   72 O1    x      -3.0962     -0.2598      0.0380
            y      -0.1306     -1.5800      0.0060
            z       0.0035      0.0406     -1.1869
-------------------------------------------------------------------------------




  Elastic Constant Matrix: (Units=GPa)

-------------------------------------------------------------------------------
  Indices      1         2         3         4         5         6    
-------------------------------------------------------------------------------
       1     29.8004   13.1568   10.4646    0.2056    0.6650   -7.6366
       2     13.1568   34.5661    8.1034    0.0444    0.5463   -7.5050
       3     10.4646    8.1034   16.8631    0.2300    0.8926   -2.1194
       4      0.2056    0.0444    0.2300    8.5581   -2.1269   -0.1701
       5      0.6650    0.5463    0.8926   -2.1269   16.0750    1.2551
       6     -7.6366   -7.5050   -2.1194   -0.1701    1.2551   20.1041
-------------------------------------------------------------------------------


  Elastic Compliance Matrix: (Units=1/GPa)

-------------------------------------------------------------------------------
  Indices      1         2         3         4         5         6    
-------------------------------------------------------------------------------
       1    0.050018 -0.010593 -0.024286 -0.000597 -0.001421  0.012569
       2   -0.010593  0.037293 -0.010186  0.000283 -0.000920  0.008884
       3   -0.024286 -0.010186  0.078885 -0.002315 -0.002981 -0.004545
       4   -0.000597  0.000283 -0.002315  0.120935  0.016172 -0.000351
       5   -0.001421 -0.000920 -0.002981  0.016172  0.065003 -0.005119
       6    0.012569  0.008884 -0.004545 -0.000351 -0.005119  0.057669
-------------------------------------------------------------------------------

  Mechanical properties :

-------------------------------------------------------------------------------
  Convention :                    Reuss         Voigt         Hill
-------------------------------------------------------------------------------
  Bulk  Modulus (GPa)     =      13.14638      16.07549      14.61093
  Shear Modulus (GPa)     =       9.51855      12.24775      10.88315
-------------------------------------------------------------------------------
  Velocity S-wave (km/s)  =       1.85367       2.10269       1.98210
  Velocity P-wave (km/s)  =       3.05405       3.42026       3.24233
-------------------------------------------------------------------------------
  Compressibility (1/GPa) =    0.07606659
-------------------------------------------------------------------------------
  Stress axis :                     x             y             z
-------------------------------------------------------------------------------
  Youngs Moduli (GPa)     =      19.99274      26.81464      12.67664
-------------------------------------------------------------------------------
  Poissons Ratio (x)      =                     0.28404       0.30787
  Poissons Ratio (y)      =       0.21178                     0.12912
  Poissons Ratio (z)      =       0.48555       0.27313
-------------------------------------------------------------------------------


  Piezoelectric Strain Matrix: (Units=C/m**2)

-------------------------------------------------------------------------------
  Indices      1         2         3         4         5         6    
-------------------------------------------------------------------------------
       x    -0.19420   0.05063   0.00493  -0.14477  -0.53591   0.11425
       y     0.05192   0.12591   0.05543  -0.70607   0.19019  -0.10022
       z    -0.33837   0.21039   1.24838   0.34844  -0.19503   0.10130
-------------------------------------------------------------------------------


  Piezoelectric Stress Matrix: (Units=10**-11 C/N)

-------------------------------------------------------------------------------
  Indices      1         2         3         4         5         6    
-------------------------------------------------------------------------------
       x    -0.80857   0.53622   0.60028  -2.60963  -3.75473   0.73693
       y    -0.11914   0.23159   0.33528  -8.24019   0.11022  -0.49859
       z    -4.81298  -0.01079  10.38683   3.63203  -1.09954  -0.13402
-------------------------------------------------------------------------------


  Static dielectric constant tensor : 

-------------------------------------------------------------------------------
              x         y         z
-------------------------------------------------------------------------------
       x     5.31179   0.09049  -0.06317
       y     0.09049   6.38392   0.09306
       z    -0.06317   0.09306   4.02771
--------------------------------------------------------------------------------

  High frequency dielectric constant tensor : 

-------------------------------------------------------------------------------
              x         y         z
-------------------------------------------------------------------------------
       x     1.55529  -0.00264   0.00029
       y    -0.00264   1.56112   0.00104
       z     0.00029   0.00104   1.51804
-------------------------------------------------------------------------------

  Static refractive indices : 

-------------------------------------------------------------------------------
    1 =    2.00514      2 =    2.30393      3 =    2.52878
-------------------------------------------------------------------------------

  High frequency refractive indices : 

-------------------------------------------------------------------------------
    1 =    1.23207      2 =    1.24671      3 =    1.24986
-------------------------------------------------------------------------------


  Time to end of optimisation =       8.1708 seconds


  Peak dynamic memory used =       5.01 MB 


  Timing analysis for GULP :

--------------------------------------------------------------------------------
  Task / Subroutine                                          Time (Seconds)
--------------------------------------------------------------------------------
  Calculation of reciprocal space energy and derivatives          0.5107
  Calculation of real space energy and derivatives                5.3037
  Calculation of three-body energy and derivatives                0.0881
  Calculation and manipulation of Hessian matrix                  2.5934
  Calculation of matrix inversion                                 0.0164
  Global summation overhead                                       0.0001
--------------------------------------------------------------------------------
  Total CPU time                                                  8.1708
--------------------------------------------------------------------------------


  Dump file written as c01390.vasp.grs
  CIF file written as c01390.vasp.cif


  Job Finished at 15:51.31 31st October    2025                               

