********************************************************************************
*                       GENERAL UTILITY LATTICE PROGRAM                        *
*                                 Julian Gale                                  *
*                       Curtin Institute for Computation                       *
*                    School of Molecular and Life Sciences                     *
*                    Curtin University, Western Australia                      *
********************************************************************************
* Version = 6.1.2 * Last modified =   3rd November 2022                        *
********************************************************************************
*  optimise     - perform optimisation run                                     *
*  conp         - constant pressure calculation                                *
*  property     - calculate properties for final geometry                      *
********************************************************************************

  Job Started  at 15:49.56 31st October    2025                               

  Number of CPUs =     1


  Total number of configurations input =      1

********************************************************************************
*  Input for Configuration =   1 : c01380.vasp                                 *
********************************************************************************

  Formula = Ge20Si4O48                                                  

  Number of irreducible atoms/shells =     120


  Total number atoms/shells =     120

  Dimensionality = 3               :  Bulk   



  Cartesian lattice vectors (Angstroms) :

       17.182800    0.000000    0.000000
        0.000000    7.513760    0.000000
        0.000000    0.000000   10.447700

  Cell parameters (Angstroms/Degrees):

  a =      17.1828    alpha =  90.0000
  b =       7.5138    beta  =  90.0000
  c =      10.4477    gamma =  90.0000

  Initial cell volume =        1348.875752 Angs**3

  Temperature of configuration =   0.00     K 

  Pressure of configuration =         0.000 GPa 

  Fractional coordinates of asymmetric unit :

--------------------------------------------------------------------------------
   No.  Atomic       x           y          z         Charge      Occupancy
        Label      (Frac)      (Frac)     (Frac)        (e)         (Frac)  
--------------------------------------------------------------------------------
      1 Ge    c    0.052090    0.000000    0.372270     4.00000    1.000000    
      2 Ge    c    0.552090 *  0.000000 *  0.627730 *   4.00000    1.000000    
      3 Ge    c    0.556730 *  0.000000 *  0.122130 *   4.00000    1.000000    
      4 Ge    c    0.943270 *  0.000000 *  0.122130 *   4.00000    1.000000    
      5 Ge    c    0.443270 *  0.000000 *  0.877870 *   4.00000    1.000000    
      6 Ge    c    0.056730 *  0.000000 *  0.877870 *   4.00000    1.000000    
      7 Ge    c    0.160190 *  0.293910 *  0.273440 *   4.00000    1.000000    
      8 Ge    c    0.339810 *  0.706090 *  0.273440 *   4.00000    1.000000    
      9 Ge    c    0.839810 *  0.293910 *  0.726560 *   4.00000    1.000000    
     10 Ge    c    0.839810 *  0.706090 *  0.726560 *   4.00000    1.000000    
     11 Ge    c    0.660190 *  0.293910 *  0.726560 *   4.00000    1.000000    
     12 Ge    c    0.160190 *  0.706090 *  0.273440 *   4.00000    1.000000    
     13 Ge    c    0.660660 *  0.294090 *  0.017440 *   4.00000    1.000000    
     14 Ge    c    0.839340 *  0.705910 *  0.017440 *   4.00000    1.000000    
     15 Ge    c    0.339340 *  0.294090 *  0.982560 *   4.00000    1.000000    
     16 Ge    c    0.160660 *  0.705910 *  0.982560 *   4.00000    1.000000    
     17 Ge    c    0.339340 *  0.705910 *  0.982560 *   4.00000    1.000000    
     18 Ge    c    0.160660 *  0.294090 *  0.982560 *   4.00000    1.000000    
     19 Ge    c    0.660660 *  0.705910 *  0.017440 *   4.00000    1.000000    
     20 Ge    c    0.839340 *  0.294090 *  0.017440 *   4.00000    1.000000    
     21 Si    c    0.447910 *  0.000000 *  0.372270 *   4.00000    1.000000    
     22 Si    c    0.947910 *  0.000000 *  0.627730 *   4.00000    1.000000    
     23 Si    c    0.660190 *  0.706090 *  0.726560 *   4.00000    1.000000    
     24 Si    c    0.339810 *  0.293910 *  0.273440 *   4.00000    1.000000    
     25 O1    c    0.106570 *  0.174340 *  0.366200 *   1.73396    1.000000    
     26 O3    c    0.393430 *  0.825660 *  0.366200 *   1.33043    1.000000    
     27 O3    c    0.893430 *  0.174340 *  0.633800 *   1.33043    1.000000    
     28 O3    c    0.606570 *  0.825660 *  0.633800 *   1.33043    1.000000    
     29 O3    c    0.893430 *  0.825660 *  0.633800 *   1.33043    1.000000    
     30 O1    c    0.606570 *  0.174340 *  0.633800 *   1.73396    1.000000    
     31 O1    c    0.106570 *  0.825660 *  0.366200 *   1.73396    1.000000    
     32 O2    c    0.393430 *  0.174340 *  0.366200 *   0.87073    1.000000    
     33 O3    c    0.000000 *  0.000000 *  0.500000 *   1.33043    1.000000    
     34 O3    c    0.500000 *  0.000000 *  0.500000 *   1.33043    1.000000    
     35 O1    c    0.994520 *  0.000000 *  0.250840 *   1.73396    1.000000    
     36 O3    c    0.505480 *  0.000000 *  0.250840 *   1.33043    1.000000    
     37 O3    c    0.005480 *  0.000000 *  0.749160 *   1.33043    1.000000    
     38 O1    c    0.494520 *  0.000000 *  0.749160 *   1.73396    1.000000    
     39 O1    c    0.610230 *  0.175520 *  0.115390 *   1.73396    1.000000    
     40 O1    c    0.889770 *  0.824480 *  0.115390 *   1.73396    1.000000    
     41 O1    c    0.389770 *  0.175520 *  0.884610 *   1.73396    1.000000    
     42 O1    c    0.110230 *  0.824480 *  0.884610 *   1.73396    1.000000    
     43 O1    c    0.389770 *  0.824480 *  0.884610 *   1.73396    1.000000    
     44 O1    c    0.110230 *  0.175520 *  0.884610 *   1.73396    1.000000    
     45 O1    c    0.610230 *  0.824480 *  0.115390 *   1.73396    1.000000    
     46 O1    c    0.889770 *  0.175520 *  0.115390 *   1.73396    1.000000    
     47 O1    c    0.500000 *  0.000000 *  0.000000 *   1.73396    1.000000    
     48 O1    c    0.000000 *  0.000000 *  0.000000 *   1.73396    1.000000    
     49 O1    c    0.151750 *  0.500000 *  0.313330 *   1.73396    1.000000    
     50 O3    c    0.348250 *  0.500000 *  0.313330 *   1.33043    1.000000    
     51 O1    c    0.848250 *  0.500000 *  0.686670 *   1.73396    1.000000    
     52 O3    c    0.651750 *  0.500000 *  0.686670 *   1.33043    1.000000    
     53 O3    c    0.250000 *  0.234950 *  0.285720 *   1.33043    1.000000    
     54 O1    c    0.250000 *  0.765050 *  0.285720 *   1.73396    1.000000    
     55 O1    c    0.750000 *  0.234950 *  0.714280 *   1.73396    1.000000    
     56 O3    c    0.750000 *  0.765050 *  0.714280 *   1.33043    1.000000    
     57 O1    c    0.131410 *  0.268650 *  0.127790 *   1.73396    1.000000    
     58 O1    c    0.368590 *  0.731350 *  0.127790 *   1.73396    1.000000    
     59 O1    c    0.868590 *  0.268650 *  0.872210 *   1.73396    1.000000    
     60 O3    c    0.631410 *  0.731350 *  0.872210 *   1.33043    1.000000    
     61 O1    c    0.868590 *  0.731350 *  0.872210 *   1.73396    1.000000    
     62 O1    c    0.631410 *  0.268650 *  0.872210 *   1.73396    1.000000    
     63 O1    c    0.131410 *  0.731350 *  0.127790 *   1.73396    1.000000    
     64 O3    c    0.368590 *  0.268650 *  0.127790 *   1.33043    1.000000    
     65 O1    c    0.653920 *  0.500000 *  0.058200 *   1.73396    1.000000    
     66 O1    c    0.846080 *  0.500000 *  0.058200 *   1.73396    1.000000    
     67 O1    c    0.346080 *  0.500000 *  0.941800 *   1.73396    1.000000    
     68 O1    c    0.153920 *  0.500000 *  0.941800 *   1.73396    1.000000    
     69 O1    c    0.750000 *  0.231060 *  0.027050 *   1.73396    1.000000    
     70 O1    c    0.750000 *  0.768940 *  0.027050 *   1.73396    1.000000    
     71 O1    c    0.250000 *  0.231060 *  0.972950 *   1.73396    1.000000    
     72 O1    c    0.250000 *  0.768940 *  0.972950 *   1.73396    1.000000    
     73 O1    s    0.106570 *  0.174340 *  0.366200 *  -3.73396    1.000000    
     74 O3    s    0.393430 *  0.825660 *  0.366200 *  -3.33043    1.000000    
     75 O3    s    0.893430 *  0.174340 *  0.633800 *  -3.33043    1.000000    
     76 O3    s    0.606570 *  0.825660 *  0.633800 *  -3.33043    1.000000    
     77 O3    s    0.893430 *  0.825660 *  0.633800 *  -3.33043    1.000000    
     78 O1    s    0.606570 *  0.174340 *  0.633800 *  -3.73396    1.000000    
     79 O1    s    0.106570 *  0.825660 *  0.366200 *  -3.73396    1.000000    
     80 O2    s    0.393430 *  0.174340 *  0.366200 *  -2.87073    1.000000    
     81 O3    s    0.000000 *  0.000000 *  0.500000 *  -3.33043    1.000000    
     82 O3    s    0.500000 *  0.000000 *  0.500000 *  -3.33043    1.000000    
     83 O1    s    0.994520 *  0.000000 *  0.250840 *  -3.73396    1.000000    
     84 O3    s    0.505480 *  0.000000 *  0.250840 *  -3.33043    1.000000    
     85 O3    s    0.005480 *  0.000000 *  0.749160 *  -3.33043    1.000000    
     86 O1    s    0.494520 *  0.000000 *  0.749160 *  -3.73396    1.000000    
     87 O1    s    0.610230 *  0.175520 *  0.115390 *  -3.73396    1.000000    
     88 O1    s    0.889770 *  0.824480 *  0.115390 *  -3.73396    1.000000    
     89 O1    s    0.389770 *  0.175520 *  0.884610 *  -3.73396    1.000000    
     90 O1    s    0.110230 *  0.824480 *  0.884610 *  -3.73396    1.000000    
     91 O1    s    0.389770 *  0.824480 *  0.884610 *  -3.73396    1.000000    
     92 O1    s    0.110230 *  0.175520 *  0.884610 *  -3.73396    1.000000    
     93 O1    s    0.610230 *  0.824480 *  0.115390 *  -3.73396    1.000000    
     94 O1    s    0.889770 *  0.175520 *  0.115390 *  -3.73396    1.000000    
     95 O1    s    0.500000 *  0.000000 *  0.000000 *  -3.73396    1.000000    
     96 O1    s    0.000000 *  0.000000 *  0.000000 *  -3.73396    1.000000    
     97 O1    s    0.151750 *  0.500000 *  0.313330 *  -3.73396    1.000000    
     98 O3    s    0.348250 *  0.500000 *  0.313330 *  -3.33043    1.000000    
     99 O1    s    0.848250 *  0.500000 *  0.686670 *  -3.73396    1.000000    
    100 O3    s    0.651750 *  0.500000 *  0.686670 *  -3.33043    1.000000    
    101 O3    s    0.250000 *  0.234950 *  0.285720 *  -3.33043    1.000000    
    102 O1    s    0.250000 *  0.765050 *  0.285720 *  -3.73396    1.000000    
    103 O1    s    0.750000 *  0.234950 *  0.714280 *  -3.73396    1.000000    
    104 O3    s    0.750000 *  0.765050 *  0.714280 *  -3.33043    1.000000    
    105 O1    s    0.131410 *  0.268650 *  0.127790 *  -3.73396    1.000000    
    106 O1    s    0.368590 *  0.731350 *  0.127790 *  -3.73396    1.000000    
    107 O1    s    0.868590 *  0.268650 *  0.872210 *  -3.73396    1.000000    
    108 O3    s    0.631410 *  0.731350 *  0.872210 *  -3.33043    1.000000    
    109 O1    s    0.868590 *  0.731350 *  0.872210 *  -3.73396    1.000000    
    110 O1    s    0.631410 *  0.268650 *  0.872210 *  -3.73396    1.000000    
    111 O1    s    0.131410 *  0.731350 *  0.127790 *  -3.73396    1.000000    
    112 O3    s    0.368590 *  0.268650 *  0.127790 *  -3.33043    1.000000    
    113 O1    s    0.653920 *  0.500000 *  0.058200 *  -3.73396    1.000000    
    114 O1    s    0.846080 *  0.500000 *  0.058200 *  -3.73396    1.000000    
    115 O1    s    0.346080 *  0.500000 *  0.941800 *  -3.73396    1.000000    
    116 O1    s    0.153920 *  0.500000 *  0.941800 *  -3.73396    1.000000    
    117 O1    s    0.750000 *  0.231060 *  0.027050 *  -3.73396    1.000000    
    118 O1    s    0.750000 *  0.768940 *  0.027050 *  -3.73396    1.000000    
    119 O1    s    0.250000 *  0.231060 *  0.972950 *  -3.73396    1.000000    
    120 O1    s    0.250000 *  0.768940 *  0.972950 *  -3.73396    1.000000    
--------------------------------------------------------------------------------



********************************************************************************
*  General input information                                                   *
********************************************************************************

  Species output for all configurations : 

--------------------------------------------------------------------------------
  Species    Type    Atomic    Atomic    Charge       Radii (Angs)     Library
                     Number     Mass       (e)     Cova   Ionic  VDW   Symbol
--------------------------------------------------------------------------------
    Ge       Core       32      72.61   4.000000   1.170  0.000  1.750 Ge       
    Si       Core       14      28.09   4.000000   1.200  0.000  2.100 Si       
    O1       Core        8      16.00   1.733957   0.730  0.000  1.360 O1       
    O2       Core        8      16.00   0.870733   0.730  0.000  1.360 O2       
    O3       Core        8      16.00   1.330431   0.730  0.000  1.360 O3       
    O1       Shell       8       0.00  -3.733957   0.730  0.000  0.000 O1       
    O2       Shell       8       0.00  -2.870733   0.730  0.000  0.000 O2       
    O3       Shell       8       0.00  -3.330431   0.730  0.000  0.000 O3       
--------------------------------------------------------------------------------


  Lattice summation method               =    Ewald          (3-D)
                                         =    Parry          (2-D)
                                         =    Saunders et al (1-D)
  Accuracy factor for lattice sums       =   12.000


  Analytic derivatives to be used

  Time limit = Infinity

  Maximum range for interatomic potentials =    100000.000000 Angstroms

  General interatomic potentials :

--------------------------------------------------------------------------------
Atom  Types   Potential      Parameter       Value         Units   Cutoffs(Ang)
  1     2                                                            Min /  Max 
--------------------------------------------------------------------------------
Si   c O1   s Buckingham    Buckingham A     1315.2478    eV        0.000 16.000
                            Buckingham rho  0.31775900    Ang       
                            Buckingham C     10.141118    eV*Ang^6  
--------------------------------------------------------------------------------
Si   c O2   s Buckingham    Buckingham A     1315.2478    eV        0.000 16.000
                            Buckingham rho  0.31775900    Ang       
                            Buckingham C     10.141118    eV*Ang^6  
--------------------------------------------------------------------------------
Si   c O3   s Buckingham    Buckingham A     1315.2478    eV        0.000 16.000
                            Buckingham rho  0.31775900    Ang       
                            Buckingham C     10.141118    eV*Ang^6  
--------------------------------------------------------------------------------
Ge   c O1   s Buckingham    Buckingham A     1497.3996    eV        0.000 16.000
                            Buckingham rho  0.32564600    Ang       
                            Buckingham C     16.808599    eV*Ang^6  
--------------------------------------------------------------------------------
Ge   c O2   s Buckingham    Buckingham A     1497.3996    eV        0.000 16.000
                            Buckingham rho  0.32564600    Ang       
                            Buckingham C     16.808599    eV*Ang^6  
--------------------------------------------------------------------------------
Ge   c O3   s Buckingham    Buckingham A     1497.3996    eV        0.000 16.000
                            Buckingham rho  0.32564600    Ang       
                            Buckingham C     16.808599    eV*Ang^6  
--------------------------------------------------------------------------------
O1   s O1   s Buckingham    Buckingham A     22764.000    eV        0.000 16.000
                            Buckingham rho  0.14900000    Ang       
                            Buckingham C     10.937044    eV*Ang^6  
--------------------------------------------------------------------------------
O1   s O2   s Buckingham    Buckingham A     22764.000    eV        0.000 16.000
                            Buckingham rho  0.14900000    Ang       
                            Buckingham C     10.937044    eV*Ang^6  
--------------------------------------------------------------------------------
O1   s O3   s Buckingham    Buckingham A     22764.000    eV        0.000 16.000
                            Buckingham rho  0.14900000    Ang       
                            Buckingham C     10.937044    eV*Ang^6  
--------------------------------------------------------------------------------
O2   s O2   s Buckingham    Buckingham A     22764.000    eV        0.000 16.000
                            Buckingham rho  0.14900000    Ang       
                            Buckingham C     10.937044    eV*Ang^6  
--------------------------------------------------------------------------------
O2   s O3   s Buckingham    Buckingham A     22764.000    eV        0.000 16.000
                            Buckingham rho  0.14900000    Ang       
                            Buckingham C     10.937044    eV*Ang^6  
--------------------------------------------------------------------------------
O3   s O3   s Buckingham    Buckingham A     22764.000    eV        0.000 16.000
                            Buckingham rho  0.14900000    Ang       
                            Buckingham C     10.937044    eV*Ang^6  
--------------------------------------------------------------------------------
O1   c O1   s Spring (c-s)  Spring k 2       180.31577    eV*Ang^-2 0.000  0.800
                            Spring k 4       0.0000000    eV*Ang^-4 
--------------------------------------------------------------------------------
O2   c O2   s Spring (c-s)  Spring k 2       75.969800    eV*Ang^-2 0.000  0.800
                            Spring k 4       0.0000000    eV*Ang^-4 
--------------------------------------------------------------------------------
O3   c O3   s Spring (c-s)  Spring k 2       128.14270    eV*Ang^-2 0.000  0.800
                            Spring k 4       0.0000000    eV*Ang^-4 
--------------------------------------------------------------------------------

  General Three-body potentials :

--------------------------------------------------------------------------------
  Atoms       Potential      Parameter       Value         Units   Cutoffs(Ang)
  1 / 2 / 3                                                          Min /  Max 
--------------------------------------------------------------------------------
Si    core    Harmonic      Three-body cnst  1.2614000    eV*rad^-2 0.000  1.900
O1    shel                  Three-body angl  109.47000    degrees   0.000  1.900
O1    shel                  Three-body k4    0.0000000    eV*rad^-4 0.000  3.500
                            Three-body k3    0.0000000    eV*rad^-3 
--------------------------------------------------------------------------------
Si    core    Harmonic      Three-body cnst  1.2614000    eV*rad^-2 0.000  1.900
O1    shel                  Three-body angl  109.47000    degrees   0.000  1.900
õ(1   shel                  Three-body k4    0.0000000    eV*rad^-4 0.000  3.500
                            Three-body k3    0.0000000    eV*rad^-3 
--------------------------------------------------------------------------------
Si    core    Harmonic      Three-body cnst  1.2614000    eV*rad^-2 0.000  1.900
õ(1   shel                  Three-body angl  109.47000    degrees   0.000  1.900
õ(1   shel                  Three-body k4    0.0000000    eV*rad^-4 0.000  3.500
                            Three-body k3    0.0000000    eV*rad^-3 
--------------------------------------------------------------------------------
Si    core    Harmonic      Three-body cnst  1.2614000    eV*rad^-2 0.000  1.900
O1    shel                  Three-body angl  109.47000    degrees   0.000  1.900
O2    shel                  Three-body k4    0.0000000    eV*rad^-4 0.000  3.500
                            Three-body k3    0.0000000    eV*rad^-3 
--------------------------------------------------------------------------------
Si    core    Harmonic      Three-body cnst  1.2614000    eV*rad^-2 0.000  1.900
O1    shel                  Three-body angl  109.47000    degrees   0.000  1.900
õ(2   shel                  Three-body k4    0.0000000    eV*rad^-4 0.000  3.500
                            Three-body k3    0.0000000    eV*rad^-3 
--------------------------------------------------------------------------------
Si    core    Harmonic      Three-body cnst  1.2614000    eV*rad^-2 0.000  1.900
O2    shel                  Three-body angl  109.47000    degrees   0.000  1.900
õ(1   shel                  Three-body k4    0.0000000    eV*rad^-4 0.000  3.500
                            Three-body k3    0.0000000    eV*rad^-3 
--------------------------------------------------------------------------------
Si    core    Harmonic      Three-body cnst  1.2614000    eV*rad^-2 0.000  1.900
õ(1   shel                  Three-body angl  109.47000    degrees   0.000  1.900
õ(2   shel                  Three-body k4    0.0000000    eV*rad^-4 0.000  3.500
                            Three-body k3    0.0000000    eV*rad^-3 
--------------------------------------------------------------------------------
Si    core    Harmonic      Three-body cnst  1.2614000    eV*rad^-2 0.000  1.900
O2    shel                  Three-body angl  109.47000    degrees   0.000  1.900
O2    shel                  Three-body k4    0.0000000    eV*rad^-4 0.000  3.500
                            Three-body k3    0.0000000    eV*rad^-3 
--------------------------------------------------------------------------------
Si    core    Harmonic      Three-body cnst  1.2614000    eV*rad^-2 0.000  1.900
O2    shel                  Three-body angl  109.47000    degrees   0.000  1.900
õ(2   shel                  Three-body k4    0.0000000    eV*rad^-4 0.000  3.500
                            Three-body k3    0.0000000    eV*rad^-3 
--------------------------------------------------------------------------------
Si    core    Harmonic      Three-body cnst  1.2614000    eV*rad^-2 0.000  1.900
õ(2   shel                  Three-body angl  109.47000    degrees   0.000  1.900
õ(2   shel                  Three-body k4    0.0000000    eV*rad^-4 0.000  3.500
                            Three-body k3    0.0000000    eV*rad^-3 
--------------------------------------------------------------------------------

********************************************************************************
*  Output for configuration   1 : c01380.vasp                                  *
********************************************************************************


  Components of energy : 

--------------------------------------------------------------------------------
  Interatomic potentials     =         896.64408143 eV    
  Three-body potentials      =           0.00000000 eV    
  Monopole - monopole (real) =       -2676.00317478 eV    
  Monopole - monopole (recip)=       -1115.35404472 eV    
  Monopole - monopole (total)=       -3791.35721950 eV    
--------------------------------------------------------------------------------
  Total lattice energy       =       -2894.71313807 eV    
--------------------------------------------------------------------------------
  Total lattice energy       =         -279295.5681 kJ/(mole unit cells)
--------------------------------------------------------------------------------


  Number of variables =      363

  Maximum number of calculations  =          1000
  Maximum Hessian update interval =            10
  Maximum step size               =   0.100000000
  Maximum parameter tolerance     =   0.000010000
  Maximum function  tolerance     =   0.000010000
  Maximum gradient  tolerance     =   0.001000000
  Maximum gradient  component     =   0.010000000

  Symmetry not applied to optimisation

  Cell parameters to be optimised using strains

  Newton-Raphson optimiser to be used

  BFGS hessian update to be used

  Lower half triangular hessian to be used

  Minimiser to switch to RFO
  When gradient norm is less than     0.050000

  Dumpfile to be written after every cycle

  Start of bulk optimisation :

  Cycle:      0 Energy:     -2894.713138  Gnorm:      5.894330  CPU:    0.079
  ** Hessian calculated **
  Cycle:      1 Energy:     -2909.938719  Gnorm:      4.933333  CPU:    0.206
  ** Hessian calculated **
  Cycle:      2 Energy:     -2925.091348  Gnorm:      3.755542  CPU:    0.408
  ** Hessian calculated **
  Cycle:      3 Energy:     -2941.951245  Gnorm:      0.868326  CPU:    0.556
  ** Hessian calculated **
  Cycle:      4 Energy:     -2943.601012  Gnorm:      0.416790  CPU:    0.705
  Cycle:      5 Energy:     -2944.084390  Gnorm:      0.284395  CPU:    0.781
  Cycle:      6 Energy:     -2944.549897  Gnorm:      0.237254  CPU:    0.871
  Cycle:      7 Energy:     -2945.057673  Gnorm:      0.193482  CPU:    0.961
  Cycle:      8 Energy:     -2945.363193  Gnorm:      0.177453  CPU:    1.037
  Cycle:      9 Energy:     -2945.536519  Gnorm:      0.133831  CPU:    1.113
  Cycle:     10 Energy:     -2945.625850  Gnorm:      0.117761  CPU:    1.189
  Cycle:     11 Energy:     -2945.703467  Gnorm:      0.111680  CPU:    1.278
  Cycle:     12 Energy:     -2945.779494  Gnorm:      0.113129  CPU:    1.367
  Cycle:     13 Energy:     -2945.866097  Gnorm:      0.122773  CPU:    1.457
  ** Hessian calculated **
  Cycle:     14 Energy:     -2945.891715  Gnorm:      0.102700  CPU:    1.605
  Cycle:     15 Energy:     -2945.939995  Gnorm:      0.093251  CPU:    1.709
  Cycle:     16 Energy:     -2945.998350  Gnorm:      0.086647  CPU:    1.799
  Cycle:     17 Energy:     -2946.060247  Gnorm:      0.094022  CPU:    1.889
  Cycle:     18 Energy:     -2946.099114  Gnorm:      0.079771  CPU:    1.965
  Cycle:     19 Energy:     -2946.134467  Gnorm:      0.074043  CPU:    2.054
  Cycle:     20 Energy:     -2946.170761  Gnorm:      0.079214  CPU:    2.145
  Cycle:     21 Energy:     -2946.219923  Gnorm:      0.086163  CPU:    2.234
  Cycle:     22 Energy:     -2946.284027  Gnorm:      0.091337  CPU:    2.323
  Cycle:     23 Energy:     -2946.349695  Gnorm:      0.096037  CPU:    2.412
  ** Hessian calculated **
  Cycle:     24 Energy:     -2946.365300  Gnorm:      0.073888  CPU:    2.560
  Cycle:     25 Energy:     -2946.387219  Gnorm:      0.062289  CPU:    2.649
  Cycle:     26 Energy:     -2946.413794  Gnorm:      0.054408  CPU:    2.739
  Cycle:     27 Energy:     -2946.430939  Gnorm:      0.048671  CPU:    2.815
  ** Hessian has required structure
  Cycle:     28 Energy:     -2946.433739  Gnorm:      0.055415  CPU:    2.923
  ** Hessian has required structure
  Cycle:     29 Energy:     -2946.442538  Gnorm:      0.084329  CPU:    3.029
  ** Hessian has required structure
  Cycle:     30 Energy:     -2946.449403  Gnorm:      0.080808  CPU:    3.136
  ** Hessian has required structure
  Cycle:     31 Energy:     -2946.456848  Gnorm:      0.079153  CPU:    3.243
  ** Hessian has required structure
  Cycle:     32 Energy:     -2946.461155  Gnorm:      0.064715  CPU:    3.350
  ** Hessian has required structure
  Cycle:     33 Energy:     -2946.463802  Gnorm:      0.078287  CPU:    3.456
  ** Hessian has wrong structure
  ** Imaginary eigenvectors =   7
  Cycle:     34 Energy:     -2946.494553  Gnorm:      0.077801  CPU:    3.796
  ** Hessian has wrong structure
  ** Imaginary eigenvectors =   6
  ** Hessian has wrong structure
  ** Imaginary eigenvectors =   6
  Cycle:     35 Energy:     -2946.574021  Gnorm:      0.103619  CPU:    4.207
  ** Hessian has wrong structure
  ** Imaginary eigenvectors =   4
  ** Hessian has wrong structure
  ** Imaginary eigenvectors =   2
  Cycle:     36 Energy:     -2946.709325  Gnorm:      0.118575  CPU:    4.590
  ** Hessian has wrong structure
  ** Imaginary eigenvectors =   1
  ** Hessian has wrong structure
  ** Imaginary eigenvectors =   1
  Cycle:     37 Energy:     -2946.744294  Gnorm:      0.124270  CPU:    4.850
  ** Hessian has required structure
  Cycle:     38 Energy:     -2947.235743  Gnorm:      0.169882  CPU:    4.985
  ** Hessian has required structure
  Cycle:     39 Energy:     -2947.457641  Gnorm:      0.121864  CPU:    5.092
  ** Hessian has required structure
  Cycle:     40 Energy:     -2947.573608  Gnorm:      0.068402  CPU:    5.201
  ** Hessian has required structure
  Cycle:     41 Energy:     -2947.650458  Gnorm:      0.085547  CPU:    5.322
  ** Hessian has required structure
  Cycle:     42 Energy:     -2947.707590  Gnorm:      0.089776  CPU:    5.442
  ** Hessian has required structure
  Cycle:     43 Energy:     -2947.746333  Gnorm:      0.077153  CPU:    5.549
  ** Hessian has required structure
  Cycle:     44 Energy:     -2947.768935  Gnorm:      0.069529  CPU:    5.656
  ** Hessian has required structure
  Cycle:     45 Energy:     -2947.795592  Gnorm:      0.047813  CPU:    5.776
  ** Hessian has required structure
  Cycle:     46 Energy:     -2947.810902  Gnorm:      0.043969  CPU:    5.897
  ** Hessian has required structure
  Cycle:     47 Energy:     -2947.825160  Gnorm:      0.022861  CPU:    6.099
  ** Hessian has required structure
  Cycle:     48 Energy:     -2947.829397  Gnorm:      0.012304  CPU:    6.234
  ** Hessian has required structure
  Cycle:     49 Energy:     -2947.830770  Gnorm:      0.006406  CPU:    6.368
  ** Hessian has required structure
  Cycle:     50 Energy:     -2947.831194  Gnorm:      0.003311  CPU:    6.502
  ** Hessian has required structure
  Cycle:     51 Energy:     -2947.831317  Gnorm:      0.001676  CPU:    6.636
  ** Hessian has required structure
  Cycle:     52 Energy:     -2947.831348  Gnorm:      0.001011  CPU:    6.757
  ** Hessian has required structure
  Cycle:     53 Energy:     -2947.831362  Gnorm:      0.000606  CPU:    6.877
  ** Hessian has required structure
  Cycle:     54 Energy:     -2947.831366  Gnorm:      0.000364  CPU:    6.997
  ** Hessian has required structure
  Cycle:     55 Energy:     -2947.831368  Gnorm:      0.000290  CPU:    7.103
  ** Hessian has required structure
  Cycle:     56 Energy:     -2947.831368  Gnorm:      0.000225  CPU:    7.209
  ** Hessian has required structure
  Cycle:     57 Energy:     -2947.831369  Gnorm:      0.000158  CPU:    7.382
  ** Hessian has required structure
  Cycle:     58 Energy:     -2947.831369  Gnorm:      0.000110  CPU:    7.488
  ** Hessian has required structure


  **** Optimisation achieved ****


  Final energy =   -2947.83136884 eV      
  Final Gnorm  =       0.00007729

  Components of energy : 

--------------------------------------------------------------------------------
  Interatomic potentials     =         781.01456116 eV    
  Three-body potentials      =           0.00000000 eV    
  Monopole - monopole (real) =       -1545.02846301 eV    
  Monopole - monopole (recip)=       -2183.81746700 eV    
  Monopole - monopole (total)=       -3728.84593000 eV    
--------------------------------------------------------------------------------
  Total lattice energy       =       -2947.83136884 eV    
--------------------------------------------------------------------------------
  Total lattice energy       =         -284420.6654 kJ/(mole unit cells)
--------------------------------------------------------------------------------

  Final fractional coordinates of atoms :

--------------------------------------------------------------------------------
   No.  Atomic        x           y          z          Radius
        Label       (Frac)      (Frac)     (Frac)       (Angs) 
--------------------------------------------------------------------------------
     1  Ge    c     0.052090    0.000000    0.372270    0.000000
     2  Ge    c     0.553425    0.020861    0.639041    0.000000
     3  Ge    c     0.547729    0.015378    0.151918    0.000000
     4  Ge    c     0.946003    0.071260    0.117065    0.000000
     5  Ge    c     0.445444    0.075318    0.891362    0.000000
     6  Ge    c     0.045928    0.018430    0.855057    0.000000
     7  Ge    c     0.172980    0.285901    0.292115    0.000000
     8  Ge    c     0.331188    0.752663    0.293115    0.000000
     9  Ge    c     0.852868    0.381446    0.719617    0.000000
    10  Ge    c     0.827431    0.782484    0.716647    0.000000
    11  Ge    c     0.670980    0.312575    0.712971    0.000000
    12  Ge    c     0.149281    0.684911    0.307149    0.000000
    13  Ge    c     0.669412    0.301126    0.036852    0.000000
    14  Ge    c     0.822192    0.788392    0.041623    0.000000
    15  Ge    c     0.346131    0.382642    0.958693    0.000000
    16  Ge    c     0.143510    0.706030    0.979370    0.000000
    17  Ge    c     0.322653    0.786792    0.969101    0.000000
    18  Ge    c     0.168457    0.299505    0.967196    0.000000
    19  Ge    c     0.643671    0.708628    0.029288    0.000000
    20  Ge    c     0.848315    0.385281    0.045904    0.000000
    21  Si    c     0.442162    0.046436    0.398831    0.000000
    22  Si    c     0.941373    0.070366    0.603935    0.000000
    23  Si    c     0.650098    0.708281    0.710391    0.000000
    24  Si    c     0.350841    0.357007    0.276986    0.000000
    25  O1    c     0.128499    0.136114    0.391910    0.000000
    26  O3    c     0.380406    0.895070    0.391788    0.000000
    27  O3    c     0.919224    0.263237    0.636038    0.000000
    28  O3    c     0.592931    0.821295    0.620876    0.000000
    29  O3    c     0.869202    0.945741    0.623194    0.000000
    30  O1    c     0.620970    0.177541    0.611427    0.000000
    31  O1    c     0.085532    0.798096    0.398943    0.000000
    32  O2    c     0.409886    0.230813    0.351645    0.000000
    33  O3    c     0.970128    0.057169    0.451543    0.000000
    34  O3    c     0.470347    0.055641    0.551946    0.000000
    35  O1    c     0.024568    0.018973    0.205452    0.000000
    36  O3    c     0.517886    0.005171    0.317541    0.000000
    37  O3    c     0.014061    0.010630    0.690127    0.000000
    38  O1    c     0.524171    0.031903    0.803519    0.000000
    39  O1    c     0.623451    0.154528    0.137845    0.000000
    40  O1    c     0.872724    0.925013    0.139060    0.000000
    41  O1    c     0.410301    0.277923    0.864867    0.000000
    42  O1    c     0.074306    0.814598    0.895628    0.000000
    43  O1    c     0.372466    0.929027    0.871186    0.000000
    44  O1    c     0.120484    0.160597    0.866725    0.000000
    45  O1    c     0.573808    0.812082    0.109137    0.000000
    46  O1    c     0.911396    0.272556    0.142475    0.000000
    47  O1    c     0.471881    0.075801    0.058295    0.000000
    48  O1    c     0.971201    0.076566    0.949405    0.000000
    49  O1    c     0.156636    0.479441    0.364702    0.000000
    50  O3    c     0.345949    0.540927    0.346038    0.000000
    51  O1    c     0.847658    0.586373    0.652759    0.000000
    52  O3    c     0.660063    0.521602    0.651838    0.000000
    53  O3    c     0.269717    0.259921    0.280813    0.000000
    54  O1    c     0.236204    0.788357    0.307920    0.000000
    55  O1    c     0.766493    0.277322    0.711076    0.000000
    56  O3    c     0.730399    0.809537    0.715530    0.000000
    57  O1    c     0.137997    0.276221    0.130855    0.000000
    58  O1    c     0.358426    0.788677    0.130662    0.000000
    59  O1    c     0.879520    0.408556    0.882542    0.000000
    60  O3    c     0.619705    0.685770    0.861587    0.000000
    61  O1    c     0.856723    0.798832    0.879798    0.000000
    62  O1    c     0.637724    0.284630    0.873703    0.000000
    63  O1    c     0.118150    0.675787    0.143954    0.000000
    64  O3    c     0.375448    0.397491    0.125611    0.000000
    65  O1    c     0.654787    0.505382    0.092489    0.000000
    66  O1    c     0.833824    0.583315    0.106543    0.000000
    67  O1    c     0.333030    0.586334    0.902146    0.000000
    68  O1    c     0.155138    0.508168    0.913122    0.000000
    69  O1    c     0.764969    0.267362    0.038420    0.000000
    70  O1    c     0.726810    0.826211    0.041132    0.000000
    71  O1    c     0.263591    0.262641    0.959166    0.000000
    72  O1    c     0.227235    0.823772    0.973882    0.000000
    73  O1    s     0.126250    0.137554    0.382768    0.000000
    74  O3    s     0.382551    0.898535    0.384473    0.000000
    75  O3    s     0.916168    0.253804    0.639474    0.000000
    76  O3    s     0.595298    0.826008    0.630766    0.000000
    77  O3    s     0.872905    0.944719    0.628913    0.000000
    78  O1    s     0.619677    0.175997    0.621151    0.000000
    79  O1    s     0.087609    0.805121    0.390344    0.000000
    80  O2    s     0.407036    0.224961    0.348699    0.000000
    81  O3    s     0.973925    0.053890    0.459524    0.000000
    82  O3    s     0.474255    0.052022    0.544290    0.000000
    83  O1    s     0.020281    0.021756    0.210116    0.000000
    84  O3    s     0.513093    0.009846    0.312666    0.000000
    85  O3    s     0.009741    0.016796    0.694455    0.000000
    86  O1    s     0.520002    0.034550    0.798688    0.000000
    87  O1    s     0.621255    0.155310    0.131075    0.000000
    88  O1    s     0.874130    0.925006    0.129852    0.000000
    89  O1    s     0.407971    0.271350    0.873841    0.000000
    90  O1    s     0.077574    0.821417    0.899132    0.000000
    91  O1    s     0.373935    0.928659    0.880303    0.000000
    92  O1    s     0.118529    0.160563    0.873640    0.000000
    93  O1    s     0.577432    0.818770    0.105934    0.000000
    94  O1    s     0.909221    0.266435    0.133488    0.000000
    95  O1    s     0.475898    0.071004    0.053655    0.000000
    96  O1    s     0.975184    0.071695    0.953885    0.000000
    97  O1    s     0.157261    0.481326    0.354904    0.000000
    98  O3    s     0.345335    0.539348    0.335700    0.000000
    99  O1    s     0.846562    0.586017    0.662276    0.000000
   100  O3    s     0.659905    0.524301    0.662191    0.000000
   101  O3    s     0.269738    0.271154    0.281332    0.000000
   102  O1    s     0.236991    0.778100    0.306734    0.000000
   103  O1    s     0.765688    0.287694    0.711861    0.000000
   104  O3    s     0.730489    0.798012    0.715162    0.000000
   105  O1    s     0.142704    0.278580    0.130774    0.000000
   106  O1    s     0.353800    0.785834    0.131385    0.000000
   107  O1    s     0.875218    0.404810    0.881870    0.000000
   108  O3    s     0.624437    0.689647    0.860112    0.000000
   109  O1    s     0.852057    0.796870    0.879152    0.000000
   110  O1    s     0.642443    0.287843    0.873677    0.000000
   111  O1    s     0.122377    0.678730    0.143720    0.000000
   112  O3    s     0.370832    0.392443    0.128056    0.000000
   113  O1    s     0.655006    0.506003    0.083671    0.000000
   114  O1    s     0.834120    0.582459    0.097165    0.000000
   115  O1    s     0.333310    0.584604    0.911406    0.000000
   116  O1    s     0.155228    0.507981    0.922021    0.000000
   117  O1    s     0.763825    0.278330    0.038809    0.000000
   118  O1    s     0.727889    0.814939    0.040306    0.000000
   119  O1    s     0.262501    0.274141    0.959768    0.000000
   120  O1    s     0.228341    0.812694    0.973925    0.000000
--------------------------------------------------------------------------------

  Final Cartesian lattice vectors (Angstroms) :

       17.657606   -0.143012   -0.046102
       -0.063894    7.818640    0.081856
       -0.024818    0.122369    9.974056


  Final cell parameters and derivatives :

--------------------------------------------------------------------------------
       a           17.658246 Angstrom     dE/de1(xx)     0.005444 eV/strain
       b            7.819329 Angstrom     dE/de2(yy)     0.005524 eV/strain
       c            9.974838 Angstrom     dE/de3(zz)     0.001761 eV/strain
       alpha       88.696144 Degrees      dE/de4(yz)    -0.000041 eV/strain
       beta        90.297821 Degrees      dE/de5(xz)     0.000526 eV/strain
       gamma       90.933762 Degrees      dE/de6(xy)     0.000531 eV/strain
--------------------------------------------------------------------------------

  Primitive cell volume =          1376.726523 Angs**3

  Density of cell =      2.813463 g/cm**3

  Non-primitive cell volume =          1376.726523 Angs**3


  Final internal derivatives :

--------------------------------------------------------------------------------
   No.  Atomic          a             b             c           Radius
        Label          (eV)          (eV)          (eV)        (eV/Angs)
--------------------------------------------------------------------------------
      1 Ge    c       0.000000      0.000000      0.000000      0.000000
      2 Ge    c      -0.000083     -0.000097      0.001257      0.000000
      3 Ge    c      -0.000303     -0.000685      0.000597      0.000000
      4 Ge    c      -0.000942      0.000629     -0.002957      0.000000
      5 Ge    c       0.000295      0.000321     -0.000276      0.000000
      6 Ge    c      -0.000050     -0.000263     -0.001460      0.000000
      7 Ge    c       0.000263     -0.000569     -0.000044      0.000000
      8 Ge    c       0.000327      0.000074      0.000187      0.000000
      9 Ge    c       0.000335     -0.000665      0.000296      0.000000
     10 Ge    c       0.001494      0.000450      0.000023      0.000000
     11 Ge    c      -0.001379     -0.000329     -0.000100      0.000000
     12 Ge    c       0.000392     -0.000148      0.000270      0.000000
     13 Ge    c      -0.001732     -0.000539      0.000374      0.000000
     14 Ge    c       0.002560      0.000848     -0.001055      0.000000
     15 Ge    c       0.000147     -0.000907      0.000369      0.000000
     16 Ge    c       0.001389     -0.000103      0.000073      0.000000
     17 Ge    c      -0.000837      0.000559      0.000326      0.000000
     18 Ge    c      -0.000089     -0.000324      0.000113      0.000000
     19 Ge    c      -0.001413      0.000630      0.000298      0.000000
     20 Ge    c       0.000967      0.000387     -0.001186      0.000000
     21 Si    c       0.000766      0.000292      0.001077      0.000000
     22 Si    c       0.000365     -0.000350     -0.001310      0.000000
     23 Si    c      -0.000186      0.000448      0.000252      0.000000
     24 Si    c       0.000899     -0.000620     -0.000345      0.000000
     25 O1    c       0.003160      0.001406      0.000573      0.000000
     26 O3    c      -0.001648     -0.000931     -0.000315      0.000000
     27 O3    c      -0.002468      0.002687      0.000207      0.000000
     28 O3    c      -0.000138      0.000181     -0.000740      0.000000
     29 O3    c      -0.004572     -0.002240      0.000612      0.000000
     30 O1    c       0.001917      0.000707      0.000173      0.000000
     31 O1    c      -0.000720     -0.000177      0.001057      0.000000
     32 O2    c      -0.000998      0.000218     -0.000144      0.000000
     33 O3    c      -0.002589      0.000064      0.001294      0.000000
     34 O3    c      -0.004679     -0.000005     -0.003054      0.000000
     35 O1    c       0.009221     -0.000502      0.004891      0.000000
     36 O3    c       0.000888      0.000146     -0.001114      0.000000
     37 O3    c       0.005984     -0.001184      0.002939      0.000000
     38 O1    c      -0.000108      0.000677      0.000040      0.000000
     39 O1    c       0.003468      0.001528     -0.000691      0.000000
     40 O1    c      -0.006105     -0.003685      0.000021      0.000000
     41 O1    c      -0.000383      0.000066     -0.000039      0.000000
     42 O1    c      -0.001193     -0.000793     -0.000916      0.000000
     43 O1    c      -0.001041     -0.000202     -0.000060      0.000000
     44 O1    c       0.005133      0.002218      0.000508      0.000000
     45 O1    c       0.000572     -0.000106     -0.000276      0.000000
     46 O1    c      -0.001672      0.000919      0.001754      0.000000
     47 O1    c      -0.001927     -0.000298     -0.001593      0.000000
     48 O1    c      -0.008744      0.000635      0.005336      0.000000
     49 O1    c      -0.000740      0.000791      0.000696      0.000000
     50 O3    c      -0.000169      0.001249      0.000465      0.000000
     51 O1    c      -0.000155      0.001384     -0.000533      0.000000
     52 O3    c      -0.000752     -0.000549     -0.000446      0.000000
     53 O3    c      -0.002331     -0.000542     -0.000309      0.000000
     54 O1    c       0.001139      0.000682     -0.000449      0.000000
     55 O1    c       0.000717     -0.000650      0.000095      0.000000
     56 O3    c      -0.000030      0.000629      0.000097      0.000000
     57 O1    c      -0.000307     -0.000025      0.000723      0.000000
     58 O1    c       0.000363     -0.000090     -0.000938      0.000000
     59 O1    c       0.000045      0.000190      0.001410      0.000000
     60 O3    c      -0.000443     -0.000283     -0.000915      0.000000
     61 O1    c      -0.000777     -0.000817      0.002114      0.000000
     62 O1    c      -0.000614      0.000288     -0.000582      0.000000
     63 O1    c      -0.002635     -0.000066      0.000493      0.000000
     64 O3    c      -0.000690      0.000184      0.000250      0.000000
     65 O1    c      -0.000405     -0.001295      0.000433      0.000000
     66 O1    c       0.001906     -0.001141      0.000340      0.000000
     67 O1    c      -0.000366      0.000257     -0.000856      0.000000
     68 O1    c      -0.000048     -0.000028     -0.000632      0.000000
     69 O1    c       0.000138     -0.001574     -0.000166      0.000000
     70 O1    c      -0.000928      0.001799      0.000112      0.000000
     71 O1    c       0.001656     -0.000538      0.000128      0.000000
     72 O1    c       0.003388      0.000888      0.000532      0.000000
     73 O1    s      -0.000990     -0.000657     -0.000576      0.000000
     74 O3    s       0.000809      0.000238      0.000094      0.000000
     75 O3    s       0.000928     -0.000136     -0.000589      0.000000
     76 O3    s      -0.000899     -0.000150      0.000312      0.000000
     77 O3    s      -0.000124      0.000212     -0.000311      0.000000
     78 O1    s      -0.001322     -0.000208     -0.000084      0.000000
     79 O1    s       0.000123     -0.000197     -0.000338      0.000000
     80 O2    s       0.001686      0.000096     -0.000184      0.000000
     81 O3    s       0.001578     -0.000154     -0.001926      0.000000
     82 O3    s       0.003412     -0.000066      0.001616      0.000000
     83 O1    s      -0.003750      0.000551     -0.002615      0.000000
     84 O3    s      -0.000360      0.000152      0.001258      0.000000
     85 O3    s       0.000617      0.000560     -0.001660      0.000000
     86 O1    s      -0.000712     -0.000567      0.000353      0.000000
     87 O1    s      -0.002036     -0.000723      0.000249      0.000000
     88 O1    s       0.002274      0.001421     -0.000084      0.000000
     89 O1    s       0.000770     -0.000029     -0.000287      0.000000
     90 O1    s      -0.000132     -0.000197     -0.000176      0.000000
     91 O1    s       0.001405      0.000161      0.000070      0.000000
     92 O1    s      -0.001177     -0.000707     -0.000492      0.000000
     93 O1    s      -0.001185      0.000089      0.000233      0.000000
     94 O1    s       0.001832      0.000515     -0.000495      0.000000
     95 O1    s       0.001115      0.000355      0.000793      0.000000
     96 O1    s       0.003228     -0.000557     -0.003506      0.000000
     97 O1    s       0.000869     -0.000844     -0.000583      0.000000
     98 O3    s       0.000437     -0.000395      0.000122      0.000000
     99 O1    s      -0.000346     -0.000625      0.000513      0.000000
    100 O3    s       0.000725      0.000199      0.000121      0.000000
    101 O3    s       0.000245      0.000423      0.000349      0.000000
    102 O1    s       0.000006     -0.000312      0.000642      0.000000
    103 O1    s      -0.001077      0.000344     -0.000265      0.000000
    104 O3    s       0.000360     -0.000756     -0.000118      0.000000
    105 O1    s      -0.000070      0.000325     -0.000103      0.000000
    106 O1    s      -0.000099     -0.000014      0.000280      0.000000
    107 O1    s       0.000422     -0.000146     -0.000367      0.000000
    108 O3    s      -0.000517      0.000351      0.000155      0.000000
    109 O1    s       0.000137      0.000745     -0.001066      0.000000
    110 O1    s       0.000674     -0.000253      0.000221      0.000000
    111 O1    s      -0.000641      0.000115      0.000561      0.000000
    112 O3    s       0.001395     -0.000296     -0.000506      0.000000
    113 O1    s       0.000725      0.000489      0.000213      0.000000
    114 O1    s      -0.001840      0.000626     -0.000639      0.000000
    115 O1    s       0.000261      0.000002      0.000455      0.000000
    116 O1    s       0.000321     -0.000452     -0.000082      0.000000
    117 O1    s      -0.000331      0.001439      0.000309      0.000000
    118 O1    s       0.000902     -0.001441      0.000100      0.000000
    119 O1    s      -0.000526      0.000462     -0.000187      0.000000
    120 O1    s      -0.000684     -0.000569     -0.000702      0.000000
--------------------------------------------------------------------------------
  Maximum abs         0.009221      0.003685      0.005336      0.000000
--------------------------------------------------------------------------------


  Born effective charge tensors : 

-------------------------------------------------------------------------------
  Atom             x           y             z
-------------------------------------------------------------------------------
    1 Ge    x       4.1613     -0.2692      0.1637
            y       0.0860      3.9033     -0.0380
            z      -0.7129      0.1751      4.0677
-------------------------------------------------------------------------------
    2 Ge    x       4.1066     -0.1624     -0.1438
            y       0.1444      3.8712      0.0062
            z       0.7586     -0.1334      4.1170
-------------------------------------------------------------------------------
    3 Ge    x       4.2727     -0.2038     -0.4072
            y       0.1585      3.9174      0.1421
            z      -0.2908      0.0116      3.8851
-------------------------------------------------------------------------------
    4 Ge    x       4.2953     -0.1956     -0.0461
            y       0.0811      3.9144      0.0032
            z       0.6767     -0.1874      3.7708
-------------------------------------------------------------------------------
    5 Ge    x       4.2980     -0.2000      0.0226
            y       0.0812      3.9169      0.0365
            z      -0.6935      0.2184      3.7680
-------------------------------------------------------------------------------
    6 Ge    x       4.2876     -0.1783      0.3563
            y       0.1370      3.9353     -0.1013
            z       0.2747      0.0580      3.8765
-------------------------------------------------------------------------------
    7 Ge    x       3.9573      0.3121     -0.3279
            y       0.2962      4.1254     -0.0207
            z      -0.0420     -0.1164      3.6142
-------------------------------------------------------------------------------
    8 Ge    x       3.9480      0.2325      0.1847
            y       0.2736      4.1992      0.1001
            z      -0.0656      0.1769      3.5332
-------------------------------------------------------------------------------
    9 Ge    x       3.8955     -0.0411     -0.1238
            y      -0.4303      4.2426      0.0928
            z      -0.0333      0.2197      3.5730
-------------------------------------------------------------------------------
   10 Ge    x       3.8593      0.2714     -0.2564
            y       0.2234      4.1835      0.0216
            z       0.0300     -0.1009      3.5706
-------------------------------------------------------------------------------
   11 Ge    x       4.0350      0.2722      0.2524
            y       0.3165      4.1475      0.1145
            z       0.0010      0.1940      3.5601
-------------------------------------------------------------------------------
   12 Ge    x       4.0011     -0.1082     -0.2041
            y      -0.4406      4.2317      0.1191
            z      -0.0888      0.1932      3.5829
-------------------------------------------------------------------------------
   13 Ge    x       4.0449      0.2534     -0.3465
            y       0.2487      4.2149     -0.1007
            z      -0.0373     -0.1945      3.5784
-------------------------------------------------------------------------------
   14 Ge    x       4.0879      0.2294      0.3203
            y       0.2935      4.1445      0.0838
            z       0.0582      0.1702      3.5436
-------------------------------------------------------------------------------
   15 Ge    x       3.9469     -0.0677     -0.3370
            y      -0.4472      4.1998      0.0825
            z      -0.1365      0.1940      3.4724
-------------------------------------------------------------------------------
   16 Ge    x       4.0594     -0.0881      0.2902
            y      -0.4615      4.1850     -0.0600
            z       0.1617     -0.2048      3.5585
-------------------------------------------------------------------------------
   17 Ge    x       4.0686      0.2449     -0.2985
            y       0.2952      4.1759     -0.0681
            z      -0.0287     -0.1723      3.5338
-------------------------------------------------------------------------------
   18 Ge    x       4.0719      0.2320      0.3566
            y       0.2671      4.1803      0.1146
            z       0.0645      0.1904      3.5869
-------------------------------------------------------------------------------
   19 Ge    x       4.0204     -0.0821     -0.3271
            y      -0.4599      4.1870      0.0680
            z      -0.1946      0.2174      3.4890
-------------------------------------------------------------------------------
   20 Ge    x       3.9806     -0.0906      0.2968
            y      -0.4544      4.2034     -0.0687
            z       0.1019     -0.1778      3.5143
-------------------------------------------------------------------------------
   21 Si    x       3.7963     -0.0054      0.4349
            y       0.2404      3.4944     -0.0862
            z       0.2087      0.1468      4.0794
-------------------------------------------------------------------------------
   22 Si    x       3.8942     -0.2687     -0.4535
            y       0.1831      3.6683      0.1379
            z      -0.2553      0.0444      4.0810
-------------------------------------------------------------------------------
   23 Si    x       3.6790     -0.0874      0.2366
            y      -0.4053      3.9343     -0.0986
            z       0.0563     -0.2103      3.3258
-------------------------------------------------------------------------------
   24 Si    x       3.4953      0.0368      0.0747
            y      -0.2707      3.8754      0.0431
            z      -0.0519     -0.1757      3.2344
-------------------------------------------------------------------------------
   25 O1    x      -2.2382     -0.8953      0.3221
            y      -0.9586     -2.2761      0.3791
            z       0.3989      0.3817     -1.6013
-------------------------------------------------------------------------------
   26 O3    x      -1.9939     -0.9148     -0.4220
            y      -0.9346     -2.3634     -0.4063
            z      -0.3761     -0.4495     -1.5095
-------------------------------------------------------------------------------
   27 O3    x      -1.7614      0.7717      0.4273
            y       0.7096     -2.5312     -0.5280
            z       0.3740     -0.4942     -1.5190
-------------------------------------------------------------------------------
   28 O3    x      -1.9201      0.8832     -0.3954
            y       0.8292     -2.3197      0.3571
            z      -0.4694      0.4223     -1.5295
-------------------------------------------------------------------------------
   29 O3    x      -2.1294     -0.8747      0.4560
            y      -0.8928     -2.1902      0.4203
            z       0.3911      0.4437     -1.5033
-------------------------------------------------------------------------------
   30 O1    x      -2.1271     -0.9083     -0.3110
            y      -0.9868     -2.3869     -0.3591
            z      -0.4156     -0.3857     -1.6231
-------------------------------------------------------------------------------
   31 O1    x      -1.9704      0.8735      0.3341
            y       0.8476     -2.5515     -0.2781
            z       0.4417     -0.3367     -1.5827
-------------------------------------------------------------------------------
   32 O2    x      -1.5939      0.6435     -0.3635
            y       0.5808     -2.0201      0.4010
            z      -0.2977      0.3916     -1.3701
-------------------------------------------------------------------------------
   33 O3    x      -1.9484      0.2679      0.7875
            y       0.1094     -1.2157     -0.1468
            z       1.0325     -0.2840     -2.8451
-------------------------------------------------------------------------------
   34 O3    x      -1.9768      0.1418     -0.8608
            y       0.0339     -1.2021      0.0271
            z      -1.1053      0.0632     -2.9309
-------------------------------------------------------------------------------
   35 O1    x      -2.1822      0.2564     -0.7761
            y       0.1296     -1.3366      0.1577
            z      -0.7971      0.2203     -2.6186
-------------------------------------------------------------------------------
   36 O3    x      -2.1002      0.2191      0.7460
            y       0.1263     -1.2488     -0.1000
            z       0.7409     -0.1181     -2.4651
-------------------------------------------------------------------------------
   37 O3    x      -2.0503      0.2420     -0.7411
            y       0.1302     -1.2601      0.1315
            z      -0.7402      0.1374     -2.4912
-------------------------------------------------------------------------------
   38 O1    x      -2.2000      0.2402      0.8134
            y       0.1331     -1.3347     -0.1770
            z       0.8334     -0.2127     -2.6195
-------------------------------------------------------------------------------
   39 O1    x      -2.2658     -0.9255      0.5415
            y      -0.9323     -2.2783      0.4893
            z       0.4753      0.5064     -1.6145
-------------------------------------------------------------------------------
   40 O1    x      -2.2346     -0.8962     -0.3335
            y      -0.9560     -2.2618     -0.3586
            z      -0.4037     -0.3718     -1.5511
-------------------------------------------------------------------------------
   41 O1    x      -2.0312      0.8513      0.3714
            y       0.8155     -2.4603     -0.2759
            z       0.4254     -0.3210     -1.5448
-------------------------------------------------------------------------------
   42 O1    x      -2.0955      0.8757     -0.5684
            y       0.8118     -2.5152      0.5583
            z      -0.5082      0.5393     -1.5740
-------------------------------------------------------------------------------
   43 O1    x      -2.2118     -0.8918      0.3208
            y      -0.9597     -2.2918      0.3547
            z       0.3874      0.3592     -1.5380
-------------------------------------------------------------------------------
   44 O1    x      -2.2856     -0.9349     -0.5527
            y      -0.9318     -2.2565     -0.4869
            z      -0.4872     -0.5111     -1.6240
-------------------------------------------------------------------------------
   45 O1    x      -2.0883      0.8676      0.5943
            y       0.7855     -2.4899     -0.5862
            z       0.5271     -0.5760     -1.6085
-------------------------------------------------------------------------------
   46 O1    x      -2.0122      0.8468     -0.3470
            y       0.8130     -2.4912      0.2617
            z      -0.3974      0.2963     -1.5224
-------------------------------------------------------------------------------
   47 O1    x      -2.1132      0.2372     -0.6763
            y       0.1482     -1.3677      0.1381
            z      -0.4871      0.1132     -2.3559
-------------------------------------------------------------------------------
   48 O1    x      -2.1144      0.2270      0.6973
            y       0.1431     -1.3690     -0.1604
            z       0.4998     -0.1352     -2.3813
-------------------------------------------------------------------------------
   49 O1    x      -1.3645      0.1815      0.1099
            y       0.2672     -3.1201     -0.0888
            z       0.0596     -0.0435     -1.4104
-------------------------------------------------------------------------------
   50 O3    x      -1.2577      0.1262     -0.0561
            y       0.2210     -3.0877     -0.2135
            z      -0.0060     -0.2152     -1.3320
-------------------------------------------------------------------------------
   51 O1    x      -1.3712      0.1963      0.1036
            y       0.2949     -3.2013      0.0041
            z       0.0575      0.0105     -1.4077
-------------------------------------------------------------------------------
   52 O3    x      -1.2650      0.1511     -0.0532
            y       0.2331     -3.0100     -0.1059
            z      -0.0008     -0.1379     -1.3086
-------------------------------------------------------------------------------
   53 O3    x      -2.9214     -0.3214      0.0633
            y      -0.2281     -1.4789      0.0159
            z       0.0281      0.0529     -1.1505
-------------------------------------------------------------------------------
   54 O1    x      -3.1237     -0.2385      0.0731
            y      -0.1597     -1.5809     -0.0262
            z       0.0877     -0.0558     -1.2257
-------------------------------------------------------------------------------
   55 O1    x      -3.1036     -0.2293     -0.0265
            y      -0.0899     -1.5719     -0.0272
            z       0.0154     -0.0630     -1.2126
-------------------------------------------------------------------------------
   56 O3    x      -2.9019     -0.3485     -0.0269
            y      -0.2872     -1.5085      0.0026
            z      -0.0306      0.0374     -1.1615
-------------------------------------------------------------------------------
   57 O1    x      -1.5407     -0.1132     -0.0980
            y      -0.1275     -1.4153      0.0308
            z      -0.0590      0.0300     -2.7423
-------------------------------------------------------------------------------
   58 O1    x      -1.4688     -0.1151     -0.0625
            y      -0.1296     -1.4656      0.0944
            z      -0.0419      0.1179     -2.7446
-------------------------------------------------------------------------------
   59 O1    x      -1.4470      0.0190      0.0104
            y       0.0921     -1.4525     -0.0470
            z       0.0029     -0.0401     -2.7729
-------------------------------------------------------------------------------
   60 O3    x      -1.3697      0.0156      0.1812
            y       0.0793     -1.3688      0.0211
            z       0.1384      0.0183     -2.6172
-------------------------------------------------------------------------------
   61 O1    x      -1.5118     -0.1138     -0.0008
            y      -0.1241     -1.4233     -0.0337
            z       0.0058     -0.0448     -2.7672
-------------------------------------------------------------------------------
   62 O1    x      -1.4885     -0.1255      0.0334
            y      -0.1373     -1.4528      0.0238
            z       0.0314      0.0276     -2.7310
-------------------------------------------------------------------------------
   63 O1    x      -1.4522      0.0281     -0.0855
            y       0.0906     -1.4432      0.0477
            z      -0.0608      0.0482     -2.7879
-------------------------------------------------------------------------------
   64 O3    x      -1.3411      0.0113      0.0722
            y       0.0839     -1.3892      0.1181
            z       0.0590      0.1253     -2.6313
-------------------------------------------------------------------------------
   65 O1    x      -1.3812      0.1857      0.0826
            y       0.2819     -3.1883      0.0514
            z       0.0296      0.0532     -1.3812
-------------------------------------------------------------------------------
   66 O1    x      -1.3789      0.1966     -0.0732
            y       0.2875     -3.1408     -0.0140
            z      -0.0217     -0.0165     -1.3774
-------------------------------------------------------------------------------
   67 O1    x      -1.3604      0.1655      0.0764
            y       0.2642     -3.1639     -0.0404
            z       0.0162      0.0018     -1.3957
-------------------------------------------------------------------------------
   68 O1    x      -1.3979      0.2042     -0.0731
            y       0.2725     -3.1721     -0.0978
            z      -0.0314     -0.0652     -1.3670
-------------------------------------------------------------------------------
   69 O1    x      -3.0557     -0.2887     -0.0420
            y      -0.1915     -1.6017     -0.0041
            z      -0.0521      0.0323     -1.2111
-------------------------------------------------------------------------------
   70 O1    x      -3.0313     -0.2696     -0.0623
            y      -0.1806     -1.5944     -0.0405
            z      -0.0416     -0.0770     -1.2258
-------------------------------------------------------------------------------
   71 O1    x      -3.0376     -0.2865      0.0295
            y      -0.1871     -1.5935     -0.0204
            z       0.0087     -0.0610     -1.2253
-------------------------------------------------------------------------------
   72 O1    x      -3.0465     -0.2711      0.0427
            y      -0.1755     -1.6083      0.0134
            z       0.0016      0.0493     -1.2064
-------------------------------------------------------------------------------




  Elastic Constant Matrix: (Units=GPa)

-------------------------------------------------------------------------------
  Indices      1         2         3         4         5         6    
-------------------------------------------------------------------------------
       1     32.3462   14.6622    9.3730    0.6813    0.5344   -7.2052
       2     14.6622   35.5946    7.4948    0.6006    0.5306   -6.2343
       3      9.3730    7.4948   11.3018    0.6510    0.3942   -1.8589
       4      0.6813    0.6006    0.6510    9.1514   -1.8693   -0.4323
       5      0.5344    0.5306    0.3942   -1.8693   18.0990    1.9396
       6     -7.2052   -6.2343   -1.8589   -0.4323    1.9396   19.9483
-------------------------------------------------------------------------------


  Elastic Compliance Matrix: (Units=1/GPa)

-------------------------------------------------------------------------------
  Indices      1         2         3         4         5         6    
-------------------------------------------------------------------------------
       1    0.047065 -0.011187 -0.029740 -0.000473 -0.001629  0.010880
       2   -0.011187  0.036773 -0.014009 -0.000527 -0.001167  0.006248
       3   -0.029740 -0.014009  0.122232 -0.006064 -0.001603 -0.003705
       4   -0.000473 -0.000527 -0.006064  0.112183  0.011706  0.000393
       5   -0.001629 -0.001167 -0.001603  0.011706  0.057265 -0.006416
       6    0.010880  0.006248 -0.003705  0.000393 -0.006416  0.056299
-------------------------------------------------------------------------------

  Mechanical properties :

-------------------------------------------------------------------------------
  Convention :                    Reuss         Voigt         Hill
-------------------------------------------------------------------------------
  Bulk  Modulus (GPa)     =      10.39538      15.81140      13.10339
  Shear Modulus (GPa)     =       8.71449      12.62059      10.66754
-------------------------------------------------------------------------------
  Velocity S-wave (km/s)  =       1.75995       2.11797       1.94720
  Velocity P-wave (km/s)  =       2.79728       3.40602       3.11655
-------------------------------------------------------------------------------
  Compressibility (1/GPa) =    0.09619657
-------------------------------------------------------------------------------
  Stress axis :                     x             y             z
-------------------------------------------------------------------------------
  Youngs Moduli (GPa)     =      21.24725      27.19402       8.18113
-------------------------------------------------------------------------------
  Poissons Ratio (x)      =                     0.30422       0.24331
  Poissons Ratio (y)      =       0.23770                     0.11461
  Poissons Ratio (z)      =       0.63190       0.38097
-------------------------------------------------------------------------------


  Piezoelectric Strain Matrix: (Units=C/m**2)

-------------------------------------------------------------------------------
  Indices      1         2         3         4         5         6    
-------------------------------------------------------------------------------
       x    -0.11157   0.31124   0.13814  -0.03323   0.05834   0.19527
       y     0.42978   0.29669   0.07600   0.00317   0.00450   0.25272
       z    -0.14541  -0.09547  -0.03233   0.18129  -0.52002   0.04355
-------------------------------------------------------------------------------


  Piezoelectric Stress Matrix: (Units=10**-11 C/N)

-------------------------------------------------------------------------------
  Indices      1         2         3         4         5         6    
-------------------------------------------------------------------------------
       x    -1.07959   1.19274   1.52278  -0.39168   0.12964   1.08250
       y     1.73888   0.66096  -0.86112  -0.03128  -0.24947   2.04484
       z    -0.35792  -0.06477   0.12825   1.45830  -2.75366   0.38009
-------------------------------------------------------------------------------


  Static dielectric constant tensor : 

-------------------------------------------------------------------------------
              x         y         z
-------------------------------------------------------------------------------
       x     5.35870   0.06407  -0.00846
       y     0.06407   6.49300   0.12965
       z    -0.00846   0.12965   4.14344
--------------------------------------------------------------------------------

  High frequency dielectric constant tensor : 

-------------------------------------------------------------------------------
              x         y         z
-------------------------------------------------------------------------------
       x     1.56399  -0.00315   0.00013
       y    -0.00315   1.56939   0.00126
       z     0.00013   0.00126   1.52715
-------------------------------------------------------------------------------

  Static refractive indices : 

-------------------------------------------------------------------------------
    1 =    2.03376      2 =    2.31415      3 =    2.55023
-------------------------------------------------------------------------------

  High frequency refractive indices : 

-------------------------------------------------------------------------------
    1 =    1.23576      2 =    1.25002      3 =    1.25334
-------------------------------------------------------------------------------


  Time to end of optimisation =       7.7375 seconds


  Peak dynamic memory used =       5.01 MB 


  Timing analysis for GULP :

--------------------------------------------------------------------------------
  Task / Subroutine                                          Time (Seconds)
--------------------------------------------------------------------------------
  Calculation of reciprocal space energy and derivatives          0.5285
  Calculation of real space energy and derivatives                5.4960
  Calculation of three-body energy and derivatives                0.0822
  Calculation and manipulation of Hessian matrix                  1.9054
  Calculation of matrix inversion                                 0.0347
  Global summation overhead                                       0.0001
--------------------------------------------------------------------------------
  Total CPU time                                                  7.7375
--------------------------------------------------------------------------------


  Dump file written as c01380.vasp.grs
  CIF file written as c01380.vasp.cif


  Job Finished at 15:50.04 31st October    2025                               

