********************************************************************************
*                       GENERAL UTILITY LATTICE PROGRAM                        *
*                                 Julian Gale                                  *
*                       Curtin Institute for Computation                       *
*                    School of Molecular and Life Sciences                     *
*                    Curtin University, Western Australia                      *
********************************************************************************
* Version = 6.1.2 * Last modified =   3rd November 2022                        *
********************************************************************************
*  optimise     - perform optimisation run                                     *
*  conp         - constant pressure calculation                                *
*  property     - calculate properties for final geometry                      *
********************************************************************************

  Job Started  at 11:29.27 31st October    2025                               

  Number of CPUs =     1


  Total number of configurations input =      1

********************************************************************************
*  Input for Configuration =   1 : POSCAR_N0011.vasp                           *
********************************************************************************

  Formula = Ge11Si13O48                                                 

  Number of irreducible atoms/shells =     120


  Total number atoms/shells =     120

  Dimensionality = 3               :  Bulk   



  Cartesian lattice vectors (Angstroms) :

       17.182800    0.000000    0.000000
        0.000000    7.513760    0.000000
        0.000000    0.000000   10.447700

  Cell parameters (Angstroms/Degrees):

  a =      17.1828    alpha =  90.0000
  b =       7.5138    beta  =  90.0000
  c =      10.4477    gamma =  90.0000

  Initial cell volume =        1348.875752 Angs**3

  Temperature of configuration =   0.00     K 

  Pressure of configuration =         0.000 GPa 

  Fractional coordinates of asymmetric unit :

--------------------------------------------------------------------------------
   No.  Atomic       x           y          z         Charge      Occupancy
        Label      (Frac)      (Frac)     (Frac)        (e)         (Frac)  
--------------------------------------------------------------------------------
      1 Ge    c    0.052090    0.000000    0.372270     4.00000    1.000000    
      2 Ge    c    0.447910 *  0.000000 *  0.372270 *   4.00000    1.000000    
      3 Ge    c    0.947910 *  0.000000 *  0.627730 *   4.00000    1.000000    
      4 Ge    c    0.552090 *  0.000000 *  0.627730 *   4.00000    1.000000    
      5 Ge    c    0.160190 *  0.293910 *  0.273440 *   4.00000    1.000000    
      6 Ge    c    0.839810 *  0.293910 *  0.726560 *   4.00000    1.000000    
      7 Ge    c    0.339810 *  0.293910 *  0.273440 *   4.00000    1.000000    
      8 Ge    c    0.839340 *  0.705910 *  0.017440 *   4.00000    1.000000    
      9 Ge    c    0.160660 *  0.705910 *  0.982560 *   4.00000    1.000000    
     10 Ge    c    0.339340 *  0.705910 *  0.982560 *   4.00000    1.000000    
     11 Ge    c    0.660660 *  0.705910 *  0.017440 *   4.00000    1.000000    
     12 Si    c    0.556730 *  0.000000 *  0.122130 *   4.00000    1.000000    
     13 Si    c    0.943270 *  0.000000 *  0.122130 *   4.00000    1.000000    
     14 Si    c    0.443270 *  0.000000 *  0.877870 *   4.00000    1.000000    
     15 Si    c    0.056730 *  0.000000 *  0.877870 *   4.00000    1.000000    
     16 Si    c    0.339810 *  0.706090 *  0.273440 *   4.00000    1.000000    
     17 Si    c    0.660190 *  0.706090 *  0.726560 *   4.00000    1.000000    
     18 Si    c    0.839810 *  0.706090 *  0.726560 *   4.00000    1.000000    
     19 Si    c    0.660190 *  0.293910 *  0.726560 *   4.00000    1.000000    
     20 Si    c    0.160190 *  0.706090 *  0.273440 *   4.00000    1.000000    
     21 Si    c    0.660660 *  0.294090 *  0.017440 *   4.00000    1.000000    
     22 Si    c    0.339340 *  0.294090 *  0.982560 *   4.00000    1.000000    
     23 Si    c    0.160660 *  0.294090 *  0.982560 *   4.00000    1.000000    
     24 Si    c    0.839340 *  0.294090 *  0.017440 *   4.00000    1.000000    
     25 O1    c    0.106570 *  0.174340 *  0.366200 *   1.73396    1.000000    
     26 O3    c    0.393430 *  0.825660 *  0.366200 *   1.33043    1.000000    
     27 O1    c    0.893430 *  0.174340 *  0.633800 *   1.73396    1.000000    
     28 O3    c    0.606570 *  0.825660 *  0.633800 *   1.33043    1.000000    
     29 O3    c    0.893430 *  0.825660 *  0.633800 *   1.33043    1.000000    
     30 O3    c    0.606570 *  0.174340 *  0.633800 *   1.33043    1.000000    
     31 O3    c    0.106570 *  0.825660 *  0.366200 *   1.33043    1.000000    
     32 O1    c    0.393430 *  0.174340 *  0.366200 *   1.73396    1.000000    
     33 O1    c    0.000000 *  0.000000 *  0.500000 *   1.73396    1.000000    
     34 O1    c    0.500000 *  0.000000 *  0.500000 *   1.73396    1.000000    
     35 O3    c    0.994520 *  0.000000 *  0.250840 *   1.33043    1.000000    
     36 O3    c    0.505480 *  0.000000 *  0.250840 *   1.33043    1.000000    
     37 O3    c    0.005480 *  0.000000 *  0.749160 *   1.33043    1.000000    
     38 O3    c    0.494520 *  0.000000 *  0.749160 *   1.33043    1.000000    
     39 O2    c    0.610230 *  0.175520 *  0.115390 *   0.87073    1.000000    
     40 O3    c    0.889770 *  0.824480 *  0.115390 *   1.33043    1.000000    
     41 O2    c    0.389770 *  0.175520 *  0.884610 *   0.87073    1.000000    
     42 O3    c    0.110230 *  0.824480 *  0.884610 *   1.33043    1.000000    
     43 O3    c    0.389770 *  0.824480 *  0.884610 *   1.33043    1.000000    
     44 O2    c    0.110230 *  0.175520 *  0.884610 *   0.87073    1.000000    
     45 O3    c    0.610230 *  0.824480 *  0.115390 *   1.33043    1.000000    
     46 O2    c    0.889770 *  0.175520 *  0.115390 *   0.87073    1.000000    
     47 O2    c    0.500000 *  0.000000 *  0.000000 *   0.87073    1.000000    
     48 O2    c    0.000000 *  0.000000 *  0.000000 *   0.87073    1.000000    
     49 O3    c    0.151750 *  0.500000 *  0.313330 *   1.33043    1.000000    
     50 O3    c    0.348250 *  0.500000 *  0.313330 *   1.33043    1.000000    
     51 O3    c    0.848250 *  0.500000 *  0.686670 *   1.33043    1.000000    
     52 O2    c    0.651750 *  0.500000 *  0.686670 *   0.87073    1.000000    
     53 O1    c    0.250000 *  0.234950 *  0.285720 *   1.73396    1.000000    
     54 O2    c    0.250000 *  0.765050 *  0.285720 *   0.87073    1.000000    
     55 O3    c    0.750000 *  0.234950 *  0.714280 *   1.33043    1.000000    
     56 O2    c    0.750000 *  0.765050 *  0.714280 *   0.87073    1.000000    
     57 O3    c    0.131410 *  0.268650 *  0.127790 *   1.33043    1.000000    
     58 O3    c    0.368590 *  0.731350 *  0.127790 *   1.33043    1.000000    
     59 O3    c    0.868590 *  0.268650 *  0.872210 *   1.33043    1.000000    
     60 O3    c    0.631410 *  0.731350 *  0.872210 *   1.33043    1.000000    
     61 O3    c    0.868590 *  0.731350 *  0.872210 *   1.33043    1.000000    
     62 O2    c    0.631410 *  0.268650 *  0.872210 *   0.87073    1.000000    
     63 O3    c    0.131410 *  0.731350 *  0.127790 *   1.33043    1.000000    
     64 O3    c    0.368590 *  0.268650 *  0.127790 *   1.33043    1.000000    
     65 O3    c    0.653920 *  0.500000 *  0.058200 *   1.33043    1.000000    
     66 O3    c    0.846080 *  0.500000 *  0.058200 *   1.33043    1.000000    
     67 O3    c    0.346080 *  0.500000 *  0.941800 *   1.33043    1.000000    
     68 O3    c    0.153920 *  0.500000 *  0.941800 *   1.33043    1.000000    
     69 O2    c    0.750000 *  0.231060 *  0.027050 *   0.87073    1.000000    
     70 O1    c    0.750000 *  0.768940 *  0.027050 *   1.73396    1.000000    
     71 O2    c    0.250000 *  0.231060 *  0.972950 *   0.87073    1.000000    
     72 O1    c    0.250000 *  0.768940 *  0.972950 *   1.73396    1.000000    
     73 O1    s    0.106570 *  0.174340 *  0.366200 *  -3.73396    1.000000    
     74 O3    s    0.393430 *  0.825660 *  0.366200 *  -3.33043    1.000000    
     75 O1    s    0.893430 *  0.174340 *  0.633800 *  -3.73396    1.000000    
     76 O3    s    0.606570 *  0.825660 *  0.633800 *  -3.33043    1.000000    
     77 O3    s    0.893430 *  0.825660 *  0.633800 *  -3.33043    1.000000    
     78 O3    s    0.606570 *  0.174340 *  0.633800 *  -3.33043    1.000000    
     79 O3    s    0.106570 *  0.825660 *  0.366200 *  -3.33043    1.000000    
     80 O1    s    0.393430 *  0.174340 *  0.366200 *  -3.73396    1.000000    
     81 O1    s    0.000000 *  0.000000 *  0.500000 *  -3.73396    1.000000    
     82 O1    s    0.500000 *  0.000000 *  0.500000 *  -3.73396    1.000000    
     83 O3    s    0.994520 *  0.000000 *  0.250840 *  -3.33043    1.000000    
     84 O3    s    0.505480 *  0.000000 *  0.250840 *  -3.33043    1.000000    
     85 O3    s    0.005480 *  0.000000 *  0.749160 *  -3.33043    1.000000    
     86 O3    s    0.494520 *  0.000000 *  0.749160 *  -3.33043    1.000000    
     87 O2    s    0.610230 *  0.175520 *  0.115390 *  -2.87073    1.000000    
     88 O3    s    0.889770 *  0.824480 *  0.115390 *  -3.33043    1.000000    
     89 O2    s    0.389770 *  0.175520 *  0.884610 *  -2.87073    1.000000    
     90 O3    s    0.110230 *  0.824480 *  0.884610 *  -3.33043    1.000000    
     91 O3    s    0.389770 *  0.824480 *  0.884610 *  -3.33043    1.000000    
     92 O2    s    0.110230 *  0.175520 *  0.884610 *  -2.87073    1.000000    
     93 O3    s    0.610230 *  0.824480 *  0.115390 *  -3.33043    1.000000    
     94 O2    s    0.889770 *  0.175520 *  0.115390 *  -2.87073    1.000000    
     95 O2    s    0.500000 *  0.000000 *  0.000000 *  -2.87073    1.000000    
     96 O2    s    0.000000 *  0.000000 *  0.000000 *  -2.87073    1.000000    
     97 O3    s    0.151750 *  0.500000 *  0.313330 *  -3.33043    1.000000    
     98 O3    s    0.348250 *  0.500000 *  0.313330 *  -3.33043    1.000000    
     99 O3    s    0.848250 *  0.500000 *  0.686670 *  -3.33043    1.000000    
    100 O2    s    0.651750 *  0.500000 *  0.686670 *  -2.87073    1.000000    
    101 O1    s    0.250000 *  0.234950 *  0.285720 *  -3.73396    1.000000    
    102 O2    s    0.250000 *  0.765050 *  0.285720 *  -2.87073    1.000000    
    103 O3    s    0.750000 *  0.234950 *  0.714280 *  -3.33043    1.000000    
    104 O2    s    0.750000 *  0.765050 *  0.714280 *  -2.87073    1.000000    
    105 O3    s    0.131410 *  0.268650 *  0.127790 *  -3.33043    1.000000    
    106 O3    s    0.368590 *  0.731350 *  0.127790 *  -3.33043    1.000000    
    107 O3    s    0.868590 *  0.268650 *  0.872210 *  -3.33043    1.000000    
    108 O3    s    0.631410 *  0.731350 *  0.872210 *  -3.33043    1.000000    
    109 O3    s    0.868590 *  0.731350 *  0.872210 *  -3.33043    1.000000    
    110 O2    s    0.631410 *  0.268650 *  0.872210 *  -2.87073    1.000000    
    111 O3    s    0.131410 *  0.731350 *  0.127790 *  -3.33043    1.000000    
    112 O3    s    0.368590 *  0.268650 *  0.127790 *  -3.33043    1.000000    
    113 O3    s    0.653920 *  0.500000 *  0.058200 *  -3.33043    1.000000    
    114 O3    s    0.846080 *  0.500000 *  0.058200 *  -3.33043    1.000000    
    115 O3    s    0.346080 *  0.500000 *  0.941800 *  -3.33043    1.000000    
    116 O3    s    0.153920 *  0.500000 *  0.941800 *  -3.33043    1.000000    
    117 O2    s    0.750000 *  0.231060 *  0.027050 *  -2.87073    1.000000    
    118 O1    s    0.750000 *  0.768940 *  0.027050 *  -3.73396    1.000000    
    119 O2    s    0.250000 *  0.231060 *  0.972950 *  -2.87073    1.000000    
    120 O1    s    0.250000 *  0.768940 *  0.972950 *  -3.73396    1.000000    
--------------------------------------------------------------------------------



********************************************************************************
*  General input information                                                   *
********************************************************************************

  Species output for all configurations : 

--------------------------------------------------------------------------------
  Species    Type    Atomic    Atomic    Charge       Radii (Angs)     Library
                     Number     Mass       (e)     Cova   Ionic  VDW   Symbol
--------------------------------------------------------------------------------
    Ge       Core       32      72.61   4.000000   1.170  0.000  1.750 Ge       
    Si       Core       14      28.09   4.000000   1.200  0.000  2.100 Si       
    O1       Core        8      16.00   1.733957   0.730  0.000  1.360 O1       
    O2       Core        8      16.00   0.870733   0.730  0.000  1.360 O2       
    O3       Core        8      16.00   1.330431   0.730  0.000  1.360 O3       
    O1       Shell       8       0.00  -3.733957   0.730  0.000  0.000 O1       
    O2       Shell       8       0.00  -2.870733   0.730  0.000  0.000 O2       
    O3       Shell       8       0.00  -3.330431   0.730  0.000  0.000 O3       
--------------------------------------------------------------------------------


  Lattice summation method               =    Ewald          (3-D)
                                         =    Parry          (2-D)
                                         =    Saunders et al (1-D)
  Accuracy factor for lattice sums       =   12.000


  Analytic derivatives to be used

  Time limit = Infinity

  Maximum range for interatomic potentials =    100000.000000 Angstroms

  General interatomic potentials :

--------------------------------------------------------------------------------
Atom  Types   Potential      Parameter       Value         Units   Cutoffs(Ang)
  1     2                                                            Min /  Max 
--------------------------------------------------------------------------------
Si   c O1   s Buckingham    Buckingham A     1315.2478    eV        0.000 16.000
                            Buckingham rho  0.31775900    Ang       
                            Buckingham C     10.141118    eV*Ang^6  
--------------------------------------------------------------------------------
Si   c O2   s Buckingham    Buckingham A     1315.2478    eV        0.000 16.000
                            Buckingham rho  0.31775900    Ang       
                            Buckingham C     10.141118    eV*Ang^6  
--------------------------------------------------------------------------------
Si   c O3   s Buckingham    Buckingham A     1315.2478    eV        0.000 16.000
                            Buckingham rho  0.31775900    Ang       
                            Buckingham C     10.141118    eV*Ang^6  
--------------------------------------------------------------------------------
Ge   c O1   s Buckingham    Buckingham A     1497.3996    eV        0.000 16.000
                            Buckingham rho  0.32564600    Ang       
                            Buckingham C     16.808599    eV*Ang^6  
--------------------------------------------------------------------------------
Ge   c O2   s Buckingham    Buckingham A     1497.3996    eV        0.000 16.000
                            Buckingham rho  0.32564600    Ang       
                            Buckingham C     16.808599    eV*Ang^6  
--------------------------------------------------------------------------------
Ge   c O3   s Buckingham    Buckingham A     1497.3996    eV        0.000 16.000
                            Buckingham rho  0.32564600    Ang       
                            Buckingham C     16.808599    eV*Ang^6  
--------------------------------------------------------------------------------
O1   s O1   s Buckingham    Buckingham A     22764.000    eV        0.000 16.000
                            Buckingham rho  0.14900000    Ang       
                            Buckingham C     10.937044    eV*Ang^6  
--------------------------------------------------------------------------------
O1   s O2   s Buckingham    Buckingham A     22764.000    eV        0.000 16.000
                            Buckingham rho  0.14900000    Ang       
                            Buckingham C     10.937044    eV*Ang^6  
--------------------------------------------------------------------------------
O1   s O3   s Buckingham    Buckingham A     22764.000    eV        0.000 16.000
                            Buckingham rho  0.14900000    Ang       
                            Buckingham C     10.937044    eV*Ang^6  
--------------------------------------------------------------------------------
O2   s O2   s Buckingham    Buckingham A     22764.000    eV        0.000 16.000
                            Buckingham rho  0.14900000    Ang       
                            Buckingham C     10.937044    eV*Ang^6  
--------------------------------------------------------------------------------
O2   s O3   s Buckingham    Buckingham A     22764.000    eV        0.000 16.000
                            Buckingham rho  0.14900000    Ang       
                            Buckingham C     10.937044    eV*Ang^6  
--------------------------------------------------------------------------------
O3   s O3   s Buckingham    Buckingham A     22764.000    eV        0.000 16.000
                            Buckingham rho  0.14900000    Ang       
                            Buckingham C     10.937044    eV*Ang^6  
--------------------------------------------------------------------------------
O1   c O1   s Spring (c-s)  Spring k 2       180.31577    eV*Ang^-2 0.000  0.800
                            Spring k 4       0.0000000    eV*Ang^-4 
--------------------------------------------------------------------------------
O2   c O2   s Spring (c-s)  Spring k 2       75.969800    eV*Ang^-2 0.000  0.800
                            Spring k 4       0.0000000    eV*Ang^-4 
--------------------------------------------------------------------------------
O3   c O3   s Spring (c-s)  Spring k 2       128.14270    eV*Ang^-2 0.000  0.800
                            Spring k 4       0.0000000    eV*Ang^-4 
--------------------------------------------------------------------------------

  General Three-body potentials :

--------------------------------------------------------------------------------
  Atoms       Potential      Parameter       Value         Units   Cutoffs(Ang)
  1 / 2 / 3                                                          Min /  Max 
--------------------------------------------------------------------------------
Si    core    Harmonic      Three-body cnst  1.2614000    eV*rad^-2 0.000  1.900
O1    shel                  Three-body angl  109.47000    degrees   0.000  1.900
O1    shel                  Three-body k4    0.0000000    eV*rad^-4 0.000  3.500
                            Three-body k3    0.0000000    eV*rad^-3 
--------------------------------------------------------------------------------
Si    core    Harmonic      Three-body cnst  1.2614000    eV*rad^-2 0.000  1.900
O1    shel                  Three-body angl  109.47000    degrees   0.000  1.900
õ(1   shel                  Three-body k4    0.0000000    eV*rad^-4 0.000  3.500
                            Three-body k3    0.0000000    eV*rad^-3 
--------------------------------------------------------------------------------
Si    core    Harmonic      Three-body cnst  1.2614000    eV*rad^-2 0.000  1.900
õ(1   shel                  Three-body angl  109.47000    degrees   0.000  1.900
õ(1   shel                  Three-body k4    0.0000000    eV*rad^-4 0.000  3.500
                            Three-body k3    0.0000000    eV*rad^-3 
--------------------------------------------------------------------------------
Si    core    Harmonic      Three-body cnst  1.2614000    eV*rad^-2 0.000  1.900
O1    shel                  Three-body angl  109.47000    degrees   0.000  1.900
O2    shel                  Three-body k4    0.0000000    eV*rad^-4 0.000  3.500
                            Three-body k3    0.0000000    eV*rad^-3 
--------------------------------------------------------------------------------
Si    core    Harmonic      Three-body cnst  1.2614000    eV*rad^-2 0.000  1.900
O1    shel                  Three-body angl  109.47000    degrees   0.000  1.900
õ(2   shel                  Three-body k4    0.0000000    eV*rad^-4 0.000  3.500
                            Three-body k3    0.0000000    eV*rad^-3 
--------------------------------------------------------------------------------
Si    core    Harmonic      Three-body cnst  1.2614000    eV*rad^-2 0.000  1.900
O2    shel                  Three-body angl  109.47000    degrees   0.000  1.900
õ(1   shel                  Three-body k4    0.0000000    eV*rad^-4 0.000  3.500
                            Three-body k3    0.0000000    eV*rad^-3 
--------------------------------------------------------------------------------
Si    core    Harmonic      Three-body cnst  1.2614000    eV*rad^-2 0.000  1.900
õ(1   shel                  Three-body angl  109.47000    degrees   0.000  1.900
õ(2   shel                  Three-body k4    0.0000000    eV*rad^-4 0.000  3.500
                            Three-body k3    0.0000000    eV*rad^-3 
--------------------------------------------------------------------------------
Si    core    Harmonic      Three-body cnst  1.2614000    eV*rad^-2 0.000  1.900
O2    shel                  Three-body angl  109.47000    degrees   0.000  1.900
O2    shel                  Three-body k4    0.0000000    eV*rad^-4 0.000  3.500
                            Three-body k3    0.0000000    eV*rad^-3 
--------------------------------------------------------------------------------
Si    core    Harmonic      Three-body cnst  1.2614000    eV*rad^-2 0.000  1.900
O2    shel                  Three-body angl  109.47000    degrees   0.000  1.900
õ(2   shel                  Three-body k4    0.0000000    eV*rad^-4 0.000  3.500
                            Three-body k3    0.0000000    eV*rad^-3 
--------------------------------------------------------------------------------
Si    core    Harmonic      Three-body cnst  1.2614000    eV*rad^-2 0.000  1.900
õ(2   shel                  Three-body angl  109.47000    degrees   0.000  1.900
õ(2   shel                  Three-body k4    0.0000000    eV*rad^-4 0.000  3.500
                            Three-body k3    0.0000000    eV*rad^-3 
--------------------------------------------------------------------------------

********************************************************************************
*  Output for configuration   1 : POSCAR_N0011.vasp                            *
********************************************************************************


  Components of energy : 

--------------------------------------------------------------------------------
  Interatomic potentials     =         824.39366738 eV    
  Three-body potentials      =           0.00354458 eV    
  Monopole - monopole (real) =       -2676.00317478 eV    
  Monopole - monopole (recip)=       -1115.35404472 eV    
  Monopole - monopole (total)=       -3791.35721950 eV    
--------------------------------------------------------------------------------
  Total lattice energy       =       -2966.96000754 eV    
--------------------------------------------------------------------------------
  Total lattice energy       =         -286266.2866 kJ/(mole unit cells)
--------------------------------------------------------------------------------


  Number of variables =      363

  Maximum number of calculations  =          1000
  Maximum Hessian update interval =            10
  Maximum step size               =   0.100000000
  Maximum parameter tolerance     =   0.000010000
  Maximum function  tolerance     =   0.000010000
  Maximum gradient  tolerance     =   0.001000000
  Maximum gradient  component     =   0.010000000

  Symmetry not applied to optimisation

  Cell parameters to be optimised using strains

  Newton-Raphson optimiser to be used

  BFGS hessian update to be used

  Lower half triangular hessian to be used

  Minimiser to switch to RFO
  When gradient norm is less than     0.050000

  Dumpfile to be written after every cycle

  Start of bulk optimisation :

  Cycle:      0 Energy:     -2966.960008  Gnorm:      5.097791  CPU:    0.083
  ** Hessian calculated **
  Cycle:      1 Energy:     -3002.337808  Gnorm:      1.193686  CPU:    0.174
  ** Hessian calculated **
  Cycle:      2 Energy:     -3005.811383  Gnorm:      0.684548  CPU:    0.315
  Cycle:      3 Energy:     -3007.141322  Gnorm:      0.471981  CPU:    0.386
  Cycle:      4 Energy:     -3008.747788  Gnorm:      0.393272  CPU:    0.471
  Cycle:      5 Energy:     -3010.353923  Gnorm:      0.301693  CPU:    0.557
  Cycle:      6 Energy:     -3011.098428  Gnorm:      0.234075  CPU:    0.631
  Cycle:      7 Energy:     -3011.435224  Gnorm:      0.158318  CPU:    0.704
  Cycle:      8 Energy:     -3011.569904  Gnorm:      0.098665  CPU:    0.779
  Cycle:      9 Energy:     -3011.631284  Gnorm:      0.070807  CPU:    0.869
  Cycle:     10 Energy:     -3011.671037  Gnorm:      0.062458  CPU:    0.959
  Cycle:     11 Energy:     -3011.720552  Gnorm:      0.069817  CPU:    1.050
  ** Hessian calculated **
  Cycle:     12 Energy:     -3011.736779  Gnorm:      0.058433  CPU:    1.212
  Cycle:     13 Energy:     -3011.758459  Gnorm:      0.053349  CPU:    1.303
  Cycle:     14 Energy:     -3011.793516  Gnorm:      0.053829  CPU:    1.408
  Cycle:     15 Energy:     -3011.833524  Gnorm:      0.051299  CPU:    1.500
  Cycle:     16 Energy:     -3011.879510  Gnorm:      0.053387  CPU:    1.593
  Cycle:     17 Energy:     -3011.927094  Gnorm:      0.059042  CPU:    1.684
  Cycle:     18 Energy:     -3011.951335  Gnorm:      0.057124  CPU:    1.760
  Cycle:     19 Energy:     -3011.975017  Gnorm:      0.060630  CPU:    1.850
  Cycle:     20 Energy:     -3011.999356  Gnorm:      0.057276  CPU:    1.942
  Cycle:     21 Energy:     -3012.028780  Gnorm:      0.060378  CPU:    2.034
  ** Hessian calculated **
  Cycle:     22 Energy:     -3012.051715  Gnorm:      0.059620  CPU:    2.197
  Cycle:     23 Energy:     -3012.089389  Gnorm:      0.058300  CPU:    2.299
  Cycle:     24 Energy:     -3012.143027  Gnorm:      0.056230  CPU:    2.404
  Cycle:     25 Energy:     -3012.198312  Gnorm:      0.053823  CPU:    2.495
  Cycle:     26 Energy:     -3012.256084  Gnorm:      0.051735  CPU:    2.600
  ** Hessian calculated **
  Cycle:     27 Energy:     -3012.263446  Gnorm:      0.043421  CPU:    2.763
  ** Hessian has required structure
  Cycle:     28 Energy:     -3012.276729  Gnorm:      0.053253  CPU:    2.901
  ** Hessian has required structure
  Cycle:     29 Energy:     -3012.288654  Gnorm:      0.054628  CPU:    3.025
  ** Hessian has required structure
  Cycle:     30 Energy:     -3012.294009  Gnorm:      0.064758  CPU:    3.134
  ** Hessian has required structure
  Cycle:     31 Energy:     -3012.298020  Gnorm:      0.056681  CPU:    3.239
  ** Hessian has required structure
  Cycle:     32 Energy:     -3012.303556  Gnorm:      0.063733  CPU:    3.359
  ** Hessian has required structure
  Cycle:     33 Energy:     -3012.308949  Gnorm:      0.053381  CPU:    3.467
  ** Hessian has required structure
  Cycle:     34 Energy:     -3012.310756  Gnorm:      0.060464  CPU:    3.573
  ** Hessian has required structure
  Cycle:     35 Energy:     -3012.313270  Gnorm:      0.066931  CPU:    3.693
  ** Hessian has required structure
  Cycle:     36 Energy:     -3012.320132  Gnorm:      0.081665  CPU:    3.812
  ** Hessian has wrong structure
  ** Imaginary eigenvectors =   4
  ** Hessian has wrong structure
  ** Imaginary eigenvectors =   4
  Cycle:     37 Energy:     -3012.355468  Gnorm:      0.085812  CPU:    4.229
  ** Hessian has wrong structure
  ** Imaginary eigenvectors =   3
  ** Hessian has wrong structure
  ** Imaginary eigenvectors =   2
  Cycle:     38 Energy:     -3012.365869  Gnorm:      0.093892  CPU:    4.581
  ** Hessian has required structure
  Cycle:     39 Energy:     -3012.614472  Gnorm:      0.071957  CPU:    4.776
  ** Hessian has required structure
  Cycle:     40 Energy:     -3012.714113  Gnorm:      0.046303  CPU:    4.894
  ** Hessian has required structure
  Cycle:     41 Energy:     -3012.747339  Gnorm:      0.042933  CPU:    5.019
  ** Hessian has required structure
  Cycle:     42 Energy:     -3012.785301  Gnorm:      0.043446  CPU:    5.130
  ** Hessian has required structure
  Cycle:     43 Energy:     -3012.812694  Gnorm:      0.031905  CPU:    5.255
  ** Hessian has required structure
  Cycle:     44 Energy:     -3012.834914  Gnorm:      0.042879  CPU:    5.379
  ** Hessian has required structure
  Cycle:     45 Energy:     -3012.848536  Gnorm:      0.036149  CPU:    5.503
  ** Hessian has required structure
  Cycle:     46 Energy:     -3012.864181  Gnorm:      0.033810  CPU:    5.627
  ** Hessian has required structure
  Cycle:     47 Energy:     -3012.878731  Gnorm:      0.021057  CPU:    5.751
  ** Hessian has required structure
  Cycle:     48 Energy:     -3012.888781  Gnorm:      0.023577  CPU:    5.874
  ** Hessian has required structure
  Cycle:     49 Energy:     -3012.910532  Gnorm:      0.025659  CPU:    6.064
  ** Hessian has required structure
  Cycle:     50 Energy:     -3012.923613  Gnorm:      0.022397  CPU:    6.187
  ** Hessian has required structure
  Cycle:     51 Energy:     -3012.932683  Gnorm:      0.015331  CPU:    6.311
  ** Hessian has required structure
  Cycle:     52 Energy:     -3012.941154  Gnorm:      0.018488  CPU:    6.449
  ** Hessian has required structure
  Cycle:     53 Energy:     -3012.949624  Gnorm:      0.013727  CPU:    6.576
  ** Hessian has required structure
  Cycle:     54 Energy:     -3012.956633  Gnorm:      0.017951  CPU:    6.717
  ** Hessian has required structure
  Cycle:     55 Energy:     -3012.962513  Gnorm:      0.015390  CPU:    6.842
  ** Hessian has required structure
  Cycle:     56 Energy:     -3012.968579  Gnorm:      0.011844  CPU:    6.980
  ** Hessian has required structure
  Cycle:     57 Energy:     -3012.972602  Gnorm:      0.010966  CPU:    7.105
  ** Hessian has required structure
  Cycle:     58 Energy:     -3012.975906  Gnorm:      0.007418  CPU:    7.229
  ** Hessian has required structure
  Cycle:     59 Energy:     -3012.979438  Gnorm:      0.007993  CPU:    7.432
  ** Hessian has required structure
  Cycle:     60 Energy:     -3012.983077  Gnorm:      0.014020  CPU:    7.566
  ** Hessian has required structure
  Cycle:     61 Energy:     -3012.985974  Gnorm:      0.012567  CPU:    7.690
  ** Hessian has required structure
  Cycle:     62 Energy:     -3012.988638  Gnorm:      0.008479  CPU:    7.817
  ** Hessian has required structure
  Cycle:     63 Energy:     -3012.990522  Gnorm:      0.009114  CPU:    7.945
  ** Hessian has required structure
  Cycle:     64 Energy:     -3012.993010  Gnorm:      0.006899  CPU:    8.075
  ** Hessian has required structure
  Cycle:     65 Energy:     -3012.994278  Gnorm:      0.004290  CPU:    8.191
  ** Hessian has required structure
  Cycle:     66 Energy:     -3012.995322  Gnorm:      0.005504  CPU:    8.319
  ** Hessian has required structure
  Cycle:     67 Energy:     -3012.996184  Gnorm:      0.003540  CPU:    8.436
  ** Hessian has required structure
  Cycle:     68 Energy:     -3012.996944  Gnorm:      0.003873  CPU:    8.566
  ** Hessian has required structure
  Cycle:     69 Energy:     -3012.998622  Gnorm:      0.004873  CPU:    8.758
  ** Hessian has required structure
  Cycle:     70 Energy:     -3013.000139  Gnorm:      0.009312  CPU:    8.874
  ** Hessian has required structure
  Cycle:     71 Energy:     -3013.001989  Gnorm:      0.012155  CPU:    8.989
  ** Hessian has required structure
  Cycle:     72 Energy:     -3013.006237  Gnorm:      0.013678  CPU:    9.119
  ** Hessian has required structure
  Cycle:     73 Energy:     -3013.012725  Gnorm:      0.018235  CPU:    9.248
  ** Hessian has required structure
  Cycle:     74 Energy:     -3013.023500  Gnorm:      0.022790  CPU:    9.363
  ** Hessian has required structure
  Cycle:     75 Energy:     -3013.029925  Gnorm:      0.026275  CPU:    9.466
  ** Hessian has required structure
  Cycle:     76 Energy:     -3013.040639  Gnorm:      0.020288  CPU:    9.581
  ** Hessian has required structure
  Cycle:     77 Energy:     -3013.047430  Gnorm:      0.020388  CPU:    9.698
  ** Hessian has required structure
  Cycle:     78 Energy:     -3013.050140  Gnorm:      0.015133  CPU:    9.800
  ** Hessian has required structure
  Cycle:     79 Energy:     -3013.055867  Gnorm:      0.011737  CPU:    9.993
  ** Hessian has required structure
  Cycle:     80 Energy:     -3013.060246  Gnorm:      0.008480  CPU:   10.109
  ** Hessian has required structure
  Cycle:     81 Energy:     -3013.062113  Gnorm:      0.004342  CPU:   10.224
  ** Hessian has required structure
  Cycle:     82 Energy:     -3013.063005  Gnorm:      0.004544  CPU:   10.353
  ** Hessian has required structure
  Cycle:     83 Energy:     -3013.063371  Gnorm:      0.002154  CPU:   10.469
  ** Hessian has required structure
  Cycle:     84 Energy:     -3013.063509  Gnorm:      0.001579  CPU:   10.598
  ** Hessian has required structure
  Cycle:     85 Energy:     -3013.063566  Gnorm:      0.000882  CPU:   10.727
  ** Hessian has required structure
  Cycle:     86 Energy:     -3013.063585  Gnorm:      0.000618  CPU:   10.843
  ** Hessian has required structure
  Cycle:     87 Energy:     -3013.063596  Gnorm:      0.000263  CPU:   10.971
  ** Hessian has required structure
  Cycle:     88 Energy:     -3013.063598  Gnorm:      0.000206  CPU:   11.074
  ** Hessian has required structure
  Cycle:     89 Energy:     -3013.063599  Gnorm:      0.000144  CPU:   11.242
  ** Hessian has required structure
  Cycle:     90 Energy:     -3013.063600  Gnorm:      0.000101  CPU:   11.344
  ** Hessian has required structure


  **** Optimisation achieved ****


  Final energy =   -3013.06360033 eV      
  Final Gnorm  =       0.00007099

  Components of energy : 

--------------------------------------------------------------------------------
  Interatomic potentials     =         803.25640750 eV    
  Three-body potentials      =           0.02598100 eV    
  Monopole - monopole (real) =       -1915.11937571 eV    
  Monopole - monopole (recip)=       -1901.22661313 eV    
  Monopole - monopole (total)=       -3816.34598884 eV    
--------------------------------------------------------------------------------
  Total lattice energy       =       -3013.06360033 eV    
--------------------------------------------------------------------------------
  Total lattice energy       =         -290714.5785 kJ/(mole unit cells)
--------------------------------------------------------------------------------

  Final fractional coordinates of atoms :

--------------------------------------------------------------------------------
   No.  Atomic        x           y          z          Radius
        Label       (Frac)      (Frac)     (Frac)       (Angs) 
--------------------------------------------------------------------------------
     1  Ge    c     0.052090    0.000000    0.372270    0.000000
     2  Ge    c     0.452667    0.009808    0.366732    0.000000
     3  Ge    c     0.951249    0.005033    0.635985    0.000000
     4  Ge    c     0.551178    0.987230    0.634506    0.000000
     5  Ge    c     0.160537    0.311832    0.316529    0.000000
     6  Ge    c     0.845671    0.314455    0.717522    0.000000
     7  Ge    c     0.345220    0.317976    0.310737    0.000000
     8  Ge    c     0.835935    0.674653    0.059271    0.000000
     9  Ge    c     0.154618    0.654557    0.969384    0.000000
    10  Ge    c     0.342549    0.662504    0.964299    0.000000
    11  Ge    c     0.653184    0.649920    0.055854    0.000000
    12  Si    c     0.554754    0.965548    0.108713    0.000000
    13  Si    c     0.944730    0.979444    0.117619    0.000000
    14  Si    c     0.439926    0.972076    0.873143    0.000000
    15  Si    c     0.057793    0.960876    0.881036    0.000000
    16  Si    c     0.343071    0.710764    0.265962    0.000000
    17  Si    c     0.656670    0.685909    0.747775    0.000000
    18  Si    c     0.832419    0.718895    0.751562    0.000000
    19  Si    c     0.663973    0.287348    0.717551    0.000000
    20  Si    c     0.159491    0.703660    0.270936    0.000000
    21  Si    c     0.664099    0.254797    0.017184    0.000000
    22  Si    c     0.339703    0.264708    0.004125    0.000000
    23  Si    c     0.160699    0.257307    0.009547    0.000000
    24  Si    c     0.844915    0.278012    0.020864    0.000000
    25  O1    c     0.098850    0.191154    0.408629    0.000000
    26  O3    c     0.377679    0.858859    0.356883    0.000000
    27  O1    c     0.909268    0.204216    0.622794    0.000000
    28  O3    c     0.598763    0.800780    0.669686    0.000000
    29  O3    c     0.878916    0.862500    0.675850    0.000000
    30  O3    c     0.610826    0.167693    0.627668    0.000000
    31  O3    c     0.125180    0.849018    0.363150    0.000000
    32  O1    c     0.408089    0.201702    0.400557    0.000000
    33  O1    c     0.986743    0.945132    0.487136    0.000000
    34  O1    c     0.517230    0.954312    0.480533    0.000000
    35  O3    c     0.006735    0.021813    0.225021    0.000000
    36  O3    c     0.499637    0.031082    0.219987    0.000000
    37  O3    c     0.028454    0.011208    0.740769    0.000000
    38  O3    c     0.472929    0.022875    0.734318    0.000000
    39  O2    c     0.628165    0.097033    0.096617    0.000000
    40  O3    c     0.896174    0.807759    0.150406    0.000000
    41  O2    c     0.378688    0.115005    0.918641    0.000000
    42  O3    c     0.096820    0.774072    0.869936    0.000000
    43  O3    c     0.397903    0.786315    0.861333    0.000000
    44  O2    c     0.120549    0.102852    0.928526    0.000000
    45  O3    c     0.587567    0.777168    0.139246    0.000000
    46  O2    c     0.886035    0.139798    0.110563    0.000000
    47  O2    c     0.511395    0.962695    0.971085    0.000000
    48  O2    c     0.985047    0.950991    0.977676    0.000000
    49  O3    c     0.124971    0.518574    0.310705    0.000000
    50  O3    c     0.379168    0.527969    0.302620    0.000000
    51  O3    c     0.868155    0.531581    0.720852    0.000000
    52  O2    c     0.635021    0.484525    0.719684    0.000000
    53  O1    c     0.253345    0.303188    0.371359    0.000000
    54  O2    c     0.251464    0.679512    0.284021    0.000000
    55  O3    c     0.751486    0.280578    0.669091    0.000000
    56  O2    c     0.744297    0.719830    0.700051    0.000000
    57  O3    c     0.156929    0.219919    0.160889    0.000000
    58  O3    c     0.358120    0.755201    0.116656    0.000000
    59  O3    c     0.858457    0.231113    0.871323    0.000000
    60  O3    c     0.652196    0.726615    0.899624    0.000000
    61  O3    c     0.832250    0.755848    0.904455    0.000000
    62  O2    c     0.656807    0.213008    0.863535    0.000000
    63  O3    c     0.141743    0.745765    0.122525    0.000000
    64  O3    c     0.346560    0.226143    0.155004    0.000000
    65  O3    c     0.624117    0.434480    0.055778    0.000000
    66  O3    c     0.875124    0.470019    0.055057    0.000000
    67  O3    c     0.374765    0.451655    0.969280    0.000000
    68  O3    c     0.123770    0.440772    0.975391    0.000000
    69  O2    c     0.753679    0.280273    0.052785    0.000000
    70  O1    c     0.743940    0.672475    0.119146    0.000000
    71  O2    c     0.249739    0.272774    0.965329    0.000000
    72  O1    c     0.248191    0.670181    0.919082    0.000000
    73  O1    s     0.100012    0.186029    0.399014    0.000000
    74  O3    s     0.379830    0.855014    0.348095    0.000000
    75  O1    s     0.907392    0.198180    0.631152    0.000000
    76  O3    s     0.600919    0.804348    0.675095    0.000000
    77  O3    s     0.880103    0.859283    0.680603    0.000000
    78  O3    s     0.611542    0.165653    0.637508    0.000000
    79  O3    s     0.123097    0.845550    0.354166    0.000000
    80  O1    s     0.406664    0.196156    0.391241    0.000000
    81  O1    s     0.989305    0.954211    0.489341    0.000000
    82  O1    s     0.514543    0.961514    0.483223    0.000000
    83  O3    s     0.003718    0.015384    0.225508    0.000000
    84  O3    s     0.501800    0.022211    0.219902    0.000000
    85  O3    s     0.025156    0.005597    0.746556    0.000000
    86  O3    s     0.475928    0.014895    0.740214    0.000000
    87  O2    s     0.624711    0.101045    0.089051    0.000000
    88  O3    s     0.896064    0.813650    0.140053    0.000000
    89  O2    s     0.381003    0.116133    0.923263    0.000000
    90  O3    s     0.097691    0.782342    0.878945    0.000000
    91  O3    s     0.397511    0.794151    0.870682    0.000000
    92  O2    s     0.118224    0.104653    0.932460    0.000000
    93  O3    s     0.589541    0.785045    0.129913    0.000000
    94  O2    s     0.887628    0.138314    0.101423    0.000000
    95  O2    s     0.508328    0.964057    0.975255    0.000000
    96  O2    s     0.988564    0.954997    0.981993    0.000000
    97  O3    s     0.131149    0.519901    0.307353    0.000000
    98  O3    s     0.372983    0.528770    0.299763    0.000000
    99  O3    s     0.862904    0.531753    0.723495    0.000000
   100  O2    s     0.640327    0.484461    0.722361    0.000000
   101  O1    s     0.253203    0.304984    0.362685    0.000000
   102  O2    s     0.251422    0.685021    0.280740    0.000000
   103  O3    s     0.750413    0.283968    0.677712    0.000000
   104  O2    s     0.744237    0.716219    0.710191    0.000000
   105  O3    s     0.157563    0.230532    0.157551    0.000000
   106  O3    s     0.355505    0.743838    0.119324    0.000000
   107  O3    s     0.856162    0.242101    0.874329    0.000000
   108  O3    s     0.652722    0.716366    0.896867    0.000000
   109  O3    s     0.832570    0.745681    0.901635    0.000000
   110  O2    s     0.658270    0.224782    0.864720    0.000000
   111  O3    s     0.144442    0.734636    0.125051    0.000000
   112  O3    s     0.345790    0.236859    0.151768    0.000000
   113  O3    s     0.630199    0.433911    0.052130    0.000000
   114  O3    s     0.869106    0.467420    0.052087    0.000000
   115  O3    s     0.368909    0.450260    0.972171    0.000000
   116  O3    s     0.129659    0.439983    0.978109    0.000000
   117  O2    s     0.753556    0.277484    0.045562    0.000000
   118  O1    s     0.744067    0.670937    0.109864    0.000000
   119  O2    s     0.249794    0.270457    0.974017    0.000000
   120  O1    s     0.248276    0.668327    0.926497    0.000000
--------------------------------------------------------------------------------

  Final Cartesian lattice vectors (Angstroms) :

       17.370614   -0.110991    0.019591
       -0.050212    7.733727   -0.067631
        0.012654   -0.092006   10.307955


  Final cell parameters and derivatives :

--------------------------------------------------------------------------------
       a           17.370980 Angstrom     dE/de1(xx)     0.006072 eV/strain
       b            7.734185 Angstrom     dE/de2(yy)     0.007033 eV/strain
       c           10.308373 Angstrom     dE/de3(zz)     0.005141 eV/strain
       alpha       91.012867 Degrees      dE/de4(yz)    -0.000791 eV/strain
       beta        89.861785 Degrees      dE/de5(xz)    -0.000106 eV/strain
       gamma       90.738617 Degrees      dE/de6(xy)    -0.000393 eV/strain
--------------------------------------------------------------------------------

  Primitive cell volume =          1384.599044 Angs**3

  Density of cell =      2.316926 g/cm**3

  Non-primitive cell volume =          1384.599044 Angs**3


  Final internal derivatives :

--------------------------------------------------------------------------------
   No.  Atomic          a             b             c           Radius
        Label          (eV)          (eV)          (eV)        (eV/Angs)
--------------------------------------------------------------------------------
      1 Ge    c       0.000000      0.000000      0.000000      0.000000
      2 Ge    c      -0.004035      0.000425     -0.000225      0.000000
      3 Ge    c      -0.000780     -0.000636     -0.000629      0.000000
      4 Ge    c       0.000050     -0.000085      0.000220      0.000000
      5 Ge    c      -0.000644     -0.000912     -0.000307      0.000000
      6 Ge    c      -0.000041     -0.000199      0.000531      0.000000
      7 Ge    c       0.000393     -0.001120     -0.000378      0.000000
      8 Ge    c       0.000296      0.000067      0.000124      0.000000
      9 Ge    c       0.000710      0.000368     -0.000058      0.000000
     10 Ge    c      -0.000672      0.000160     -0.000480      0.000000
     11 Ge    c      -0.000047      0.000536     -0.000099      0.000000
     12 Si    c       0.000389     -0.000464     -0.001119      0.000000
     13 Si    c       0.000895     -0.000350     -0.002364      0.000000
     14 Si    c       0.000464      0.000354     -0.000452      0.000000
     15 Si    c       0.000450      0.000721      0.000544      0.000000
     16 Si    c       0.001060      0.000939      0.000558      0.000000
     17 Si    c       0.000035      0.000427      0.000221      0.000000
     18 Si    c      -0.000006      0.000157      0.001089      0.000000
     19 Si    c      -0.000420     -0.000677      0.000161      0.000000
     20 Si    c      -0.000515     -0.000020     -0.001570      0.000000
     21 Si    c      -0.000643      0.000007     -0.000423      0.000000
     22 Si    c      -0.003118     -0.000690     -0.000611      0.000000
     23 Si    c       0.003224     -0.001205     -0.001219      0.000000
     24 Si    c       0.001765      0.000536     -0.002217      0.000000
     25 O1    c       0.001357      0.000972      0.000388      0.000000
     26 O3    c       0.000202     -0.000174      0.000272      0.000000
     27 O1    c      -0.002376      0.002783     -0.001424      0.000000
     28 O3    c       0.000548     -0.000585      0.000105      0.000000
     29 O3    c      -0.001631     -0.000011      0.000028      0.000000
     30 O3    c       0.000873      0.001113     -0.000739      0.000000
     31 O3    c       0.001954      0.001026      0.002517      0.000000
     32 O1    c       0.000037      0.000165     -0.000099      0.000000
     33 O1    c      -0.008579     -0.002564      0.005724      0.000000
     34 O1    c       0.003766     -0.001257      0.001915      0.000000
     35 O3    c       0.003340      0.001169      0.002141      0.000000
     36 O3    c       0.001331      0.000842     -0.000343      0.000000
     37 O3    c       0.007207      0.000256      0.003497      0.000000
     38 O3    c      -0.002535     -0.000215      0.001280      0.000000
     39 O2    c       0.000239     -0.000110      0.000160      0.000000
     40 O3    c      -0.002838     -0.002091      0.001099      0.000000
     41 O2    c       0.000062      0.000972      0.000863      0.000000
     42 O3    c       0.000105     -0.000474     -0.000862      0.000000
     43 O3    c      -0.000122     -0.000262     -0.000225      0.000000
     44 O2    c      -0.001643      0.000988      0.001094      0.000000
     45 O3    c      -0.000356     -0.000296      0.000462      0.000000
     46 O2    c      -0.001464     -0.000417      0.001519      0.000000
     47 O2    c      -0.000066     -0.000041     -0.000466      0.000000
     48 O2    c      -0.001830      0.000071     -0.000195      0.000000
     49 O3    c      -0.003574     -0.000779      0.001585      0.000000
     50 O3    c       0.002977     -0.000088      0.000672      0.000000
     51 O3    c       0.001402     -0.000659     -0.000412      0.000000
     52 O2    c      -0.001136      0.000766     -0.000015      0.000000
     53 O1    c       0.000537      0.000368      0.000786      0.000000
     54 O2    c       0.000289     -0.001817     -0.000085      0.000000
     55 O3    c       0.001507     -0.000101     -0.000499      0.000000
     56 O2    c      -0.001273      0.000075     -0.000287      0.000000
     57 O3    c       0.001665      0.000744      0.001248      0.000000
     58 O3    c       0.001443      0.000874     -0.000956      0.000000
     59 O3    c       0.000240     -0.000386      0.000549      0.000000
     60 O3    c       0.000222     -0.000031     -0.000228      0.000000
     61 O3    c       0.000174      0.000042     -0.000396      0.000000
     62 O2    c      -0.000689     -0.000354     -0.000059      0.000000
     63 O3    c      -0.001162      0.000866     -0.000491      0.000000
     64 O3    c      -0.000651      0.000721      0.000774      0.000000
     65 O3    c      -0.001030     -0.000720      0.000027      0.000000
     66 O3    c       0.000963      0.000207      0.000490      0.000000
     67 O3    c       0.001228     -0.000120     -0.000373      0.000000
     68 O3    c      -0.001291     -0.000349     -0.000082      0.000000
     69 O2    c      -0.003031      0.000363      0.000808      0.000000
     70 O1    c       0.000266     -0.000006      0.000377      0.000000
     71 O2    c      -0.000991     -0.001355      0.001303      0.000000
     72 O1    c       0.000123      0.000211      0.000164      0.000000
     73 O1    s       0.000298      0.000349     -0.001055      0.000000
     74 O3    s      -0.000879      0.000451      0.000532      0.000000
     75 O1    s      -0.000007     -0.000606     -0.000023      0.000000
     76 O3    s      -0.000267      0.000007      0.000281      0.000000
     77 O3    s      -0.000819     -0.000482     -0.000653      0.000000
     78 O3    s      -0.000439     -0.000448     -0.000066      0.000000
     79 O3    s       0.000965      0.000317     -0.000007      0.000000
     80 O1    s      -0.000848     -0.000063     -0.000124      0.000000
     81 O1    s       0.003588      0.000304     -0.003175      0.000000
     82 O1    s      -0.002026      0.000414     -0.000748      0.000000
     83 O3    s      -0.000728      0.000378     -0.001122      0.000000
     84 O3    s      -0.000316     -0.000071      0.000074      0.000000
     85 O3    s      -0.000217      0.000187     -0.001006      0.000000
     86 O3    s       0.000953     -0.000033      0.000025      0.000000
     87 O2    s       0.000022      0.000017      0.000342      0.000000
     88 O3    s       0.000511     -0.000212     -0.000727      0.000000
     89 O2    s      -0.000197     -0.000055      0.000959      0.000000
     90 O3    s       0.000203      0.000315      0.000469      0.000000
     91 O3    s       0.000331      0.000228      0.000032      0.000000
     92 O2    s       0.000922      0.000313      0.000676      0.000000
     93 O3    s       0.000628     -0.000062     -0.000095      0.000000
     94 O2    s      -0.000413      0.000392      0.000611      0.000000
     95 O2    s      -0.001317      0.000198     -0.000694      0.000000
     96 O2    s       0.003743     -0.000414     -0.000523      0.000000
     97 O3    s      -0.002004     -0.001079     -0.000084      0.000000
     98 O3    s       0.001619     -0.000672      0.000678      0.000000
     99 O3    s      -0.000447     -0.000189      0.000359      0.000000
    100 O2    s       0.000611      0.000277     -0.000094      0.000000
    101 O1    s      -0.000541     -0.001112     -0.000164      0.000000
    102 O2    s       0.001094      0.001593      0.001844      0.000000
    103 O3    s      -0.000197      0.000087      0.000283      0.000000
    104 O2    s      -0.000711     -0.000125      0.000166      0.000000
    105 O3    s      -0.000405     -0.000988     -0.002242      0.000000
    106 O3    s       0.000923      0.000632     -0.001507      0.000000
    107 O3    s       0.000033      0.000704     -0.001388      0.000000
    108 O3    s      -0.000014     -0.000072     -0.000136      0.000000
    109 O3    s      -0.000585     -0.000069      0.000777      0.000000
    110 O2    s       0.000408     -0.000135     -0.000190      0.000000
    111 O3    s      -0.000384     -0.000032     -0.002305      0.000000
    112 O3    s       0.000113     -0.000856     -0.002069      0.000000
    113 O3    s       0.000042      0.000544      0.000162      0.000000
    114 O3    s       0.000395      0.000888     -0.000610      0.000000
    115 O3    s      -0.001786     -0.000645     -0.000513      0.000000
    116 O3    s       0.002015     -0.000608     -0.000254      0.000000
    117 O2    s      -0.000442     -0.000134      0.000377      0.000000
    118 O1    s       0.000022      0.000127     -0.000405      0.000000
    119 O2    s      -0.000476      0.000427      0.000749      0.000000
    120 O1    s      -0.000050     -0.000169     -0.000307      0.000000
--------------------------------------------------------------------------------
  Maximum abs         0.008579      0.002783      0.005724      0.000000
--------------------------------------------------------------------------------


  Born effective charge tensors : 

-------------------------------------------------------------------------------
  Atom             x           y             z
-------------------------------------------------------------------------------
    1 Ge    x       4.1910      0.1914     -0.0370
            y      -0.0335      3.8871      0.0902
            z      -0.7962     -0.2873      4.4895
-------------------------------------------------------------------------------
    2 Ge    x       4.2019     -0.2512      0.0732
            y       0.0071      3.8978      0.1040
            z       0.8077     -0.3116      4.5191
-------------------------------------------------------------------------------
    3 Ge    x       4.1866     -0.2872     -0.3552
            y       0.0084      3.8916     -0.1444
            z      -0.3598      0.2748      4.6217
-------------------------------------------------------------------------------
    4 Ge    x       4.0643     -0.0088      0.3675
            y       0.1087      3.9295     -0.1409
            z       0.3314      0.1871      4.6448
-------------------------------------------------------------------------------
    5 Ge    x       4.0055      0.4265     -0.0885
            y       0.2756      4.1379     -0.3428
            z      -0.1653     -0.0637      3.4905
-------------------------------------------------------------------------------
    6 Ge    x       3.9389     -0.3370     -0.1433
            y      -0.3565      4.1406      0.3188
            z      -0.2194      0.0445      3.4438
-------------------------------------------------------------------------------
    7 Ge    x       4.0027     -0.4116      0.0788
            y      -0.2956      4.1493     -0.3503
            z       0.1641     -0.0609      3.4931
-------------------------------------------------------------------------------
    8 Ge    x       4.0539      0.4272      0.0908
            y       0.2049      4.1566      0.2797
            z       0.1590     -0.0177      3.2431
-------------------------------------------------------------------------------
    9 Ge    x       4.0409     -0.3554      0.1175
            y      -0.2371      4.1897     -0.3782
            z       0.0704     -0.0314      3.2816
-------------------------------------------------------------------------------
   10 Ge    x       4.0397      0.3729     -0.1272
            y       0.2153      4.1770     -0.3830
            z      -0.0656     -0.0357      3.2794
-------------------------------------------------------------------------------
   11 Ge    x       4.0047     -0.3870     -0.0208
            y      -0.3014      4.2251      0.2878
            z      -0.1064      0.0009      3.2535
-------------------------------------------------------------------------------
   12 Si    x       3.7331     -0.4014     -0.1829
            y      -0.0155      3.5853     -0.0748
            z      -0.7168      0.2550      3.2518
-------------------------------------------------------------------------------
   13 Si    x       3.8598      0.2501      0.1587
            y       0.1516      3.5209     -0.0918
            z       0.7428      0.1565      3.2059
-------------------------------------------------------------------------------
   14 Si    x       3.6999      0.3259     -0.4533
            y       0.0860      3.5453      0.0574
            z      -0.4830     -0.2867      3.4379
-------------------------------------------------------------------------------
   15 Si    x       3.6706     -0.3561      0.4377
            y      -0.0947      3.5578      0.0465
            z       0.4464     -0.3022      3.4807
-------------------------------------------------------------------------------
   16 Si    x       3.3249      0.4995      0.2004
            y       0.1022      3.9189      0.1548
            z       0.1260      0.0507      3.2983
-------------------------------------------------------------------------------
   17 Si    x       3.3838     -0.4106      0.1365
            y      -0.3946      3.6182     -0.2370
            z       0.2891     -0.1102      3.2377
-------------------------------------------------------------------------------
   18 Si    x       3.3920      0.4229     -0.1248
            y       0.1571      3.9778     -0.1727
            z      -0.2611     -0.1106      3.2576
-------------------------------------------------------------------------------
   19 Si    x       3.6254      0.4149      0.1200
            y       0.3228      3.5882      0.3610
            z       0.1604      0.1423      3.0052
-------------------------------------------------------------------------------
   20 Si    x       3.3208     -0.5066     -0.2147
            y      -0.1212      3.9225      0.1512
            z      -0.1236      0.0450      3.2997
-------------------------------------------------------------------------------
   21 Si    x       3.2415      0.3258     -0.1767
            y      -0.0852      3.6758     -0.0690
            z      -0.1477      0.0147      2.7499
-------------------------------------------------------------------------------
   22 Si    x       3.3292     -0.3287     -0.1358
            y       0.0130      3.7910      0.0273
            z      -0.1637     -0.0582      3.0971
-------------------------------------------------------------------------------
   23 Si    x       3.3372      0.3334      0.1198
            y      -0.0233      3.7755      0.0139
            z       0.1767     -0.0554      3.0931
-------------------------------------------------------------------------------
   24 Si    x       3.3435     -0.3146      0.1759
            y      -0.0437      3.7697     -0.0295
            z       0.1330      0.0924      3.0342
-------------------------------------------------------------------------------
   25 O1    x      -2.0309     -0.9409      0.2987
            y      -0.9183     -2.5324      0.2533
            z       0.4386      0.2784     -1.7060
-------------------------------------------------------------------------------
   26 O3    x      -1.9235     -0.8666     -0.3931
            y      -0.8462     -2.3097     -0.5593
            z      -0.4434     -0.5006     -1.5893
-------------------------------------------------------------------------------
   27 O1    x      -2.0724      0.9295      0.4403
            y       0.9169     -2.5392     -0.3391
            z       0.4832     -0.3527     -1.6846
-------------------------------------------------------------------------------
   28 O3    x      -2.0140      0.9600     -0.5219
            y       0.9324     -2.3888      0.5940
            z      -0.5341      0.5491     -1.5786
-------------------------------------------------------------------------------
   29 O3    x      -2.0859     -0.9232      0.5174
            y      -0.9507     -2.3078      0.5975
            z       0.5298      0.5306     -1.5718
-------------------------------------------------------------------------------
   30 O3    x      -1.9694     -0.9227     -0.4548
            y      -0.9299     -2.3058     -0.4404
            z      -0.4896     -0.4676     -1.6129
-------------------------------------------------------------------------------
   31 O3    x      -1.9193      0.8775      0.3943
            y       0.8566     -2.3130     -0.5584
            z       0.4438     -0.4966     -1.5904
-------------------------------------------------------------------------------
   32 O1    x      -2.0477      0.9524     -0.3090
            y       0.9295     -2.5491      0.2508
            z      -0.4427      0.2780     -1.6860
-------------------------------------------------------------------------------
   33 O1    x      -2.0089     -0.0178      1.0343
            y      -0.0293     -1.3193     -0.0208
            z       1.3130     -0.0535     -3.4163
-------------------------------------------------------------------------------
   34 O1    x      -2.0141      0.1181     -1.0832
            y       0.0416     -1.3152      0.0521
            z      -1.3390      0.1072     -3.5243
-------------------------------------------------------------------------------
   35 O3    x      -2.1117     -0.0992     -1.0069
            y      -0.0553     -1.2614     -0.0476
            z      -0.9901     -0.0661     -2.5784
-------------------------------------------------------------------------------
   36 O3    x      -2.0030      0.2051      0.9632
            y       0.0926     -1.3015     -0.1431
            z       0.9478     -0.1993     -2.6185
-------------------------------------------------------------------------------
   37 O3    x      -1.9709      0.1544     -0.8758
            y       0.0597     -1.2440      0.1764
            z      -0.8573      0.2686     -2.7217
-------------------------------------------------------------------------------
   38 O3    x      -2.0202     -0.0563      0.8814
            y      -0.0299     -1.2589      0.1187
            z       0.8717      0.1799     -2.6422
-------------------------------------------------------------------------------
   39 O2    x      -1.7533     -0.6649      0.2718
            y      -0.6316     -1.9041      0.3472
            z       0.3294      0.2934     -1.2217
-------------------------------------------------------------------------------
   40 O3    x      -1.9907     -0.9364     -0.1797
            y      -0.8954     -2.4378     -0.1590
            z      -0.2944     -0.1768     -1.3685
-------------------------------------------------------------------------------
   41 O2    x      -1.7154      0.6748      0.4138
            y       0.6206     -1.9340     -0.4429
            z       0.3713     -0.3641     -1.2940
-------------------------------------------------------------------------------
   42 O3    x      -1.9045      0.9158     -0.3733
            y       0.8168     -2.5337      0.3233
            z      -0.3426      0.3165     -1.4210
-------------------------------------------------------------------------------
   43 O3    x      -1.8883     -0.9061      0.3686
            y      -0.8071     -2.5127      0.3362
            z       0.3325      0.3189     -1.4358
-------------------------------------------------------------------------------
   44 O2    x      -1.7281     -0.6727     -0.4014
            y      -0.6209     -1.9379     -0.4293
            z      -0.3718     -0.3647     -1.2863
-------------------------------------------------------------------------------
   45 O3    x      -1.8919      0.8894      0.2011
            y       0.7946     -2.5694     -0.1224
            z       0.3199     -0.1685     -1.3463
-------------------------------------------------------------------------------
   46 O2    x      -1.7032      0.6957     -0.2811
            y       0.6272     -1.9412      0.3339
            z      -0.3347      0.2994     -1.2359
-------------------------------------------------------------------------------
   47 O2    x      -1.8569      0.0314     -0.5516
            y       0.0071     -1.1792      0.0130
            z      -0.3440      0.0162     -1.6753
-------------------------------------------------------------------------------
   48 O2    x      -1.8590      0.0256      0.5481
            y      -0.0009     -1.1891     -0.0473
            z       0.3346     -0.0421     -1.6746
-------------------------------------------------------------------------------
   49 O3    x      -1.4055     -0.1090      0.1037
            y      -0.0846     -2.9438      0.3022
            z       0.1094      0.2103     -1.2213
-------------------------------------------------------------------------------
   50 O3    x      -1.4181      0.1349     -0.0978
            y       0.1269     -2.9453      0.2919
            z      -0.1056      0.2004     -1.2136
-------------------------------------------------------------------------------
   51 O3    x      -1.3803      0.1426      0.0562
            y       0.2056     -3.0540     -0.1976
            z       0.0981     -0.1260     -1.1819
-------------------------------------------------------------------------------
   52 O2    x      -1.1887      0.0279     -0.0349
            y       0.0370     -2.4801     -0.0925
            z      -0.0704     -0.0523     -1.0799
-------------------------------------------------------------------------------
   53 O1    x      -3.0445     -0.0146      0.0261
            y      -0.0091     -1.4074      0.0899
            z       0.0188      0.0257     -1.4103
-------------------------------------------------------------------------------
   54 O2    x      -2.3867     -0.0134      0.0210
            y      -0.0116     -1.3001     -0.0297
            z       0.0148     -0.0115     -1.0794
-------------------------------------------------------------------------------
   55 O3    x      -2.9223     -0.0767      0.0942
            y      -0.0342     -1.3440     -0.0784
            z       0.0993     -0.0236     -1.2630
-------------------------------------------------------------------------------
   56 O2    x      -2.2901     -0.1138     -0.0263
            y      -0.0839     -1.2722      0.0554
            z      -0.0067      0.0401     -1.1170
-------------------------------------------------------------------------------
   57 O3    x      -1.3147     -0.1591      0.0420
            y      -0.0857     -1.4585     -0.0787
            z       0.0059     -0.1054     -2.5910
-------------------------------------------------------------------------------
   58 O3    x      -1.3489     -0.1927      0.1545
            y      -0.1263     -1.4599      0.0003
            z       0.0881     -0.0466     -2.5096
-------------------------------------------------------------------------------
   59 O3    x      -1.3366      0.1754      0.0041
            y       0.1306     -1.4475      0.0501
            z       0.0167      0.0766     -2.5244
-------------------------------------------------------------------------------
   60 O3    x      -1.2985      0.1303      0.1543
            y       0.1013     -1.4647     -0.0184
            z       0.0757      0.0402     -2.5682
-------------------------------------------------------------------------------
   61 O3    x      -1.3194     -0.1253     -0.1412
            y      -0.0647     -1.4447      0.0372
            z      -0.0798      0.0827     -2.5524
-------------------------------------------------------------------------------
   62 O2    x      -1.1835     -0.1364     -0.0113
            y      -0.0755     -1.3236      0.1098
            z      -0.0082      0.1190     -2.0104
-------------------------------------------------------------------------------
   63 O3    x      -1.3481      0.1880     -0.1875
            y       0.1252     -1.4574     -0.0111
            z      -0.1278     -0.0575     -2.5059
-------------------------------------------------------------------------------
   64 O3    x      -1.3145      0.1522     -0.0792
            y       0.0856     -1.4617     -0.0765
            z      -0.0503     -0.1031     -2.5834
-------------------------------------------------------------------------------
   65 O3    x      -1.4500      0.2048      0.1322
            y       0.2215     -3.0361     -0.2514
            z       0.1478     -0.1721     -1.1527
-------------------------------------------------------------------------------
   66 O3    x      -1.4367     -0.0936     -0.1067
            y      -0.0168     -3.0854     -0.2286
            z      -0.1235     -0.1587     -1.1235
-------------------------------------------------------------------------------
   67 O3    x      -1.4402     -0.1403      0.1118
            y      -0.1180     -3.0952      0.2736
            z       0.1201      0.1717     -1.1429
-------------------------------------------------------------------------------
   68 O3    x      -1.4576      0.1680     -0.1126
            y       0.1624     -3.0838      0.2733
            z      -0.1240      0.1674     -1.1403
-------------------------------------------------------------------------------
   69 O2    x      -2.4444     -0.0748     -0.0521
            y      -0.0291     -1.2606      0.0327
            z      -0.0484      0.0010     -1.0457
-------------------------------------------------------------------------------
   70 O1    x      -3.0930     -0.0919     -0.0192
            y      -0.0625     -1.4240     -0.0930
            z      -0.0161     -0.0183     -1.3667
-------------------------------------------------------------------------------
   71 O2    x      -2.4417     -0.0161      0.0241
            y      -0.0102     -1.2677     -0.0303
            z       0.0155     -0.0046     -1.0594
-------------------------------------------------------------------------------
   72 O1    x      -3.2449     -0.0236      0.0267
            y      -0.0146     -1.4263      0.1051
            z       0.0209      0.0287     -1.2857
-------------------------------------------------------------------------------




  Elastic Constant Matrix: (Units=GPa)

-------------------------------------------------------------------------------
  Indices      1         2         3         4         5         6    
-------------------------------------------------------------------------------
       1     34.7278   22.5745   11.0366   -2.0531    2.0742   -5.0349
       2     22.5745   59.5366   10.2258   -1.6380    3.0633   -6.9256
       3     11.0366   10.2258   17.6389   -1.1428    0.7301   -2.5228
       4     -2.0531   -1.6380   -1.1428    7.0145   -0.7894    1.2199
       5      2.0742    3.0633    0.7301   -0.7894    9.5410   -1.4205
       6     -5.0349   -6.9256   -2.5228    1.2199   -1.4205   11.8507
-------------------------------------------------------------------------------


  Elastic Compliance Matrix: (Units=1/GPa)

-------------------------------------------------------------------------------
  Indices      1         2         3         4         5         6    
-------------------------------------------------------------------------------
       1    0.044460 -0.012507 -0.019152  0.005514 -0.002744  0.006607
       2   -0.012507  0.023297 -0.004578 -0.000564 -0.003419  0.006975
       3   -0.019152 -0.004578  0.072179  0.004474  0.001109  0.004225
       4    0.005514 -0.000564  0.004474  0.147746  0.009205 -0.011140
       5   -0.002744 -0.003419  0.001109  0.009205  0.108542  0.009135
       6    0.006607  0.006975  0.004225 -0.011140  0.009135  0.094407
-------------------------------------------------------------------------------

  Mechanical properties :

-------------------------------------------------------------------------------
  Convention :                    Reuss         Voigt         Hill
-------------------------------------------------------------------------------
  Bulk  Modulus (GPa)     =      14.82325      22.17525      18.49925
  Shear Modulus (GPa)     =       8.53838      10.21899       9.37869
-------------------------------------------------------------------------------
  Velocity S-wave (km/s)  =       1.91969       2.10014       2.01194
  Velocity P-wave (km/s)  =       3.36325       3.93087       3.65809
-------------------------------------------------------------------------------
  Compressibility (1/GPa) =    0.06746158
-------------------------------------------------------------------------------
  Stress axis :                     x             y             z
-------------------------------------------------------------------------------
  Youngs Moduli (GPa)     =      22.49221      42.92467      13.85453
-------------------------------------------------------------------------------
  Poissons Ratio (x)      =                     0.53686       0.26534
  Poissons Ratio (y)      =       0.28131                     0.06342
  Poissons Ratio (z)      =       0.43077       0.19650
-------------------------------------------------------------------------------


  Piezoelectric Strain Matrix: (Units=C/m**2)

-------------------------------------------------------------------------------
  Indices      1         2         3         4         5         6    
-------------------------------------------------------------------------------
       x    -0.51192  -0.31908  -0.07773   0.19216   0.50236  -0.34204
       y     0.01404  -0.54944  -0.85289  -0.08282  -0.13765   0.23419
       z     0.30698   0.65441  -1.30706  -0.57905  -0.20076   0.05938
-------------------------------------------------------------------------------


  Piezoelectric Stress Matrix: (Units=10**-11 C/N)

-------------------------------------------------------------------------------
  Indices      1         2         3         4         5         6    
-------------------------------------------------------------------------------
       x    -1.98590  -0.48867   0.56259   3.38339   5.55815  -3.57784
       y     2.52987  -0.69206  -5.88475  -1.95410  -1.26703   1.44314
       z     2.82467   1.88166 -10.57795  -9.25867  -3.11082   1.12918
-------------------------------------------------------------------------------


  Static dielectric constant tensor : 

-------------------------------------------------------------------------------
              x         y         z
-------------------------------------------------------------------------------
       x     5.03225  -0.07469  -0.01527
       y    -0.07469   5.20046  -0.02898
       z    -0.01527  -0.02898   4.17192
--------------------------------------------------------------------------------

  High frequency dielectric constant tensor : 

-------------------------------------------------------------------------------
              x         y         z
-------------------------------------------------------------------------------
       x     1.60577  -0.00044   0.00059
       y    -0.00044   1.61730  -0.00190
       z     0.00059  -0.00190   1.55469
-------------------------------------------------------------------------------

  Static refractive indices : 

-------------------------------------------------------------------------------
    1 =    2.04224      2 =    2.23709      3 =    2.28676
-------------------------------------------------------------------------------

  High frequency refractive indices : 

-------------------------------------------------------------------------------
    1 =    1.24685      2 =    1.26719      3 =    1.27176
-------------------------------------------------------------------------------


  Time to end of optimisation =      11.5832 seconds


  Peak dynamic memory used =       5.01 MB 


  Timing analysis for GULP :

--------------------------------------------------------------------------------
  Task / Subroutine                                          Time (Seconds)
--------------------------------------------------------------------------------
  Calculation of reciprocal space energy and derivatives          0.6619
  Calculation of real space energy and derivatives                7.5606
  Calculation of three-body energy and derivatives                0.2462
  Calculation and manipulation of Hessian matrix                  3.2132
  Calculation of matrix inversion                                 0.0284
  Global summation overhead                                       0.0002
--------------------------------------------------------------------------------
  Total CPU time                                                 11.5832
--------------------------------------------------------------------------------


  Dump file written as POSCAR_N0011.vasp.grs
  CIF file written as POSCAR_N0011.vasp.cif


  Job Finished at 11:29.38 31st October    2025                               

