********************************************************************************
*                       GENERAL UTILITY LATTICE PROGRAM                        *
*                                 Julian Gale                                  *
*                       Curtin Institute for Computation                       *
*                    School of Molecular and Life Sciences                     *
*                    Curtin University, Western Australia                      *
********************************************************************************
* Version = 6.1.2 * Last modified =   3rd November 2022                        *
********************************************************************************
*  optimise     - perform optimisation run                                     *
*  conp         - constant pressure calculation                                *
*  property     - calculate properties for final geometry                      *
********************************************************************************

  Job Started  at 11:28.49 31st October    2025                               

  Number of CPUs =     1


  Total number of configurations input =      1

********************************************************************************
*  Input for Configuration =   1 : POSCAR_N0007.vasp                           *
********************************************************************************

  Formula = Ge7Si17O48                                                  

  Number of irreducible atoms/shells =     120


  Total number atoms/shells =     120

  Dimensionality = 3               :  Bulk   



  Cartesian lattice vectors (Angstroms) :

       17.182800    0.000000    0.000000
        0.000000    7.513760    0.000000
        0.000000    0.000000   10.447700

  Cell parameters (Angstroms/Degrees):

  a =      17.1828    alpha =  90.0000
  b =       7.5138    beta  =  90.0000
  c =      10.4477    gamma =  90.0000

  Initial cell volume =        1348.875752 Angs**3

  Temperature of configuration =   0.00     K 

  Pressure of configuration =         0.000 GPa 

  Fractional coordinates of asymmetric unit :

--------------------------------------------------------------------------------
   No.  Atomic       x           y          z         Charge      Occupancy
        Label      (Frac)      (Frac)     (Frac)        (e)         (Frac)  
--------------------------------------------------------------------------------
      1 Ge    c    0.447910    0.000000    0.372270     4.00000    1.000000    
      2 Ge    c    0.947910 *  0.000000 *  0.627730 *   4.00000    1.000000    
      3 Ge    c    0.160190 *  0.293910 *  0.273440 *   4.00000    1.000000    
      4 Ge    c    0.660190 *  0.293910 *  0.726560 *   4.00000    1.000000    
      5 Ge    c    0.839340 *  0.705910 *  0.017440 *   4.00000    1.000000    
      6 Ge    c    0.339340 *  0.705910 *  0.982560 *   4.00000    1.000000    
      7 Ge    c    0.660660 *  0.705910 *  0.017440 *   4.00000    1.000000    
      8 Si    c    0.052090 *  0.000000 *  0.372270 *   4.00000    1.000000    
      9 Si    c    0.552090 *  0.000000 *  0.627730 *   4.00000    1.000000    
     10 Si    c    0.556730 *  0.000000 *  0.122130 *   4.00000    1.000000    
     11 Si    c    0.943270 *  0.000000 *  0.122130 *   4.00000    1.000000    
     12 Si    c    0.443270 *  0.000000 *  0.877870 *   4.00000    1.000000    
     13 Si    c    0.056730 *  0.000000 *  0.877870 *   4.00000    1.000000    
     14 Si    c    0.339810 *  0.706090 *  0.273440 *   4.00000    1.000000    
     15 Si    c    0.839810 *  0.293910 *  0.726560 *   4.00000    1.000000    
     16 Si    c    0.660190 *  0.706090 *  0.726560 *   4.00000    1.000000    
     17 Si    c    0.839810 *  0.706090 *  0.726560 *   4.00000    1.000000    
     18 Si    c    0.160190 *  0.706090 *  0.273440 *   4.00000    1.000000    
     19 Si    c    0.339810 *  0.293910 *  0.273440 *   4.00000    1.000000    
     20 Si    c    0.660660 *  0.294090 *  0.017440 *   4.00000    1.000000    
     21 Si    c    0.339340 *  0.294090 *  0.982560 *   4.00000    1.000000    
     22 Si    c    0.160660 *  0.705910 *  0.982560 *   4.00000    1.000000    
     23 Si    c    0.160660 *  0.294090 *  0.982560 *   4.00000    1.000000    
     24 Si    c    0.839340 *  0.294090 *  0.017440 *   4.00000    1.000000    
     25 O3    c    0.106570 *  0.174340 *  0.366200 *   1.33043    1.000000    
     26 O3    c    0.393430 *  0.825660 *  0.366200 *   1.33043    1.000000    
     27 O3    c    0.893430 *  0.174340 *  0.633800 *   1.33043    1.000000    
     28 O2    c    0.606570 *  0.825660 *  0.633800 *   0.87073    1.000000    
     29 O3    c    0.893430 *  0.825660 *  0.633800 *   1.33043    1.000000    
     30 O3    c    0.606570 *  0.174340 *  0.633800 *   1.33043    1.000000    
     31 O2    c    0.106570 *  0.825660 *  0.366200 *   0.87073    1.000000    
     32 O3    c    0.393430 *  0.174340 *  0.366200 *   1.33043    1.000000    
     33 O3    c    0.000000 *  0.000000 *  0.500000 *   1.33043    1.000000    
     34 O3    c    0.500000 *  0.000000 *  0.500000 *   1.33043    1.000000    
     35 O2    c    0.994520 *  0.000000 *  0.250840 *   0.87073    1.000000    
     36 O3    c    0.505480 *  0.000000 *  0.250840 *   1.33043    1.000000    
     37 O3    c    0.005480 *  0.000000 *  0.749160 *   1.33043    1.000000    
     38 O2    c    0.494520 *  0.000000 *  0.749160 *   0.87073    1.000000    
     39 O2    c    0.610230 *  0.175520 *  0.115390 *   0.87073    1.000000    
     40 O3    c    0.889770 *  0.824480 *  0.115390 *   1.33043    1.000000    
     41 O2    c    0.389770 *  0.175520 *  0.884610 *   0.87073    1.000000    
     42 O2    c    0.110230 *  0.824480 *  0.884610 *   0.87073    1.000000    
     43 O3    c    0.389770 *  0.824480 *  0.884610 *   1.33043    1.000000    
     44 O2    c    0.110230 *  0.175520 *  0.884610 *   0.87073    1.000000    
     45 O3    c    0.610230 *  0.824480 *  0.115390 *   1.33043    1.000000    
     46 O2    c    0.889770 *  0.175520 *  0.115390 *   0.87073    1.000000    
     47 O2    c    0.500000 *  0.000000 *  0.000000 *   0.87073    1.000000    
     48 O2    c    0.000000 *  0.000000 *  0.000000 *   0.87073    1.000000    
     49 O3    c    0.151750 *  0.500000 *  0.313330 *   1.33043    1.000000    
     50 O2    c    0.348250 *  0.500000 *  0.313330 *   0.87073    1.000000    
     51 O2    c    0.848250 *  0.500000 *  0.686670 *   0.87073    1.000000    
     52 O3    c    0.651750 *  0.500000 *  0.686670 *   1.33043    1.000000    
     53 O3    c    0.250000 *  0.234950 *  0.285720 *   1.33043    1.000000    
     54 O2    c    0.250000 *  0.765050 *  0.285720 *   0.87073    1.000000    
     55 O3    c    0.750000 *  0.234950 *  0.714280 *   1.33043    1.000000    
     56 O2    c    0.750000 *  0.765050 *  0.714280 *   0.87073    1.000000    
     57 O3    c    0.131410 *  0.268650 *  0.127790 *   1.33043    1.000000    
     58 O3    c    0.368590 *  0.731350 *  0.127790 *   1.33043    1.000000    
     59 O2    c    0.868590 *  0.268650 *  0.872210 *   0.87073    1.000000    
     60 O3    c    0.631410 *  0.731350 *  0.872210 *   1.33043    1.000000    
     61 O3    c    0.868590 *  0.731350 *  0.872210 *   1.33043    1.000000    
     62 O3    c    0.631410 *  0.268650 *  0.872210 *   1.33043    1.000000    
     63 O2    c    0.131410 *  0.731350 *  0.127790 *   0.87073    1.000000    
     64 O2    c    0.368590 *  0.268650 *  0.127790 *   0.87073    1.000000    
     65 O3    c    0.653920 *  0.500000 *  0.058200 *   1.33043    1.000000    
     66 O3    c    0.846080 *  0.500000 *  0.058200 *   1.33043    1.000000    
     67 O3    c    0.346080 *  0.500000 *  0.941800 *   1.33043    1.000000    
     68 O2    c    0.153920 *  0.500000 *  0.941800 *   0.87073    1.000000    
     69 O2    c    0.750000 *  0.231060 *  0.027050 *   0.87073    1.000000    
     70 O1    c    0.750000 *  0.768940 *  0.027050 *   1.73396    1.000000    
     71 O2    c    0.250000 *  0.231060 *  0.972950 *   0.87073    1.000000    
     72 O3    c    0.250000 *  0.768940 *  0.972950 *   1.33043    1.000000    
     73 O3    s    0.106570 *  0.174340 *  0.366200 *  -3.33043    1.000000    
     74 O3    s    0.393430 *  0.825660 *  0.366200 *  -3.33043    1.000000    
     75 O3    s    0.893430 *  0.174340 *  0.633800 *  -3.33043    1.000000    
     76 O2    s    0.606570 *  0.825660 *  0.633800 *  -2.87073    1.000000    
     77 O3    s    0.893430 *  0.825660 *  0.633800 *  -3.33043    1.000000    
     78 O3    s    0.606570 *  0.174340 *  0.633800 *  -3.33043    1.000000    
     79 O2    s    0.106570 *  0.825660 *  0.366200 *  -2.87073    1.000000    
     80 O3    s    0.393430 *  0.174340 *  0.366200 *  -3.33043    1.000000    
     81 O3    s    0.000000 *  0.000000 *  0.500000 *  -3.33043    1.000000    
     82 O3    s    0.500000 *  0.000000 *  0.500000 *  -3.33043    1.000000    
     83 O2    s    0.994520 *  0.000000 *  0.250840 *  -2.87073    1.000000    
     84 O3    s    0.505480 *  0.000000 *  0.250840 *  -3.33043    1.000000    
     85 O3    s    0.005480 *  0.000000 *  0.749160 *  -3.33043    1.000000    
     86 O2    s    0.494520 *  0.000000 *  0.749160 *  -2.87073    1.000000    
     87 O2    s    0.610230 *  0.175520 *  0.115390 *  -2.87073    1.000000    
     88 O3    s    0.889770 *  0.824480 *  0.115390 *  -3.33043    1.000000    
     89 O2    s    0.389770 *  0.175520 *  0.884610 *  -2.87073    1.000000    
     90 O2    s    0.110230 *  0.824480 *  0.884610 *  -2.87073    1.000000    
     91 O3    s    0.389770 *  0.824480 *  0.884610 *  -3.33043    1.000000    
     92 O2    s    0.110230 *  0.175520 *  0.884610 *  -2.87073    1.000000    
     93 O3    s    0.610230 *  0.824480 *  0.115390 *  -3.33043    1.000000    
     94 O2    s    0.889770 *  0.175520 *  0.115390 *  -2.87073    1.000000    
     95 O2    s    0.500000 *  0.000000 *  0.000000 *  -2.87073    1.000000    
     96 O2    s    0.000000 *  0.000000 *  0.000000 *  -2.87073    1.000000    
     97 O3    s    0.151750 *  0.500000 *  0.313330 *  -3.33043    1.000000    
     98 O2    s    0.348250 *  0.500000 *  0.313330 *  -2.87073    1.000000    
     99 O2    s    0.848250 *  0.500000 *  0.686670 *  -2.87073    1.000000    
    100 O3    s    0.651750 *  0.500000 *  0.686670 *  -3.33043    1.000000    
    101 O3    s    0.250000 *  0.234950 *  0.285720 *  -3.33043    1.000000    
    102 O2    s    0.250000 *  0.765050 *  0.285720 *  -2.87073    1.000000    
    103 O3    s    0.750000 *  0.234950 *  0.714280 *  -3.33043    1.000000    
    104 O2    s    0.750000 *  0.765050 *  0.714280 *  -2.87073    1.000000    
    105 O3    s    0.131410 *  0.268650 *  0.127790 *  -3.33043    1.000000    
    106 O3    s    0.368590 *  0.731350 *  0.127790 *  -3.33043    1.000000    
    107 O2    s    0.868590 *  0.268650 *  0.872210 *  -2.87073    1.000000    
    108 O3    s    0.631410 *  0.731350 *  0.872210 *  -3.33043    1.000000    
    109 O3    s    0.868590 *  0.731350 *  0.872210 *  -3.33043    1.000000    
    110 O3    s    0.631410 *  0.268650 *  0.872210 *  -3.33043    1.000000    
    111 O2    s    0.131410 *  0.731350 *  0.127790 *  -2.87073    1.000000    
    112 O2    s    0.368590 *  0.268650 *  0.127790 *  -2.87073    1.000000    
    113 O3    s    0.653920 *  0.500000 *  0.058200 *  -3.33043    1.000000    
    114 O3    s    0.846080 *  0.500000 *  0.058200 *  -3.33043    1.000000    
    115 O3    s    0.346080 *  0.500000 *  0.941800 *  -3.33043    1.000000    
    116 O2    s    0.153920 *  0.500000 *  0.941800 *  -2.87073    1.000000    
    117 O2    s    0.750000 *  0.231060 *  0.027050 *  -2.87073    1.000000    
    118 O1    s    0.750000 *  0.768940 *  0.027050 *  -3.73396    1.000000    
    119 O2    s    0.250000 *  0.231060 *  0.972950 *  -2.87073    1.000000    
    120 O3    s    0.250000 *  0.768940 *  0.972950 *  -3.33043    1.000000    
--------------------------------------------------------------------------------



********************************************************************************
*  General input information                                                   *
********************************************************************************

  Species output for all configurations : 

--------------------------------------------------------------------------------
  Species    Type    Atomic    Atomic    Charge       Radii (Angs)     Library
                     Number     Mass       (e)     Cova   Ionic  VDW   Symbol
--------------------------------------------------------------------------------
    Ge       Core       32      72.61   4.000000   1.170  0.000  1.750 Ge       
    Si       Core       14      28.09   4.000000   1.200  0.000  2.100 Si       
    O1       Core        8      16.00   1.733957   0.730  0.000  1.360 O1       
    O2       Core        8      16.00   0.870733   0.730  0.000  1.360 O2       
    O3       Core        8      16.00   1.330431   0.730  0.000  1.360 O3       
    O1       Shell       8       0.00  -3.733957   0.730  0.000  0.000 O1       
    O2       Shell       8       0.00  -2.870733   0.730  0.000  0.000 O2       
    O3       Shell       8       0.00  -3.330431   0.730  0.000  0.000 O3       
--------------------------------------------------------------------------------


  Lattice summation method               =    Ewald          (3-D)
                                         =    Parry          (2-D)
                                         =    Saunders et al (1-D)
  Accuracy factor for lattice sums       =   12.000


  Analytic derivatives to be used

  Time limit = Infinity

  Maximum range for interatomic potentials =    100000.000000 Angstroms

  General interatomic potentials :

--------------------------------------------------------------------------------
Atom  Types   Potential      Parameter       Value         Units   Cutoffs(Ang)
  1     2                                                            Min /  Max 
--------------------------------------------------------------------------------
Si   c O1   s Buckingham    Buckingham A     1315.2478    eV        0.000 16.000
                            Buckingham rho  0.31775900    Ang       
                            Buckingham C     10.141118    eV*Ang^6  
--------------------------------------------------------------------------------
Si   c O2   s Buckingham    Buckingham A     1315.2478    eV        0.000 16.000
                            Buckingham rho  0.31775900    Ang       
                            Buckingham C     10.141118    eV*Ang^6  
--------------------------------------------------------------------------------
Si   c O3   s Buckingham    Buckingham A     1315.2478    eV        0.000 16.000
                            Buckingham rho  0.31775900    Ang       
                            Buckingham C     10.141118    eV*Ang^6  
--------------------------------------------------------------------------------
Ge   c O1   s Buckingham    Buckingham A     1497.3996    eV        0.000 16.000
                            Buckingham rho  0.32564600    Ang       
                            Buckingham C     16.808599    eV*Ang^6  
--------------------------------------------------------------------------------
Ge   c O2   s Buckingham    Buckingham A     1497.3996    eV        0.000 16.000
                            Buckingham rho  0.32564600    Ang       
                            Buckingham C     16.808599    eV*Ang^6  
--------------------------------------------------------------------------------
Ge   c O3   s Buckingham    Buckingham A     1497.3996    eV        0.000 16.000
                            Buckingham rho  0.32564600    Ang       
                            Buckingham C     16.808599    eV*Ang^6  
--------------------------------------------------------------------------------
O1   s O1   s Buckingham    Buckingham A     22764.000    eV        0.000 16.000
                            Buckingham rho  0.14900000    Ang       
                            Buckingham C     10.937044    eV*Ang^6  
--------------------------------------------------------------------------------
O1   s O2   s Buckingham    Buckingham A     22764.000    eV        0.000 16.000
                            Buckingham rho  0.14900000    Ang       
                            Buckingham C     10.937044    eV*Ang^6  
--------------------------------------------------------------------------------
O1   s O3   s Buckingham    Buckingham A     22764.000    eV        0.000 16.000
                            Buckingham rho  0.14900000    Ang       
                            Buckingham C     10.937044    eV*Ang^6  
--------------------------------------------------------------------------------
O2   s O2   s Buckingham    Buckingham A     22764.000    eV        0.000 16.000
                            Buckingham rho  0.14900000    Ang       
                            Buckingham C     10.937044    eV*Ang^6  
--------------------------------------------------------------------------------
O2   s O3   s Buckingham    Buckingham A     22764.000    eV        0.000 16.000
                            Buckingham rho  0.14900000    Ang       
                            Buckingham C     10.937044    eV*Ang^6  
--------------------------------------------------------------------------------
O3   s O3   s Buckingham    Buckingham A     22764.000    eV        0.000 16.000
                            Buckingham rho  0.14900000    Ang       
                            Buckingham C     10.937044    eV*Ang^6  
--------------------------------------------------------------------------------
O1   c O1   s Spring (c-s)  Spring k 2       180.31577    eV*Ang^-2 0.000  0.800
                            Spring k 4       0.0000000    eV*Ang^-4 
--------------------------------------------------------------------------------
O2   c O2   s Spring (c-s)  Spring k 2       75.969800    eV*Ang^-2 0.000  0.800
                            Spring k 4       0.0000000    eV*Ang^-4 
--------------------------------------------------------------------------------
O3   c O3   s Spring (c-s)  Spring k 2       128.14270    eV*Ang^-2 0.000  0.800
                            Spring k 4       0.0000000    eV*Ang^-4 
--------------------------------------------------------------------------------

  General Three-body potentials :

--------------------------------------------------------------------------------
  Atoms       Potential      Parameter       Value         Units   Cutoffs(Ang)
  1 / 2 / 3                                                          Min /  Max 
--------------------------------------------------------------------------------
Si    core    Harmonic      Three-body cnst  1.2614000    eV*rad^-2 0.000  1.900
O1    shel                  Three-body angl  109.47000    degrees   0.000  1.900
O1    shel                  Three-body k4    0.0000000    eV*rad^-4 0.000  3.500
                            Three-body k3    0.0000000    eV*rad^-3 
--------------------------------------------------------------------------------
Si    core    Harmonic      Three-body cnst  1.2614000    eV*rad^-2 0.000  1.900
O1    shel                  Three-body angl  109.47000    degrees   0.000  1.900
õ(1   shel                  Three-body k4    0.0000000    eV*rad^-4 0.000  3.500
                            Three-body k3    0.0000000    eV*rad^-3 
--------------------------------------------------------------------------------
Si    core    Harmonic      Three-body cnst  1.2614000    eV*rad^-2 0.000  1.900
õ(1   shel                  Three-body angl  109.47000    degrees   0.000  1.900
õ(1   shel                  Three-body k4    0.0000000    eV*rad^-4 0.000  3.500
                            Three-body k3    0.0000000    eV*rad^-3 
--------------------------------------------------------------------------------
Si    core    Harmonic      Three-body cnst  1.2614000    eV*rad^-2 0.000  1.900
O1    shel                  Three-body angl  109.47000    degrees   0.000  1.900
O2    shel                  Three-body k4    0.0000000    eV*rad^-4 0.000  3.500
                            Three-body k3    0.0000000    eV*rad^-3 
--------------------------------------------------------------------------------
Si    core    Harmonic      Three-body cnst  1.2614000    eV*rad^-2 0.000  1.900
O1    shel                  Three-body angl  109.47000    degrees   0.000  1.900
õ(2   shel                  Three-body k4    0.0000000    eV*rad^-4 0.000  3.500
                            Three-body k3    0.0000000    eV*rad^-3 
--------------------------------------------------------------------------------
Si    core    Harmonic      Three-body cnst  1.2614000    eV*rad^-2 0.000  1.900
O2    shel                  Three-body angl  109.47000    degrees   0.000  1.900
õ(1   shel                  Three-body k4    0.0000000    eV*rad^-4 0.000  3.500
                            Three-body k3    0.0000000    eV*rad^-3 
--------------------------------------------------------------------------------
Si    core    Harmonic      Three-body cnst  1.2614000    eV*rad^-2 0.000  1.900
õ(1   shel                  Three-body angl  109.47000    degrees   0.000  1.900
õ(2   shel                  Three-body k4    0.0000000    eV*rad^-4 0.000  3.500
                            Three-body k3    0.0000000    eV*rad^-3 
--------------------------------------------------------------------------------
Si    core    Harmonic      Three-body cnst  1.2614000    eV*rad^-2 0.000  1.900
O2    shel                  Three-body angl  109.47000    degrees   0.000  1.900
O2    shel                  Three-body k4    0.0000000    eV*rad^-4 0.000  3.500
                            Three-body k3    0.0000000    eV*rad^-3 
--------------------------------------------------------------------------------
Si    core    Harmonic      Three-body cnst  1.2614000    eV*rad^-2 0.000  1.900
O2    shel                  Three-body angl  109.47000    degrees   0.000  1.900
õ(2   shel                  Three-body k4    0.0000000    eV*rad^-4 0.000  3.500
                            Three-body k3    0.0000000    eV*rad^-3 
--------------------------------------------------------------------------------
Si    core    Harmonic      Three-body cnst  1.2614000    eV*rad^-2 0.000  1.900
õ(2   shel                  Three-body angl  109.47000    degrees   0.000  1.900
õ(2   shel                  Three-body k4    0.0000000    eV*rad^-4 0.000  3.500
                            Three-body k3    0.0000000    eV*rad^-3 
--------------------------------------------------------------------------------

********************************************************************************
*  Output for configuration   1 : POSCAR_N0007.vasp                            *
********************************************************************************


  Components of energy : 

--------------------------------------------------------------------------------
  Interatomic potentials     =         792.35580794 eV    
  Three-body potentials      =           0.00640903 eV    
  Monopole - monopole (real) =       -2676.00317478 eV    
  Monopole - monopole (recip)=       -1115.35404472 eV    
  Monopole - monopole (total)=       -3791.35721950 eV    
--------------------------------------------------------------------------------
  Total lattice energy       =       -2998.99500254 eV    
--------------------------------------------------------------------------------
  Total lattice energy       =         -289357.1739 kJ/(mole unit cells)
--------------------------------------------------------------------------------


  Number of variables =      363

  Maximum number of calculations  =          1000
  Maximum Hessian update interval =            10
  Maximum step size               =   0.100000000
  Maximum parameter tolerance     =   0.000010000
  Maximum function  tolerance     =   0.000010000
  Maximum gradient  tolerance     =   0.001000000
  Maximum gradient  component     =   0.010000000

  Symmetry not applied to optimisation

  Cell parameters to be optimised using strains

  Newton-Raphson optimiser to be used

  BFGS hessian update to be used

  Lower half triangular hessian to be used

  Minimiser to switch to RFO
  When gradient norm is less than     0.050000

  Dumpfile to be written after every cycle

  Start of bulk optimisation :

  Cycle:      0 Energy:     -2998.995003  Gnorm:      4.808501  CPU:    0.079
  ** Hessian calculated **
  Cycle:      1 Energy:     -3031.967152  Gnorm:      1.129965  CPU:    0.169
  ** Hessian calculated **
  Cycle:      2 Energy:     -3035.704147  Gnorm:      0.800003  CPU:    0.333
  ** Hessian calculated **
  Cycle:      3 Energy:     -3037.199724  Gnorm:      0.487433  CPU:    0.472
  Cycle:      4 Energy:     -3037.872272  Gnorm:      0.347970  CPU:    0.544
  Cycle:      5 Energy:     -3038.645195  Gnorm:      0.273991  CPU:    0.628
  Cycle:      6 Energy:     -3039.329493  Gnorm:      0.202474  CPU:    0.713
  Cycle:      7 Energy:     -3039.649454  Gnorm:      0.156636  CPU:    0.785
  Cycle:      8 Energy:     -3039.809083  Gnorm:      0.108715  CPU:    0.857
  Cycle:      9 Energy:     -3039.880029  Gnorm:      0.073621  CPU:    0.928
  Cycle:     10 Energy:     -3039.917491  Gnorm:      0.058734  CPU:    1.012
  Cycle:     11 Energy:     -3039.945665  Gnorm:      0.056803  CPU:    1.097
  Cycle:     12 Energy:     -3039.981535  Gnorm:      0.066294  CPU:    1.181
  ** Hessian calculated **
  Cycle:     13 Energy:     -3039.995501  Gnorm:      0.065776  CPU:    1.333
  Cycle:     14 Energy:     -3040.018861  Gnorm:      0.064886  CPU:    1.430
  Cycle:     15 Energy:     -3040.053481  Gnorm:      0.063506  CPU:    1.528
  Cycle:     16 Energy:     -3040.092257  Gnorm:      0.061855  CPU:    1.613
  Cycle:     17 Energy:     -3040.142897  Gnorm:      0.059562  CPU:    1.731
  Cycle:     18 Energy:     -3040.170466  Gnorm:      0.059030  CPU:    1.822
  ** Hessian calculated **
  Cycle:     19 Energy:     -3040.390548  Gnorm:      0.052422  CPU:    1.985
  Cycle:     20 Energy:     -3040.658310  Gnorm:      0.059860  CPU:    2.076
  ** Hessian calculated **
  Cycle:     21 Energy:     -3040.776924  Gnorm:      0.044279  CPU:    2.223
  ** Hessian has wrong structure
  ** Imaginary eigenvectors =   2
  Cycle:     22 Energy:     -3040.788799  Gnorm:      0.076089  CPU:    2.430
  ** Hessian has wrong structure
  ** Imaginary eigenvectors =   1
  ** Hessian has required structure
  Cycle:     23 Energy:     -3040.889180  Gnorm:      0.041728  CPU:    2.784
  ** Hessian has required structure
  Cycle:     24 Energy:     -3040.932756  Gnorm:      0.025701  CPU:    2.920
  ** Hessian has required structure
  Cycle:     25 Energy:     -3040.953914  Gnorm:      0.028933  CPU:    3.042
  ** Hessian has required structure
  Cycle:     26 Energy:     -3040.987488  Gnorm:      0.032460  CPU:    3.165
  ** Hessian has required structure
  Cycle:     27 Energy:     -3041.003646  Gnorm:      0.033111  CPU:    3.302
  ** Hessian has required structure
  Cycle:     28 Energy:     -3041.021870  Gnorm:      0.037902  CPU:    3.432
  ** Hessian has required structure
  Cycle:     29 Energy:     -3041.036668  Gnorm:      0.041228  CPU:    3.551
  ** Hessian has required structure
  Cycle:     30 Energy:     -3041.055094  Gnorm:      0.034642  CPU:    3.657
  ** Hessian has required structure
  Cycle:     31 Energy:     -3041.078137  Gnorm:      0.035714  CPU:    3.789
  ** Hessian has required structure
  Cycle:     32 Energy:     -3041.086407  Gnorm:      0.029342  CPU:    3.895
  ** Hessian has required structure
  Cycle:     33 Energy:     -3041.109307  Gnorm:      0.021425  CPU:    4.095
  ** Hessian has required structure
  Cycle:     34 Energy:     -3041.124304  Gnorm:      0.015445  CPU:    4.215
  ** Hessian has required structure
  Cycle:     35 Energy:     -3041.131534  Gnorm:      0.008644  CPU:    4.335
  ** Hessian has required structure
  Cycle:     36 Energy:     -3041.135050  Gnorm:      0.010837  CPU:    4.454
  ** Hessian has required structure
  Cycle:     37 Energy:     -3041.138362  Gnorm:      0.007857  CPU:    4.572
  ** Hessian has required structure
  Cycle:     38 Energy:     -3041.140420  Gnorm:      0.007158  CPU:    4.704
  ** Hessian has required structure
  Cycle:     39 Energy:     -3041.142028  Gnorm:      0.005093  CPU:    4.822
  ** Hessian has required structure
  Cycle:     40 Energy:     -3041.143033  Gnorm:      0.003899  CPU:    4.940
  ** Hessian has required structure
  Cycle:     41 Energy:     -3041.143521  Gnorm:      0.002736  CPU:    5.058
  ** Hessian has required structure
  Cycle:     42 Energy:     -3041.143786  Gnorm:      0.002140  CPU:    5.176
  ** Hessian has required structure
  Cycle:     43 Energy:     -3041.143960  Gnorm:      0.001115  CPU:    5.372
  ** Hessian has required structure
  Cycle:     44 Energy:     -3041.144014  Gnorm:      0.000602  CPU:    5.504
  ** Hessian has required structure
  Cycle:     45 Energy:     -3041.144040  Gnorm:      0.000261  CPU:    5.649
  ** Hessian has required structure
  Cycle:     46 Energy:     -3041.144043  Gnorm:      0.000195  CPU:    5.753
  ** Hessian has required structure
  Cycle:     47 Energy:     -3041.144043  Gnorm:      0.000191  CPU:    5.858
  ** Hessian has required structure
  Cycle:     48 Energy:     -3041.144043  Gnorm:      0.000188  CPU:    5.963
  ** Hessian has required structure
  Cycle:     49 Energy:     -3041.144043  Gnorm:      0.000187  CPU:    6.067
  ** Hessian has required structure
  Cycle:     50 Energy:     -3041.144043  Gnorm:      0.000185  CPU:    6.172
  ** Hessian has required structure
  Cycle:     51 Energy:     -3041.144043  Gnorm:      0.000184  CPU:    6.277
  ** Hessian has required structure
  Cycle:     52 Energy:     -3041.144043  Gnorm:      0.000184  CPU:    6.383
  ** Hessian has required structure
  Cycle:     53 Energy:     -3041.144043  Gnorm:      0.000184  CPU:    6.594
  ** Hessian calculated **
  Cycle:     54 Energy:     -3041.144043  Gnorm:      0.000133  CPU:    6.725
  ** Hessian has required structure
  Cycle:     55 Energy:     -3041.144043  Gnorm:      0.000177  CPU:    6.832
  ** Hessian has required structure
  Cycle:     56 Energy:     -3041.144043  Gnorm:      0.000177  CPU:    6.939
  ** Hessian has required structure
  Cycle:     57 Energy:     -3041.144043  Gnorm:      0.000190  CPU:    7.045
  ** Hessian has required structure
  Cycle:     58 Energy:     -3041.144043  Gnorm:      0.000164  CPU:    7.155
  ** Hessian has required structure
  Cycle:     59 Energy:     -3041.144043  Gnorm:      0.000153  CPU:    7.267
  ** Hessian has required structure
  Cycle:     60 Energy:     -3041.144043  Gnorm:      0.000163  CPU:    7.379
  ** Hessian has required structure
  Cycle:     61 Energy:     -3041.144043  Gnorm:      0.000142  CPU:    7.492
  ** Hessian has required structure
  Cycle:     62 Energy:     -3041.144043  Gnorm:      0.000141  CPU:    7.603
  ** Hessian has required structure
  Cycle:     63 Energy:     -3041.144043  Gnorm:      0.000133  CPU:    7.713
  ** Hessian has required structure


  **** Optimisation achieved ****


  Final energy =   -3041.14404353 eV      
  Final Gnorm  =       0.00012252

  Components of energy : 

--------------------------------------------------------------------------------
  Interatomic potentials     =         810.82191834 eV    
  Three-body potentials      =           0.07652980 eV    
  Monopole - monopole (real) =       -2060.81957094 eV    
  Monopole - monopole (recip)=       -1791.22292073 eV    
  Monopole - monopole (total)=       -3852.04249167 eV    
--------------------------------------------------------------------------------
  Total lattice energy       =       -3041.14404353 eV    
--------------------------------------------------------------------------------
  Total lattice energy       =         -293423.9121 kJ/(mole unit cells)
--------------------------------------------------------------------------------

  Final fractional coordinates of atoms :

--------------------------------------------------------------------------------
   No.  Atomic        x           y          z          Radius
        Label       (Frac)      (Frac)     (Frac)       (Angs) 
--------------------------------------------------------------------------------
     1  Ge    c     0.447910    0.000000    0.372270    0.000000
     2  Ge    c     0.950495    0.003986    0.621004    0.000000
     3  Ge    c     0.150481    0.326001    0.293902    0.000000
     4  Ge    c     0.653691    0.324550    0.710334    0.000000
     5  Ge    c     0.847925    0.663035    0.041882    0.000000
     6  Ge    c     0.349080    0.672013    0.972438    0.000000
     7  Ge    c     0.664616    0.682406    0.055794    0.000000
     8  Si    c     0.045436    0.022516    0.354652    0.000000
     9  Si    c     0.548559    0.025896    0.632316    0.000000
    10  Si    c     0.558685    0.991458    0.121206    0.000000
    11  Si    c     0.946103    0.974932    0.102066    0.000000
    12  Si    c     0.447409    0.977830    0.879814    0.000000
    13  Si    c     0.062142    0.005041    0.865373    0.000000
    14  Si    c     0.342161    0.699995    0.279510    0.000000
    15  Si    c     0.835866    0.302243    0.704768    0.000000
    16  Si    c     0.664059    0.732391    0.741899    0.000000
    17  Si    c     0.840005    0.707356    0.732801    0.000000
    18  Si    c     0.163422    0.731148    0.269680    0.000000
    19  Si    c     0.331428    0.296081    0.302507    0.000000
    20  Si    c     0.657029    0.289787    0.017191    0.000000
    21  Si    c     0.336981    0.267516    0.998999    0.000000
    22  Si    c     0.167214    0.700187    0.962949    0.000000
    23  Si    c     0.158432    0.303328    0.983137    0.000000
    24  Si    c     0.838603    0.268183    0.004908    0.000000
    25  O3    c     0.083978    0.207723    0.380898    0.000000
    26  O3    c     0.396279    0.810363    0.370052    0.000000
    27  O3    c     0.892192    0.190085    0.613844    0.000000
    28  O2    c     0.613981    0.883977    0.672749    0.000000
    29  O3    c     0.897665    0.821045    0.649370    0.000000
    30  O3    c     0.588770    0.211845    0.618395    0.000000
    31  O2    c     0.116691    0.883606    0.342312    0.000000
    32  O3    c     0.385074    0.176324    0.394144    0.000000
    33  O3    c     0.987270    0.970683    0.466367    0.000000
    34  O3    c     0.513841    0.975328    0.494927    0.000000
    35  O2    c     0.999492    0.033960    0.218508    0.000000
    36  O3    c     0.497800    0.041153    0.230118    0.000000
    37  O3    c     0.028898    0.023612    0.721599    0.000000
    38  O2    c     0.478634    0.032013    0.737528    0.000000
    39  O2    c     0.622525    0.141711    0.110643    0.000000
    40  O3    c     0.914509    0.783350    0.126487    0.000000
    41  O2    c     0.380191    0.114616    0.921272    0.000000
    42  O2    c     0.116939    0.831926    0.873207    0.000000
    43  O3    c     0.410896    0.787771    0.874068    0.000000
    44  O2    c     0.109678    0.178508    0.892433    0.000000
    45  O3    c     0.604342    0.811569    0.151108    0.000000
    46  O2    c     0.871950    0.107709    0.090919    0.000000
    47  O2    c     0.517118    0.974613    0.981549    0.000000
    48  O2    c     0.991488    0.986242    0.965326    0.000000
    49  O3    c     0.129027    0.545882    0.308001    0.000000
    50  O2    c     0.359779    0.494801    0.302801    0.000000
    51  O2    c     0.859997    0.503401    0.707799    0.000000
    52  O3    c     0.631367    0.544837    0.705431    0.000000
    53  O3    c     0.243461    0.288587    0.349255    0.000000
    54  O2    c     0.252377    0.740302    0.313560    0.000000
    55  O3    c     0.747822    0.288906    0.659183    0.000000
    56  O2    c     0.751737    0.746244    0.687595    0.000000
    57  O3    c     0.143576    0.260475    0.133435    0.000000
    58  O3    c     0.359032    0.749441    0.129361    0.000000
    59  O2    c     0.846141    0.220809    0.851516    0.000000
    60  O3    c     0.665696    0.758248    0.896200    0.000000
    61  O3    c     0.847335    0.748401    0.884803    0.000000
    62  O3    c     0.640999    0.246655    0.867895    0.000000
    63  O2    c     0.159653    0.759709    0.113301    0.000000
    64  O2    c     0.338314    0.223584    0.153912    0.000000
    65  O3    c     0.623919    0.478224    0.057245    0.000000
    66  O3    c     0.879821    0.446865    0.038819    0.000000
    67  O3    c     0.374710    0.452565    0.969196    0.000000
    68  O2    c     0.134439    0.504796    0.950307    0.000000
    69  O2    c     0.749068    0.305326    0.039015    0.000000
    70  O1    c     0.757802    0.684380    0.110266    0.000000
    71  O2    c     0.248916    0.276130    0.949944    0.000000
    72  O3    c     0.255456    0.702034    0.918771    0.000000
    73  O3    s     0.085673    0.199666    0.371428    0.000000
    74  O3    s     0.394848    0.814350    0.360778    0.000000
    75  O3    s     0.891087    0.186702    0.623757    0.000000
    76  O2    s     0.612460    0.882388    0.676214    0.000000
    77  O3    s     0.896015    0.824565    0.655909    0.000000
    78  O3    s     0.590149    0.203077    0.627150    0.000000
    79  O2    s     0.114464    0.880981    0.335350    0.000000
    80  O3    s     0.384650    0.174474    0.383164    0.000000
    81  O3    s     0.990560    0.979141    0.467076    0.000000
    82  O3    s     0.511739    0.982811    0.498702    0.000000
    83  O2    s     0.998310    0.025837    0.219784    0.000000
    84  O3    s     0.500243    0.032252    0.230217    0.000000
    85  O3    s     0.025802    0.020023    0.728278    0.000000
    86  O2    s     0.482551    0.025458    0.742047    0.000000
    87  O2    s     0.619676    0.142373    0.101397    0.000000
    88  O3    s     0.912451    0.792888    0.117487    0.000000
    89  O2    s     0.382608    0.117056    0.925664    0.000000
    90  O2    s     0.116696    0.835723    0.882308    0.000000
    91  O3    s     0.409427    0.796799    0.882621    0.000000
    92  O2    s     0.109983    0.173625    0.899724    0.000000
    93  O3    s     0.604649    0.818868    0.140698    0.000000
    94  O2    s     0.875860    0.111639    0.082560    0.000000
    95  O2    s     0.513786    0.976771    0.985129    0.000000
    96  O2    s     0.994348    0.987126    0.969166    0.000000
    97  O3    s     0.134192    0.546541    0.303064    0.000000
    98  O2    s     0.354864    0.495557    0.300278    0.000000
    99  O2    s     0.855284    0.503095    0.710103    0.000000
   100  O3    s     0.636354    0.545182    0.709340    0.000000
   101  O3    s     0.244731    0.292350    0.340166    0.000000
   102  O2    s     0.252302    0.735048    0.305288    0.000000
   103  O3    s     0.748881    0.293087    0.667711    0.000000
   104  O2    s     0.751837    0.740794    0.697789    0.000000
   105  O3    s     0.145661    0.270120    0.130978    0.000000
   106  O3    s     0.356652    0.738601    0.131413    0.000000
   107  O2    s     0.844367    0.233700    0.852646    0.000000
   108  O3    s     0.665438    0.749500    0.893457    0.000000
   109  O3    s     0.846661    0.737524    0.882164    0.000000
   110  O3    s     0.643630    0.257223    0.870354    0.000000
   111  O2    s     0.160845    0.750418    0.113895    0.000000
   112  O2    s     0.337501    0.235334    0.152781    0.000000
   113  O3    s     0.630362    0.475654    0.053202    0.000000
   114  O3    s     0.873339    0.446234    0.035803    0.000000
   115  O3    s     0.368990    0.451819    0.972338    0.000000
   116  O2    s     0.140297    0.504233    0.955015    0.000000
   117  O2    s     0.749124    0.300041    0.032956    0.000000
   118  O1    s     0.757516    0.682593    0.100960    0.000000
   119  O2    s     0.248771    0.278196    0.958807    0.000000
   120  O3    s     0.254118    0.699387    0.927623    0.000000
--------------------------------------------------------------------------------

  Final Cartesian lattice vectors (Angstroms) :

       17.320993    0.204178    0.036034
        0.090291    7.661700    0.039545
        0.022018    0.058363   10.226157


  Final cell parameters and derivatives :

--------------------------------------------------------------------------------
       a           17.322234 Angstrom     dE/de1(xx)     0.007946 eV/strain
       b            7.662334 Angstrom     dE/de2(yy)     0.003472 eV/strain
       c           10.226348 Angstrom     dE/de3(zz)     0.005380 eV/strain
       alpha       89.375870 Degrees      dE/de4(yz)     0.000352 eV/strain
       beta        89.753606 Degrees      dE/de5(xz)    -0.001313 eV/strain
       gamma       88.648860 Degrees      dE/de6(xy)    -0.002744 eV/strain
--------------------------------------------------------------------------------

  Primitive cell volume =          1356.861266 Angs**3

  Density of cell =      2.146350 g/cm**3

  Non-primitive cell volume =          1356.861266 Angs**3


  Final internal derivatives :

--------------------------------------------------------------------------------
   No.  Atomic          a             b             c           Radius
        Label          (eV)          (eV)          (eV)        (eV/Angs)
--------------------------------------------------------------------------------
      1 Ge    c       0.000000      0.000000      0.000000      0.000000
      2 Ge    c      -0.001764     -0.001466      0.000846      0.000000
      3 Ge    c      -0.002696      0.000049     -0.000167      0.000000
      4 Ge    c      -0.000303     -0.000036      0.000050      0.000000
      5 Ge    c       0.001411     -0.001695     -0.001822      0.000000
      6 Ge    c       0.002245      0.000866     -0.000118      0.000000
      7 Ge    c       0.001845     -0.001808     -0.001536      0.000000
      8 Si    c       0.004383      0.002047      0.000147      0.000000
      9 Si    c       0.000381     -0.000279     -0.000216      0.000000
     10 Si    c      -0.001864      0.001270     -0.004590      0.000000
     11 Si    c       0.002632     -0.001035     -0.000321      0.000000
     12 Si    c       0.002068     -0.000762      0.004681      0.000000
     13 Si    c       0.001658      0.000625     -0.000087      0.000000
     14 Si    c       0.001593     -0.000191     -0.001570      0.000000
     15 Si    c      -0.001934      0.002645     -0.000465      0.000000
     16 Si    c       0.006888     -0.000139     -0.000545      0.000000
     17 Si    c       0.000267      0.000913      0.001533      0.000000
     18 Si    c       0.002469     -0.002657      0.000296      0.000000
     19 Si    c      -0.002421      0.001728      0.000137      0.000000
     20 Si    c      -0.005944     -0.002388     -0.001639      0.000000
     21 Si    c       0.000962      0.001120     -0.001124      0.000000
     22 Si    c      -0.000638     -0.000789     -0.000351      0.000000
     23 Si    c      -0.003139     -0.000399      0.000652      0.000000
     24 Si    c       0.003469      0.002723     -0.000377      0.000000
     25 O3    c       0.002436     -0.001236      0.001511      0.000000
     26 O3    c       0.004649      0.000319      0.000937      0.000000
     27 O3    c       0.004783     -0.000879     -0.003706      0.000000
     28 O2    c      -0.003734      0.001441     -0.000655      0.000000
     29 O3    c       0.001012     -0.000029     -0.001103      0.000000
     30 O3    c       0.000907      0.000541     -0.000622      0.000000
     31 O2    c      -0.000729      0.000347      0.001053      0.000000
     32 O3    c       0.004973      0.000414      0.000798      0.000000
     33 O3    c      -0.001344     -0.001557      0.002884      0.000000
     34 O3    c       0.002497     -0.000892      0.002909      0.000000
     35 O2    c      -0.001509      0.000222     -0.001074      0.000000
     36 O3    c      -0.005635      0.003273      0.007074      0.000000
     37 O3    c       0.003497     -0.000264      0.001011      0.000000
     38 O2    c      -0.002218      0.000212     -0.000932      0.000000
     39 O2    c       0.005359     -0.003083      0.003215      0.000000
     40 O3    c       0.003568      0.000069      0.003304      0.000000
     41 O2    c       0.000622     -0.001856     -0.001875      0.000000
     42 O2    c      -0.000515      0.000050      0.000538      0.000000
     43 O3    c      -0.003706      0.000715      0.000622      0.000000
     44 O2    c       0.001317     -0.000133     -0.000092      0.000000
     45 O3    c       0.001289     -0.003396      0.003467      0.000000
     46 O2    c      -0.003911      0.000123      0.000523      0.000000
     47 O2    c      -0.001693     -0.000051     -0.000570      0.000000
     48 O2    c      -0.001187     -0.000297      0.001831      0.000000
     49 O3    c      -0.000283      0.004420     -0.001774      0.000000
     50 O2    c       0.001514     -0.001638      0.000004      0.000000
     51 O2    c       0.003309     -0.004242      0.001066      0.000000
     52 O3    c      -0.001705     -0.001809     -0.000608      0.000000
     53 O3    c       0.003875     -0.000420      0.000103      0.000000
     54 O2    c      -0.004751      0.000583      0.000142      0.000000
     55 O3    c      -0.000450     -0.000168     -0.000716      0.000000
     56 O2    c      -0.004409      0.000085      0.000005      0.000000
     57 O3    c       0.002589      0.000341     -0.002483      0.000000
     58 O3    c      -0.001148     -0.000387      0.001806      0.000000
     59 O2    c       0.000715     -0.002301      0.005862      0.000000
     60 O3    c       0.000134      0.000040      0.009793      0.000000
     61 O3    c       0.000492     -0.000546     -0.002002      0.000000
     62 O3    c      -0.003909     -0.001788     -0.000655      0.000000
     63 O2    c      -0.000348      0.000363      0.000117      0.000000
     64 O2    c      -0.000983     -0.000568     -0.000321      0.000000
     65 O3    c       0.003635      0.008527      0.005946      0.000000
     66 O3    c      -0.002519     -0.001243     -0.001487      0.000000
     67 O3    c      -0.001005     -0.002540      0.000347      0.000000
     68 O2    c       0.001009      0.000952      0.000260      0.000000
     69 O2    c       0.007282      0.005045     -0.000165      0.000000
     70 O1    c      -0.002449     -0.002116      0.003694      0.000000
     71 O2    c       0.001214     -0.000876     -0.000631      0.000000
     72 O3    c       0.000857      0.000351     -0.000701      0.000000
     73 O3    s      -0.004122      0.000974     -0.001779      0.000000
     74 O3    s      -0.001973      0.001436      0.000816      0.000000
     75 O3    s      -0.003072      0.001008      0.001390      0.000000
     76 O2    s       0.002216     -0.000086     -0.000427      0.000000
     77 O3    s       0.000538      0.000861      0.001169      0.000000
     78 O3    s      -0.002763     -0.000137     -0.002102      0.000000
     79 O2    s       0.001815     -0.000777     -0.000601      0.000000
     80 O3    s      -0.005336     -0.001234      0.000186      0.000000
     81 O3    s      -0.000551      0.000933     -0.002145      0.000000
     82 O3    s      -0.001602      0.000122     -0.002681      0.000000
     83 O2    s       0.002705     -0.000540      0.001022      0.000000
     84 O3    s      -0.000285      0.000537     -0.004249      0.000000
     85 O3    s      -0.003221      0.000620     -0.000592      0.000000
     86 O2    s       0.001991      0.000060     -0.000267      0.000000
     87 O2    s      -0.002285      0.000788     -0.000449      0.000000
     88 O3    s      -0.001012      0.000250     -0.002575      0.000000
     89 O2    s       0.000647      0.001672      0.000631      0.000000
     90 O2    s       0.001340     -0.000595     -0.000152      0.000000
     91 O3    s       0.004741     -0.000649     -0.000896      0.000000
     92 O2    s      -0.001699      0.000580      0.000298      0.000000
     93 O3    s      -0.000940     -0.001037     -0.001015      0.000000
     94 O2    s       0.000825      0.001552     -0.000093      0.000000
     95 O2    s      -0.000849     -0.000619     -0.001932      0.000000
     96 O2    s      -0.000951      0.000053     -0.000961      0.000000
     97 O3    s       0.001549     -0.001726     -0.000126      0.000000
     98 O2    s      -0.001639      0.000069     -0.000195      0.000000
     99 O2    s      -0.004131      0.001224     -0.000460      0.000000
    100 O3    s      -0.000891      0.001772      0.001496      0.000000
    101 O3    s       0.001456     -0.000184     -0.000032      0.000000
    102 O2    s      -0.002116     -0.001084     -0.001169      0.000000
    103 O3    s       0.002545      0.002419      0.000109      0.000000
    104 O2    s       0.000905     -0.001035      0.000423      0.000000
    105 O3    s      -0.003290     -0.000325      0.001294      0.000000
    106 O3    s       0.002286      0.000399     -0.000972      0.000000
    107 O2    s      -0.000021      0.001762     -0.003473      0.000000
    108 O3    s       0.001001     -0.000312     -0.005983      0.000000
    109 O3    s      -0.000753     -0.000685      0.001913      0.000000
    110 O3    s       0.002688      0.002536      0.000295      0.000000
    111 O2    s       0.001183     -0.000585      0.000538      0.000000
    112 O2    s       0.001709      0.000481      0.001102      0.000000
    113 O3    s      -0.009863     -0.004041     -0.004957      0.000000
    114 O3    s      -0.000882     -0.000073     -0.000475      0.000000
    115 O3    s       0.001347      0.001132     -0.000392      0.000000
    116 O2    s      -0.001480      0.000093      0.000167      0.000000
    117 O2    s       0.006890     -0.003613     -0.002796      0.000000
    118 O1    s       0.000456      0.002605     -0.004337      0.000000
    119 O2    s      -0.000824      0.000748      0.000940      0.000000
    120 O3    s      -0.003456     -0.000160      0.001122      0.000000
--------------------------------------------------------------------------------
  Maximum abs         0.009863      0.008527      0.009793      0.000000
--------------------------------------------------------------------------------


  Born effective charge tensors : 

-------------------------------------------------------------------------------
  Atom             x           y             z
-------------------------------------------------------------------------------
    1 Ge    x       4.1767      0.0871      0.0629
            y      -0.0292      3.8778      0.0716
            z       0.7590     -0.1826      4.4328
-------------------------------------------------------------------------------
    2 Ge    x       4.1822     -0.0090     -0.3391
            y      -0.0273      3.8988     -0.0953
            z      -0.2849      0.1975      4.5685
-------------------------------------------------------------------------------
    3 Ge    x       3.8888      0.3183     -0.0614
            y       0.3696      4.2070     -0.2315
            z      -0.1360     -0.0224      3.3984
-------------------------------------------------------------------------------
    4 Ge    x       3.9342      0.3011      0.0813
            y       0.3548      4.1857      0.2732
            z       0.1308      0.0215      3.3900
-------------------------------------------------------------------------------
    5 Ge    x       4.0606      0.3902      0.0450
            y       0.2962      4.2218      0.3332
            z       0.1425      0.0135      3.2881
-------------------------------------------------------------------------------
    6 Ge    x       3.9886      0.3288     -0.1596
            y       0.3001      4.2022     -0.3420
            z      -0.1844     -0.0172      3.2925
-------------------------------------------------------------------------------
    7 Ge    x       4.0896     -0.4085     -0.0968
            y      -0.1912      4.1474      0.3008
            z      -0.1677      0.0280      3.3112
-------------------------------------------------------------------------------
    8 Si    x       3.7383      0.3857     -0.1881
            y       0.0745      3.4960      0.1067
            z      -0.8173     -0.3083      4.0300
-------------------------------------------------------------------------------
    9 Si    x       3.6517      0.4071      0.4471
            y       0.1316      3.5062     -0.0754
            z       0.4533      0.3504      4.2064
-------------------------------------------------------------------------------
   10 Si    x       3.8411     -0.3134     -0.1968
            y      -0.1281      3.5049     -0.0459
            z      -0.7522      0.2249      3.2865
-------------------------------------------------------------------------------
   11 Si    x       3.5392      0.3643      0.0364
            y      -0.0230      3.5182     -0.1286
            z       0.5459      0.1516      3.0376
-------------------------------------------------------------------------------
   12 Si    x       3.6176      0.3544     -0.3170
            y       0.0344      3.5049      0.1127
            z      -0.3897     -0.1943      3.1419
-------------------------------------------------------------------------------
   13 Si    x       3.5801      0.0035      0.4618
            y      -0.0409      3.3089      0.0256
            z       0.5079     -0.1009      3.5321
-------------------------------------------------------------------------------
   14 Si    x       3.4297      0.3902      0.1935
            y       0.3836      3.6024      0.2831
            z       0.2283      0.1128      3.2887
-------------------------------------------------------------------------------
   15 Si    x       3.7344     -0.3868     -0.1348
            y      -0.3252      3.5663      0.3871
            z      -0.1839      0.1494      3.0327
-------------------------------------------------------------------------------
   16 Si    x       3.3144     -0.2660      0.0356
            y      -0.0537      3.8030      0.0407
            z       0.1843      0.0379      3.1624
-------------------------------------------------------------------------------
   17 Si    x       3.4610      0.4089     -0.1579
            y       0.3929      3.6352     -0.2517
            z      -0.2914     -0.1088      3.2772
-------------------------------------------------------------------------------
   18 Si    x       3.2130     -0.2311     -0.0769
            y       0.0091      3.7190      0.0288
            z      -0.1222      0.0140      2.8610
-------------------------------------------------------------------------------
   19 Si    x       3.6935     -0.4322      0.1393
            y      -0.3082      3.5923     -0.3647
            z       0.1872     -0.1365      3.0294
-------------------------------------------------------------------------------
   20 Si    x       3.3367      0.3724     -0.1835
            y       0.0212      3.7457      0.0446
            z      -0.1121      0.1101      3.0749
-------------------------------------------------------------------------------
   21 Si    x       3.2921     -0.2810     -0.1233
            y       0.0453      3.7425      0.1089
            z      -0.1811      0.0397      2.7988
-------------------------------------------------------------------------------
   22 Si    x       3.5670     -0.3141      0.0262
            y      -0.1388      3.4773     -0.2101
            z       0.0654     -0.0464      2.7843
-------------------------------------------------------------------------------
   23 Si    x       3.2831      0.3073      0.0998
            y       0.1993      3.4955      0.1144
            z       0.1117      0.0109      3.0572
-------------------------------------------------------------------------------
   24 Si    x       3.2671     -0.3710      0.2087
            y       0.0869      3.6613     -0.0815
            z       0.1606      0.0276      2.7604
-------------------------------------------------------------------------------
   25 O3    x      -1.9340     -0.8988      0.2362
            y      -0.8852     -2.5074      0.1637
            z       0.3621      0.2075     -1.5128
-------------------------------------------------------------------------------
   26 O3    x      -2.0225     -0.9563     -0.4788
            y      -0.9240     -2.3434     -0.5143
            z      -0.5799     -0.5078     -1.6091
-------------------------------------------------------------------------------
   27 O3    x      -2.0304      0.9287      0.4929
            y       0.9262     -2.2644     -0.4493
            z       0.5375     -0.4789     -1.6507
-------------------------------------------------------------------------------
   28 O2    x      -1.7913      0.6751     -0.3385
            y       0.6951     -1.9134      0.3520
            z      -0.3620      0.3163     -1.3402
-------------------------------------------------------------------------------
   29 O3    x      -2.0998     -0.9848      0.5538
            y      -0.9704     -2.3531      0.5682
            z       0.5796      0.5366     -1.6036
-------------------------------------------------------------------------------
   30 O3    x      -1.9588     -0.9129     -0.3456
            y      -0.9025     -2.4935     -0.2571
            z      -0.3817     -0.2932     -1.5241
-------------------------------------------------------------------------------
   31 O2    x      -1.7767      0.6634      0.2589
            y       0.7004     -1.8942     -0.3148
            z       0.3420     -0.2733     -1.3133
-------------------------------------------------------------------------------
   32 O3    x      -2.0323      0.9252     -0.4001
            y       0.9344     -2.2587      0.4076
            z      -0.5048      0.4224     -1.6356
-------------------------------------------------------------------------------
   33 O3    x      -1.9446     -0.1251      1.0655
            y      -0.0597     -1.2351      0.0720
            z       1.3005      0.1252     -3.3218
-------------------------------------------------------------------------------
   34 O3    x      -1.9265     -0.1205     -1.0578
            y      -0.0574     -1.2306     -0.1490
            z      -1.2992     -0.2417     -3.3478
-------------------------------------------------------------------------------
   35 O2    x      -1.6723     -0.1337     -0.6696
            y      -0.0292     -1.1585     -0.0766
            z      -0.6553     -0.1114     -2.1456
-------------------------------------------------------------------------------
   36 O3    x      -2.1298      0.0902      0.9971
            y       0.0832     -1.2642     -0.0667
            z       1.0128     -0.0681     -2.5998
-------------------------------------------------------------------------------
   37 O3    x      -2.0541     -0.0113     -0.9362
            y       0.0034     -1.2187      0.0213
            z      -0.9842      0.0278     -2.8119
-------------------------------------------------------------------------------
   38 O2    x      -1.7043     -0.1062      0.6376
            y      -0.0077     -1.1318      0.0796
            z       0.6104      0.1339     -2.1731
-------------------------------------------------------------------------------
   39 O2    x      -1.6928     -0.6631      0.2741
            y      -0.6025     -1.9055      0.3334
            z       0.3191      0.2941     -1.2587
-------------------------------------------------------------------------------
   40 O3    x      -1.9288     -0.9273     -0.2612
            y      -0.8138     -2.5799     -0.1968
            z      -0.3709     -0.2303     -1.3390
-------------------------------------------------------------------------------
   41 O2    x      -1.7921      0.6682      0.4414
            y       0.6591     -1.8929     -0.4518
            z       0.4142     -0.3640     -1.2916
-------------------------------------------------------------------------------
   42 O2    x      -1.6552      0.6968     -0.3212
            y       0.6414     -1.9905      0.3419
            z      -0.3118      0.3296     -1.2789
-------------------------------------------------------------------------------
   43 O3    x      -1.9756     -0.9402      0.4148
            y      -0.8426     -2.5489      0.3517
            z       0.3930      0.3263     -1.4067
-------------------------------------------------------------------------------
   44 O2    x      -1.6579     -0.7080     -0.3775
            y      -0.6305     -2.0148     -0.4091
            z      -0.3623     -0.3798     -1.2824
-------------------------------------------------------------------------------
   45 O3    x      -1.9507      0.9151      0.2178
            y       0.8612     -2.4641     -0.2039
            z       0.3135     -0.2057     -1.3979
-------------------------------------------------------------------------------
   46 O2    x      -1.7653      0.6458     -0.2953
            y       0.6141     -1.8618      0.3670
            z      -0.3358      0.2967     -1.2400
-------------------------------------------------------------------------------
   47 O2    x      -1.8215     -0.0280     -0.5716
            y      -0.0075     -1.1753     -0.0522
            z      -0.3408     -0.0457     -1.7261
-------------------------------------------------------------------------------
   48 O2    x      -1.8643     -0.0636      0.5820
            y      -0.0041     -1.1670      0.0489
            z       0.3450      0.0302     -1.6974
-------------------------------------------------------------------------------
   49 O3    x      -1.3527     -0.1482      0.0890
            y      -0.2266     -3.1259      0.1879
            z       0.1214      0.1476     -1.2087
-------------------------------------------------------------------------------
   50 O2    x      -1.1939     -0.0289     -0.0481
            y      -0.0644     -2.4869      0.0640
            z      -0.0734      0.0347     -1.0863
-------------------------------------------------------------------------------
   51 O2    x      -1.1949     -0.0128      0.0365
            y      -0.0207     -2.5100     -0.1028
            z       0.0676     -0.0598     -1.0903
-------------------------------------------------------------------------------
   52 O3    x      -1.3705     -0.1336     -0.0727
            y      -0.1881     -3.1615     -0.2314
            z      -0.1069     -0.1502     -1.1882
-------------------------------------------------------------------------------
   53 O3    x      -2.9447      0.0668      0.0531
            y       0.0141     -1.3526      0.0854
            z       0.0589      0.0330     -1.2689
-------------------------------------------------------------------------------
   54 O2    x      -2.3624      0.1270     -0.0683
            y       0.0841     -1.2581     -0.0545
            z      -0.0716     -0.0324     -1.0958
-------------------------------------------------------------------------------
   55 O3    x      -2.9983      0.0341     -0.0730
            y      -0.0222     -1.3522     -0.0928
            z      -0.0757     -0.0365     -1.2586
-------------------------------------------------------------------------------
   56 O2    x      -2.3528      0.1052      0.0326
            y       0.0778     -1.2699      0.0543
            z       0.0292      0.0368     -1.1103
-------------------------------------------------------------------------------
   57 O3    x      -1.3205     -0.1486      0.0990
            y      -0.1265     -1.4433      0.0292
            z       0.0723     -0.0203     -2.6080
-------------------------------------------------------------------------------
   58 O3    x      -1.3445     -0.1594      0.1559
            y      -0.1410     -1.4756      0.0384
            z       0.1230     -0.0163     -2.5528
-------------------------------------------------------------------------------
   59 O2    x      -1.2090      0.1514     -0.0160
            y       0.0872     -1.3329      0.0867
            z      -0.0170      0.1003     -2.0104
-------------------------------------------------------------------------------
   60 O3    x      -1.3276      0.1343      0.0696
            y       0.0782     -1.4322      0.0797
            z       0.0309      0.1045     -2.6368
-------------------------------------------------------------------------------
   61 O3    x      -1.3163     -0.1308     -0.1942
            y      -0.1011     -1.4824     -0.0205
            z      -0.1215      0.0415     -2.5792
-------------------------------------------------------------------------------
   62 O3    x      -1.3504     -0.1830     -0.0588
            y      -0.1350     -1.4277      0.0085
            z      -0.0475      0.0511     -2.5593
-------------------------------------------------------------------------------
   63 O2    x      -1.1846      0.1155     -0.0390
            y       0.0691     -1.2877     -0.0853
            z      -0.0355     -0.1000     -2.0783
-------------------------------------------------------------------------------
   64 O2    x      -1.1975      0.1325      0.0105
            y       0.0745     -1.3326     -0.0892
            z       0.0169     -0.1030     -2.0508
-------------------------------------------------------------------------------
   65 O3    x      -1.4656      0.1057      0.1296
            y       0.0298     -3.0271     -0.2705
            z       0.1413     -0.1825     -1.1475
-------------------------------------------------------------------------------
   66 O3    x      -1.4878     -0.2063     -0.1377
            y      -0.2139     -3.0128     -0.2595
            z      -0.1514     -0.1781     -1.1467
-------------------------------------------------------------------------------
   67 O3    x      -1.4452     -0.1776      0.1052
            y      -0.2238     -3.1231      0.1856
            z       0.1338      0.1154     -1.1367
-------------------------------------------------------------------------------
   68 O2    x      -1.2318     -0.0248     -0.0670
            y      -0.0484     -2.5363      0.0541
            z      -0.0891      0.0253     -1.0288
-------------------------------------------------------------------------------
   69 O2    x      -2.4446      0.0639      0.0809
            y       0.0273     -1.2869      0.0210
            z       0.0579     -0.0067     -1.0459
-------------------------------------------------------------------------------
   70 O1    x      -3.1301      0.0574      0.0663
            y       0.0414     -1.4285     -0.1027
            z       0.0354     -0.0293     -1.3750
-------------------------------------------------------------------------------
   71 O2    x      -2.4222      0.1374     -0.1103
            y       0.0807     -1.2515     -0.0430
            z      -0.0610     -0.0195     -1.0603
-------------------------------------------------------------------------------
   72 O3    x      -3.0510      0.0882      0.0355
            y       0.0320     -1.3555      0.0867
            z       0.0668      0.0253     -1.2110
-------------------------------------------------------------------------------




  Elastic Constant Matrix: (Units=GPa)

-------------------------------------------------------------------------------
  Indices      1         2         3         4         5         6    
-------------------------------------------------------------------------------
       1     47.8738   28.0372   17.2897    3.8201    1.9823   11.1642
       2     28.0372   62.1169   15.1062    3.7434    4.1704   14.1144
       3     17.2897   15.1062   19.3151    0.0684   -0.5135    5.4740
       4      3.8201    3.7434    0.0684    8.6311    1.0129    1.0533
       5      1.9823    4.1704   -0.5135    1.0129   11.9436    1.4697
       6     11.1642   14.1144    5.4740    1.0533    1.4697   18.6337
-------------------------------------------------------------------------------


  Elastic Compliance Matrix: (Units=1/GPa)

-------------------------------------------------------------------------------
  Indices      1         2         3         4         5         6    
-------------------------------------------------------------------------------
       1    0.037649 -0.008192 -0.025008 -0.011627 -0.002474 -0.008153
       2   -0.008192  0.025265 -0.009554 -0.005239 -0.006119 -0.010644
       3   -0.025008 -0.009554  0.082915  0.013797  0.010341 -0.003733
       4   -0.011627 -0.005239  0.013797  0.123851 -0.006197  0.000370
       5   -0.002474 -0.006119  0.010341 -0.006197  0.087673 -0.003485
       6   -0.008153 -0.010644 -0.003733  0.000370 -0.003485  0.067964
-------------------------------------------------------------------------------

  Mechanical properties :

-------------------------------------------------------------------------------
  Convention :                    Reuss         Voigt         Hill
-------------------------------------------------------------------------------
  Bulk  Modulus (GPa)     =      16.57821      27.79689      22.18755
  Shear Modulus (GPa)     =       9.41739      12.43321      10.92530
-------------------------------------------------------------------------------
  Velocity S-wave (km/s)  =       2.09467       2.40681       2.25614
  Velocity P-wave (km/s)  =       3.68430       4.54691       4.13814
-------------------------------------------------------------------------------
  Compressibility (1/GPa) =    0.06032014
-------------------------------------------------------------------------------
  Stress axis :                     x             y             z
-------------------------------------------------------------------------------
  Youngs Moduli (GPa)     =      26.56078      39.58082      12.06052
-------------------------------------------------------------------------------
  Poissons Ratio (x)      =                     0.32426       0.30162
  Poissons Ratio (y)      =       0.21760                     0.11522
  Poissons Ratio (z)      =       0.66425       0.37815
-------------------------------------------------------------------------------


  Piezoelectric Strain Matrix: (Units=C/m**2)

-------------------------------------------------------------------------------
  Indices      1         2         3         4         5         6    
-------------------------------------------------------------------------------
       x     0.64088   0.50283   0.10258  -0.08290   0.27032  -0.17873
       y     1.03959   0.25936  -0.42198  -0.06476   0.00065  -0.12291
       z     0.03863   0.31324  -1.59049  -0.33824   0.41480   0.09345
-------------------------------------------------------------------------------


  Piezoelectric Stress Matrix: (Units=10**-11 C/N)

-------------------------------------------------------------------------------
  Indices      1         2         3         4         5         6    
-------------------------------------------------------------------------------
       x     1.91963   0.71559  -1.00068  -2.06788   2.12354  -2.40798
       y     4.93215   0.37110  -6.38926  -2.73386  -0.76360  -1.80402
       z     4.08086   2.10318 -13.65605  -6.84616   1.96776   0.70689
-------------------------------------------------------------------------------


  Static dielectric constant tensor : 

-------------------------------------------------------------------------------
              x         y         z
-------------------------------------------------------------------------------
       x     4.66096   0.09393   0.00542
       y     0.09393   4.69487   0.06299
       z     0.00542   0.06299   3.73978
--------------------------------------------------------------------------------

  High frequency dielectric constant tensor : 

-------------------------------------------------------------------------------
              x         y         z
-------------------------------------------------------------------------------
       x     1.64432   0.00141   0.00050
       y     0.00141   1.65184   0.00166
       z     0.00050   0.00166   1.58900
-------------------------------------------------------------------------------

  Static refractive indices : 

-------------------------------------------------------------------------------
    1 =    1.93278      2 =    2.14103      3 =    2.18540
-------------------------------------------------------------------------------

  High frequency refractive indices : 

-------------------------------------------------------------------------------
    1 =    1.26054      2 =    1.28221      3 =    1.28536
-------------------------------------------------------------------------------


  Time to end of optimisation =       8.0329 seconds


  Peak dynamic memory used =       5.01 MB 


  Timing analysis for GULP :

--------------------------------------------------------------------------------
  Task / Subroutine                                          Time (Seconds)
--------------------------------------------------------------------------------
  Calculation of reciprocal space energy and derivatives          0.5009
  Calculation of real space energy and derivatives                5.2326
  Calculation of three-body energy and derivatives                0.2468
  Calculation and manipulation of Hessian matrix                  2.0961
  Calculation of matrix inversion                                 0.0388
  Global summation overhead                                       0.0001
--------------------------------------------------------------------------------
  Total CPU time                                                  8.0330
--------------------------------------------------------------------------------


  Dump file written as POSCAR_N0007.vasp.grs
  CIF file written as POSCAR_N0007.vasp.cif


  Job Finished at 11:28.57 31st October    2025                               

