********************************************************************************
*                       GENERAL UTILITY LATTICE PROGRAM                        *
*                                 Julian Gale                                  *
*                       Curtin Institute for Computation                       *
*                    School of Molecular and Life Sciences                     *
*                    Curtin University, Western Australia                      *
********************************************************************************
* Version = 6.1.2 * Last modified =   3rd November 2022                        *
********************************************************************************
*  optimise     - perform optimisation run                                     *
*  conp         - constant pressure calculation                                *
*  property     - calculate properties for final geometry                      *
********************************************************************************

  Job Started  at 11:28.57 31st October    2025                               

  Number of CPUs =     1


  Total number of configurations input =      1

********************************************************************************
*  Input for Configuration =   1 : POSCAR_N0008.vasp                           *
********************************************************************************

  Formula = Ge8Si16O48                                                  

  Number of irreducible atoms/shells =     120


  Total number atoms/shells =     120

  Dimensionality = 3               :  Bulk   



  Cartesian lattice vectors (Angstroms) :

       17.182800    0.000000    0.000000
        0.000000    7.513760    0.000000
        0.000000    0.000000   10.447700

  Cell parameters (Angstroms/Degrees):

  a =      17.1828    alpha =  90.0000
  b =       7.5138    beta  =  90.0000
  c =      10.4477    gamma =  90.0000

  Initial cell volume =        1348.875752 Angs**3

  Temperature of configuration =   0.00     K 

  Pressure of configuration =         0.000 GPa 

  Fractional coordinates of asymmetric unit :

--------------------------------------------------------------------------------
   No.  Atomic       x           y          z         Charge      Occupancy
        Label      (Frac)      (Frac)     (Frac)        (e)         (Frac)  
--------------------------------------------------------------------------------
      1 Ge    c    0.052090    0.000000    0.372270     4.00000    1.000000    
      2 Ge    c    0.947910 *  0.000000 *  0.627730 *   4.00000    1.000000    
      3 Ge    c    0.660190 *  0.293910 *  0.726560 *   4.00000    1.000000    
      4 Ge    c    0.339810 *  0.293910 *  0.273440 *   4.00000    1.000000    
      5 Ge    c    0.839340 *  0.705910 *  0.017440 *   4.00000    1.000000    
      6 Ge    c    0.160660 *  0.705910 *  0.982560 *   4.00000    1.000000    
      7 Ge    c    0.339340 *  0.705910 *  0.982560 *   4.00000    1.000000    
      8 Ge    c    0.660660 *  0.705910 *  0.017440 *   4.00000    1.000000    
      9 Si    c    0.447910 *  0.000000 *  0.372270 *   4.00000    1.000000    
     10 Si    c    0.552090 *  0.000000 *  0.627730 *   4.00000    1.000000    
     11 Si    c    0.556730 *  0.000000 *  0.122130 *   4.00000    1.000000    
     12 Si    c    0.943270 *  0.000000 *  0.122130 *   4.00000    1.000000    
     13 Si    c    0.443270 *  0.000000 *  0.877870 *   4.00000    1.000000    
     14 Si    c    0.056730 *  0.000000 *  0.877870 *   4.00000    1.000000    
     15 Si    c    0.160190 *  0.293910 *  0.273440 *   4.00000    1.000000    
     16 Si    c    0.339810 *  0.706090 *  0.273440 *   4.00000    1.000000    
     17 Si    c    0.839810 *  0.293910 *  0.726560 *   4.00000    1.000000    
     18 Si    c    0.660190 *  0.706090 *  0.726560 *   4.00000    1.000000    
     19 Si    c    0.839810 *  0.706090 *  0.726560 *   4.00000    1.000000    
     20 Si    c    0.160190 *  0.706090 *  0.273440 *   4.00000    1.000000    
     21 Si    c    0.660660 *  0.294090 *  0.017440 *   4.00000    1.000000    
     22 Si    c    0.339340 *  0.294090 *  0.982560 *   4.00000    1.000000    
     23 Si    c    0.160660 *  0.294090 *  0.982560 *   4.00000    1.000000    
     24 Si    c    0.839340 *  0.294090 *  0.017440 *   4.00000    1.000000    
     25 O3    c    0.106570 *  0.174340 *  0.366200 *   1.33043    1.000000    
     26 O2    c    0.393430 *  0.825660 *  0.366200 *   0.87073    1.000000    
     27 O3    c    0.893430 *  0.174340 *  0.633800 *   1.33043    1.000000    
     28 O2    c    0.606570 *  0.825660 *  0.633800 *   0.87073    1.000000    
     29 O3    c    0.893430 *  0.825660 *  0.633800 *   1.33043    1.000000    
     30 O3    c    0.606570 *  0.174340 *  0.633800 *   1.33043    1.000000    
     31 O3    c    0.106570 *  0.825660 *  0.366200 *   1.33043    1.000000    
     32 O3    c    0.393430 *  0.174340 *  0.366200 *   1.33043    1.000000    
     33 O1    c    0.000000 *  0.000000 *  0.500000 *   1.73396    1.000000    
     34 O2    c    0.500000 *  0.000000 *  0.500000 *   0.87073    1.000000    
     35 O3    c    0.994520 *  0.000000 *  0.250840 *   1.33043    1.000000    
     36 O2    c    0.505480 *  0.000000 *  0.250840 *   0.87073    1.000000    
     37 O3    c    0.005480 *  0.000000 *  0.749160 *   1.33043    1.000000    
     38 O2    c    0.494520 *  0.000000 *  0.749160 *   0.87073    1.000000    
     39 O2    c    0.610230 *  0.175520 *  0.115390 *   0.87073    1.000000    
     40 O3    c    0.889770 *  0.824480 *  0.115390 *   1.33043    1.000000    
     41 O2    c    0.389770 *  0.175520 *  0.884610 *   0.87073    1.000000    
     42 O3    c    0.110230 *  0.824480 *  0.884610 *   1.33043    1.000000    
     43 O3    c    0.389770 *  0.824480 *  0.884610 *   1.33043    1.000000    
     44 O2    c    0.110230 *  0.175520 *  0.884610 *   0.87073    1.000000    
     45 O3    c    0.610230 *  0.824480 *  0.115390 *   1.33043    1.000000    
     46 O2    c    0.889770 *  0.175520 *  0.115390 *   0.87073    1.000000    
     47 O2    c    0.500000 *  0.000000 *  0.000000 *   0.87073    1.000000    
     48 O2    c    0.000000 *  0.000000 *  0.000000 *   0.87073    1.000000    
     49 O2    c    0.151750 *  0.500000 *  0.313330 *   0.87073    1.000000    
     50 O3    c    0.348250 *  0.500000 *  0.313330 *   1.33043    1.000000    
     51 O2    c    0.848250 *  0.500000 *  0.686670 *   0.87073    1.000000    
     52 O3    c    0.651750 *  0.500000 *  0.686670 *   1.33043    1.000000    
     53 O3    c    0.250000 *  0.234950 *  0.285720 *   1.33043    1.000000    
     54 O2    c    0.250000 *  0.765050 *  0.285720 *   0.87073    1.000000    
     55 O3    c    0.750000 *  0.234950 *  0.714280 *   1.33043    1.000000    
     56 O2    c    0.750000 *  0.765050 *  0.714280 *   0.87073    1.000000    
     57 O2    c    0.131410 *  0.268650 *  0.127790 *   0.87073    1.000000    
     58 O3    c    0.368590 *  0.731350 *  0.127790 *   1.33043    1.000000    
     59 O2    c    0.868590 *  0.268650 *  0.872210 *   0.87073    1.000000    
     60 O3    c    0.631410 *  0.731350 *  0.872210 *   1.33043    1.000000    
     61 O3    c    0.868590 *  0.731350 *  0.872210 *   1.33043    1.000000    
     62 O3    c    0.631410 *  0.268650 *  0.872210 *   1.33043    1.000000    
     63 O3    c    0.131410 *  0.731350 *  0.127790 *   1.33043    1.000000    
     64 O3    c    0.368590 *  0.268650 *  0.127790 *   1.33043    1.000000    
     65 O3    c    0.653920 *  0.500000 *  0.058200 *   1.33043    1.000000    
     66 O3    c    0.846080 *  0.500000 *  0.058200 *   1.33043    1.000000    
     67 O3    c    0.346080 *  0.500000 *  0.941800 *   1.33043    1.000000    
     68 O3    c    0.153920 *  0.500000 *  0.941800 *   1.33043    1.000000    
     69 O2    c    0.750000 *  0.231060 *  0.027050 *   0.87073    1.000000    
     70 O1    c    0.750000 *  0.768940 *  0.027050 *   1.73396    1.000000    
     71 O2    c    0.250000 *  0.231060 *  0.972950 *   0.87073    1.000000    
     72 O1    c    0.250000 *  0.768940 *  0.972950 *   1.73396    1.000000    
     73 O3    s    0.106570 *  0.174340 *  0.366200 *  -3.33043    1.000000    
     74 O2    s    0.393430 *  0.825660 *  0.366200 *  -2.87073    1.000000    
     75 O3    s    0.893430 *  0.174340 *  0.633800 *  -3.33043    1.000000    
     76 O2    s    0.606570 *  0.825660 *  0.633800 *  -2.87073    1.000000    
     77 O3    s    0.893430 *  0.825660 *  0.633800 *  -3.33043    1.000000    
     78 O3    s    0.606570 *  0.174340 *  0.633800 *  -3.33043    1.000000    
     79 O3    s    0.106570 *  0.825660 *  0.366200 *  -3.33043    1.000000    
     80 O3    s    0.393430 *  0.174340 *  0.366200 *  -3.33043    1.000000    
     81 O1    s    0.000000 *  0.000000 *  0.500000 *  -3.73396    1.000000    
     82 O2    s    0.500000 *  0.000000 *  0.500000 *  -2.87073    1.000000    
     83 O3    s    0.994520 *  0.000000 *  0.250840 *  -3.33043    1.000000    
     84 O2    s    0.505480 *  0.000000 *  0.250840 *  -2.87073    1.000000    
     85 O3    s    0.005480 *  0.000000 *  0.749160 *  -3.33043    1.000000    
     86 O2    s    0.494520 *  0.000000 *  0.749160 *  -2.87073    1.000000    
     87 O2    s    0.610230 *  0.175520 *  0.115390 *  -2.87073    1.000000    
     88 O3    s    0.889770 *  0.824480 *  0.115390 *  -3.33043    1.000000    
     89 O2    s    0.389770 *  0.175520 *  0.884610 *  -2.87073    1.000000    
     90 O3    s    0.110230 *  0.824480 *  0.884610 *  -3.33043    1.000000    
     91 O3    s    0.389770 *  0.824480 *  0.884610 *  -3.33043    1.000000    
     92 O2    s    0.110230 *  0.175520 *  0.884610 *  -2.87073    1.000000    
     93 O3    s    0.610230 *  0.824480 *  0.115390 *  -3.33043    1.000000    
     94 O2    s    0.889770 *  0.175520 *  0.115390 *  -2.87073    1.000000    
     95 O2    s    0.500000 *  0.000000 *  0.000000 *  -2.87073    1.000000    
     96 O2    s    0.000000 *  0.000000 *  0.000000 *  -2.87073    1.000000    
     97 O2    s    0.151750 *  0.500000 *  0.313330 *  -2.87073    1.000000    
     98 O3    s    0.348250 *  0.500000 *  0.313330 *  -3.33043    1.000000    
     99 O2    s    0.848250 *  0.500000 *  0.686670 *  -2.87073    1.000000    
    100 O3    s    0.651750 *  0.500000 *  0.686670 *  -3.33043    1.000000    
    101 O3    s    0.250000 *  0.234950 *  0.285720 *  -3.33043    1.000000    
    102 O2    s    0.250000 *  0.765050 *  0.285720 *  -2.87073    1.000000    
    103 O3    s    0.750000 *  0.234950 *  0.714280 *  -3.33043    1.000000    
    104 O2    s    0.750000 *  0.765050 *  0.714280 *  -2.87073    1.000000    
    105 O2    s    0.131410 *  0.268650 *  0.127790 *  -2.87073    1.000000    
    106 O3    s    0.368590 *  0.731350 *  0.127790 *  -3.33043    1.000000    
    107 O2    s    0.868590 *  0.268650 *  0.872210 *  -2.87073    1.000000    
    108 O3    s    0.631410 *  0.731350 *  0.872210 *  -3.33043    1.000000    
    109 O3    s    0.868590 *  0.731350 *  0.872210 *  -3.33043    1.000000    
    110 O3    s    0.631410 *  0.268650 *  0.872210 *  -3.33043    1.000000    
    111 O3    s    0.131410 *  0.731350 *  0.127790 *  -3.33043    1.000000    
    112 O3    s    0.368590 *  0.268650 *  0.127790 *  -3.33043    1.000000    
    113 O3    s    0.653920 *  0.500000 *  0.058200 *  -3.33043    1.000000    
    114 O3    s    0.846080 *  0.500000 *  0.058200 *  -3.33043    1.000000    
    115 O3    s    0.346080 *  0.500000 *  0.941800 *  -3.33043    1.000000    
    116 O3    s    0.153920 *  0.500000 *  0.941800 *  -3.33043    1.000000    
    117 O2    s    0.750000 *  0.231060 *  0.027050 *  -2.87073    1.000000    
    118 O1    s    0.750000 *  0.768940 *  0.027050 *  -3.73396    1.000000    
    119 O2    s    0.250000 *  0.231060 *  0.972950 *  -2.87073    1.000000    
    120 O1    s    0.250000 *  0.768940 *  0.972950 *  -3.73396    1.000000    
--------------------------------------------------------------------------------



********************************************************************************
*  General input information                                                   *
********************************************************************************

  Species output for all configurations : 

--------------------------------------------------------------------------------
  Species    Type    Atomic    Atomic    Charge       Radii (Angs)     Library
                     Number     Mass       (e)     Cova   Ionic  VDW   Symbol
--------------------------------------------------------------------------------
    Ge       Core       32      72.61   4.000000   1.170  0.000  1.750 Ge       
    Si       Core       14      28.09   4.000000   1.200  0.000  2.100 Si       
    O1       Core        8      16.00   1.733957   0.730  0.000  1.360 O1       
    O2       Core        8      16.00   0.870733   0.730  0.000  1.360 O2       
    O3       Core        8      16.00   1.330431   0.730  0.000  1.360 O3       
    O1       Shell       8       0.00  -3.733957   0.730  0.000  0.000 O1       
    O2       Shell       8       0.00  -2.870733   0.730  0.000  0.000 O2       
    O3       Shell       8       0.00  -3.330431   0.730  0.000  0.000 O3       
--------------------------------------------------------------------------------


  Lattice summation method               =    Ewald          (3-D)
                                         =    Parry          (2-D)
                                         =    Saunders et al (1-D)
  Accuracy factor for lattice sums       =   12.000


  Analytic derivatives to be used

  Time limit = Infinity

  Maximum range for interatomic potentials =    100000.000000 Angstroms

  General interatomic potentials :

--------------------------------------------------------------------------------
Atom  Types   Potential      Parameter       Value         Units   Cutoffs(Ang)
  1     2                                                            Min /  Max 
--------------------------------------------------------------------------------
Si   c O1   s Buckingham    Buckingham A     1315.2478    eV        0.000 16.000
                            Buckingham rho  0.31775900    Ang       
                            Buckingham C     10.141118    eV*Ang^6  
--------------------------------------------------------------------------------
Si   c O2   s Buckingham    Buckingham A     1315.2478    eV        0.000 16.000
                            Buckingham rho  0.31775900    Ang       
                            Buckingham C     10.141118    eV*Ang^6  
--------------------------------------------------------------------------------
Si   c O3   s Buckingham    Buckingham A     1315.2478    eV        0.000 16.000
                            Buckingham rho  0.31775900    Ang       
                            Buckingham C     10.141118    eV*Ang^6  
--------------------------------------------------------------------------------
Ge   c O1   s Buckingham    Buckingham A     1497.3996    eV        0.000 16.000
                            Buckingham rho  0.32564600    Ang       
                            Buckingham C     16.808599    eV*Ang^6  
--------------------------------------------------------------------------------
Ge   c O2   s Buckingham    Buckingham A     1497.3996    eV        0.000 16.000
                            Buckingham rho  0.32564600    Ang       
                            Buckingham C     16.808599    eV*Ang^6  
--------------------------------------------------------------------------------
Ge   c O3   s Buckingham    Buckingham A     1497.3996    eV        0.000 16.000
                            Buckingham rho  0.32564600    Ang       
                            Buckingham C     16.808599    eV*Ang^6  
--------------------------------------------------------------------------------
O1   s O1   s Buckingham    Buckingham A     22764.000    eV        0.000 16.000
                            Buckingham rho  0.14900000    Ang       
                            Buckingham C     10.937044    eV*Ang^6  
--------------------------------------------------------------------------------
O1   s O2   s Buckingham    Buckingham A     22764.000    eV        0.000 16.000
                            Buckingham rho  0.14900000    Ang       
                            Buckingham C     10.937044    eV*Ang^6  
--------------------------------------------------------------------------------
O1   s O3   s Buckingham    Buckingham A     22764.000    eV        0.000 16.000
                            Buckingham rho  0.14900000    Ang       
                            Buckingham C     10.937044    eV*Ang^6  
--------------------------------------------------------------------------------
O2   s O2   s Buckingham    Buckingham A     22764.000    eV        0.000 16.000
                            Buckingham rho  0.14900000    Ang       
                            Buckingham C     10.937044    eV*Ang^6  
--------------------------------------------------------------------------------
O2   s O3   s Buckingham    Buckingham A     22764.000    eV        0.000 16.000
                            Buckingham rho  0.14900000    Ang       
                            Buckingham C     10.937044    eV*Ang^6  
--------------------------------------------------------------------------------
O3   s O3   s Buckingham    Buckingham A     22764.000    eV        0.000 16.000
                            Buckingham rho  0.14900000    Ang       
                            Buckingham C     10.937044    eV*Ang^6  
--------------------------------------------------------------------------------
O1   c O1   s Spring (c-s)  Spring k 2       180.31577    eV*Ang^-2 0.000  0.800
                            Spring k 4       0.0000000    eV*Ang^-4 
--------------------------------------------------------------------------------
O2   c O2   s Spring (c-s)  Spring k 2       75.969800    eV*Ang^-2 0.000  0.800
                            Spring k 4       0.0000000    eV*Ang^-4 
--------------------------------------------------------------------------------
O3   c O3   s Spring (c-s)  Spring k 2       128.14270    eV*Ang^-2 0.000  0.800
                            Spring k 4       0.0000000    eV*Ang^-4 
--------------------------------------------------------------------------------

  General Three-body potentials :

--------------------------------------------------------------------------------
  Atoms       Potential      Parameter       Value         Units   Cutoffs(Ang)
  1 / 2 / 3                                                          Min /  Max 
--------------------------------------------------------------------------------
Si    core    Harmonic      Three-body cnst  1.2614000    eV*rad^-2 0.000  1.900
O1    shel                  Three-body angl  109.47000    degrees   0.000  1.900
O1    shel                  Three-body k4    0.0000000    eV*rad^-4 0.000  3.500
                            Three-body k3    0.0000000    eV*rad^-3 
--------------------------------------------------------------------------------
Si    core    Harmonic      Three-body cnst  1.2614000    eV*rad^-2 0.000  1.900
O1    shel                  Three-body angl  109.47000    degrees   0.000  1.900
õ(1   shel                  Three-body k4    0.0000000    eV*rad^-4 0.000  3.500
                            Three-body k3    0.0000000    eV*rad^-3 
--------------------------------------------------------------------------------
Si    core    Harmonic      Three-body cnst  1.2614000    eV*rad^-2 0.000  1.900
õ(1   shel                  Three-body angl  109.47000    degrees   0.000  1.900
õ(1   shel                  Three-body k4    0.0000000    eV*rad^-4 0.000  3.500
                            Three-body k3    0.0000000    eV*rad^-3 
--------------------------------------------------------------------------------
Si    core    Harmonic      Three-body cnst  1.2614000    eV*rad^-2 0.000  1.900
O1    shel                  Three-body angl  109.47000    degrees   0.000  1.900
O2    shel                  Three-body k4    0.0000000    eV*rad^-4 0.000  3.500
                            Three-body k3    0.0000000    eV*rad^-3 
--------------------------------------------------------------------------------
Si    core    Harmonic      Three-body cnst  1.2614000    eV*rad^-2 0.000  1.900
O1    shel                  Three-body angl  109.47000    degrees   0.000  1.900
õ(2   shel                  Three-body k4    0.0000000    eV*rad^-4 0.000  3.500
                            Three-body k3    0.0000000    eV*rad^-3 
--------------------------------------------------------------------------------
Si    core    Harmonic      Three-body cnst  1.2614000    eV*rad^-2 0.000  1.900
O2    shel                  Three-body angl  109.47000    degrees   0.000  1.900
õ(1   shel                  Three-body k4    0.0000000    eV*rad^-4 0.000  3.500
                            Three-body k3    0.0000000    eV*rad^-3 
--------------------------------------------------------------------------------
Si    core    Harmonic      Three-body cnst  1.2614000    eV*rad^-2 0.000  1.900
õ(1   shel                  Three-body angl  109.47000    degrees   0.000  1.900
õ(2   shel                  Three-body k4    0.0000000    eV*rad^-4 0.000  3.500
                            Three-body k3    0.0000000    eV*rad^-3 
--------------------------------------------------------------------------------
Si    core    Harmonic      Three-body cnst  1.2614000    eV*rad^-2 0.000  1.900
O2    shel                  Three-body angl  109.47000    degrees   0.000  1.900
O2    shel                  Three-body k4    0.0000000    eV*rad^-4 0.000  3.500
                            Three-body k3    0.0000000    eV*rad^-3 
--------------------------------------------------------------------------------
Si    core    Harmonic      Three-body cnst  1.2614000    eV*rad^-2 0.000  1.900
O2    shel                  Three-body angl  109.47000    degrees   0.000  1.900
õ(2   shel                  Three-body k4    0.0000000    eV*rad^-4 0.000  3.500
                            Three-body k3    0.0000000    eV*rad^-3 
--------------------------------------------------------------------------------
Si    core    Harmonic      Three-body cnst  1.2614000    eV*rad^-2 0.000  1.900
õ(2   shel                  Three-body angl  109.47000    degrees   0.000  1.900
õ(2   shel                  Three-body k4    0.0000000    eV*rad^-4 0.000  3.500
                            Three-body k3    0.0000000    eV*rad^-3 
--------------------------------------------------------------------------------

********************************************************************************
*  Output for configuration   1 : POSCAR_N0008.vasp                            *
********************************************************************************


  Components of energy : 

--------------------------------------------------------------------------------
  Interatomic potentials     =         800.37661823 eV    
  Three-body potentials      =           0.00647107 eV    
  Monopole - monopole (real) =       -2676.00317478 eV    
  Monopole - monopole (recip)=       -1115.35404472 eV    
  Monopole - monopole (total)=       -3791.35721950 eV    
--------------------------------------------------------------------------------
  Total lattice energy       =       -2990.97413020 eV    
--------------------------------------------------------------------------------
  Total lattice energy       =         -288583.2823 kJ/(mole unit cells)
--------------------------------------------------------------------------------


  Number of variables =      363

  Maximum number of calculations  =          1000
  Maximum Hessian update interval =            10
  Maximum step size               =   0.100000000
  Maximum parameter tolerance     =   0.000010000
  Maximum function  tolerance     =   0.000010000
  Maximum gradient  tolerance     =   0.001000000
  Maximum gradient  component     =   0.010000000

  Symmetry not applied to optimisation

  Cell parameters to be optimised using strains

  Newton-Raphson optimiser to be used

  BFGS hessian update to be used

  Lower half triangular hessian to be used

  Minimiser to switch to RFO
  When gradient norm is less than     0.050000

  Dumpfile to be written after every cycle

  Start of bulk optimisation :

  Cycle:      0 Energy:     -2990.974130  Gnorm:      4.905128  CPU:    0.080
  ** Hessian calculated **
  Cycle:      1 Energy:     -3024.436736  Gnorm:      1.137212  CPU:    0.170
  ** Hessian calculated **
  Cycle:      2 Energy:     -3027.624838  Gnorm:      0.679608  CPU:    0.312
  Cycle:      3 Energy:     -3028.949040  Gnorm:      0.469191  CPU:    0.383
  Cycle:      4 Energy:     -3030.428121  Gnorm:      0.373194  CPU:    0.468
  Cycle:      5 Energy:     -3031.780947  Gnorm:      0.281509  CPU:    0.553
  Cycle:      6 Energy:     -3032.427654  Gnorm:      0.215470  CPU:    0.623
  Cycle:      7 Energy:     -3032.740204  Gnorm:      0.147043  CPU:    0.695
  Cycle:      8 Energy:     -3032.872567  Gnorm:      0.095539  CPU:    0.766
  Cycle:      9 Energy:     -3032.922714  Gnorm:      0.065454  CPU:    0.837
  Cycle:     10 Energy:     -3032.959526  Gnorm:      0.057130  CPU:    0.921
  Cycle:     11 Energy:     -3032.996755  Gnorm:      0.061339  CPU:    1.005
  ** Hessian calculated **
  Cycle:     12 Energy:     -3033.008652  Gnorm:      0.052479  CPU:    1.157
  Cycle:     13 Energy:     -3033.027733  Gnorm:      0.048720  CPU:    1.254
  ** Hessian has required structure
  Cycle:     14 Energy:     -3033.046447  Gnorm:      0.080731  CPU:    1.370
  ** Hessian has required structure
  Cycle:     15 Energy:     -3033.067867  Gnorm:      0.074650  CPU:    1.487
  ** Hessian has required structure
  Cycle:     16 Energy:     -3033.085246  Gnorm:      0.110999  CPU:    1.602
  ** Hessian has required structure
  Cycle:     17 Energy:     -3033.092640  Gnorm:      0.101197  CPU:    1.705
  ** Hessian has required structure
  Cycle:     18 Energy:     -3033.102087  Gnorm:      0.130928  CPU:    1.808
  ** Hessian has required structure
  Cycle:     19 Energy:     -3033.116992  Gnorm:      0.107166  CPU:    1.911
  ** Hessian has required structure
  Cycle:     20 Energy:     -3033.124230  Gnorm:      0.090715  CPU:    2.014
  ** Hessian has required structure
  Cycle:     21 Energy:     -3033.130034  Gnorm:      0.091433  CPU:    2.118
  ** Hessian has wrong structure
  ** Imaginary eigenvectors =   4
  ** Hessian has wrong structure
  ** Imaginary eigenvectors =   3
  Cycle:     22 Energy:     -3033.250614  Gnorm:      0.101809  CPU:    2.523
  ** Hessian has wrong structure
  ** Imaginary eigenvectors =   2
  ** Hessian has required structure
  Cycle:     23 Energy:     -3033.563040  Gnorm:      0.075455  CPU:    2.913
  ** Hessian has required structure
  Cycle:     24 Energy:     -3033.732097  Gnorm:      0.046501  CPU:    3.029
  ** Hessian has required structure
  Cycle:     25 Energy:     -3033.798467  Gnorm:      0.054208  CPU:    3.144
  ** Hessian has required structure
  Cycle:     26 Energy:     -3033.850489  Gnorm:      0.039612  CPU:    3.258
  ** Hessian has required structure
  Cycle:     27 Energy:     -3033.876273  Gnorm:      0.025800  CPU:    3.360
  ** Hessian has required structure
  Cycle:     28 Energy:     -3033.888662  Gnorm:      0.019178  CPU:    3.488
  ** Hessian has required structure
  Cycle:     29 Energy:     -3033.900710  Gnorm:      0.015717  CPU:    3.616
  ** Hessian has required structure
  Cycle:     30 Energy:     -3033.908637  Gnorm:      0.015432  CPU:    3.732
  ** Hessian has required structure
  Cycle:     31 Energy:     -3033.914841  Gnorm:      0.014865  CPU:    3.847
  ** Hessian has required structure
  Cycle:     32 Energy:     -3033.920446  Gnorm:      0.021598  CPU:    3.962
  ** Hessian has wrong structure
  ** Imaginary eigenvectors =   2
  Cycle:     33 Energy:     -3033.936381  Gnorm:      0.029703  CPU:    4.244
  ** Hessian has wrong structure
  ** Imaginary eigenvectors =   1
  Cycle:     34 Energy:     -3033.956301  Gnorm:      0.040394  CPU:    4.515
  ** Hessian has required structure
  Cycle:     35 Energy:     -3033.999214  Gnorm:      0.042682  CPU:    4.693
  ** Hessian has required structure
  Cycle:     36 Energy:     -3034.034909  Gnorm:      0.038781  CPU:    4.795
  ** Hessian has required structure
  Cycle:     37 Energy:     -3034.071357  Gnorm:      0.021923  CPU:    4.910
  ** Hessian has required structure
  Cycle:     38 Energy:     -3034.087378  Gnorm:      0.029768  CPU:    5.028
  ** Hessian has required structure
  Cycle:     39 Energy:     -3034.108730  Gnorm:      0.020068  CPU:    5.146
  ** Hessian has required structure
  Cycle:     40 Energy:     -3034.119035  Gnorm:      0.018941  CPU:    5.262
  ** Hessian has required structure
  Cycle:     41 Energy:     -3034.124873  Gnorm:      0.016027  CPU:    5.377
  ** Hessian has required structure
  Cycle:     42 Energy:     -3034.131767  Gnorm:      0.014407  CPU:    5.506
  ** Hessian has required structure
  Cycle:     43 Energy:     -3034.136587  Gnorm:      0.011369  CPU:    5.621
  ** Hessian has required structure
  Cycle:     44 Energy:     -3034.138847  Gnorm:      0.011191  CPU:    5.736
  ** Hessian has required structure
  Cycle:     45 Energy:     -3034.143193  Gnorm:      0.007073  CPU:    5.928
  ** Hessian has required structure
  Cycle:     46 Energy:     -3034.145180  Gnorm:      0.003842  CPU:    6.057
  ** Hessian has required structure
  Cycle:     47 Energy:     -3034.145728  Gnorm:      0.001952  CPU:    6.185
  ** Hessian has required structure
  Cycle:     48 Energy:     -3034.145913  Gnorm:      0.001645  CPU:    6.313
  ** Hessian has required structure
  Cycle:     49 Energy:     -3034.145992  Gnorm:      0.000436  CPU:    6.428
  ** Hessian has required structure
  Cycle:     50 Energy:     -3034.146016  Gnorm:      0.000393  CPU:    6.545
  ** Hessian has required structure
  Cycle:     51 Energy:     -3034.146031  Gnorm:      0.000361  CPU:    6.660
  ** Hessian has required structure
  Cycle:     52 Energy:     -3034.146040  Gnorm:      0.000251  CPU:    6.789
  ** Hessian has required structure
  Cycle:     53 Energy:     -3034.146044  Gnorm:      0.000189  CPU:    6.905
  ** Hessian has required structure
  Cycle:     54 Energy:     -3034.146045  Gnorm:      0.000162  CPU:    7.007
  ** Hessian has required structure
  Cycle:     55 Energy:     -3034.146045  Gnorm:      0.000162  CPU:    7.212
  ** Hessian calculated **


  **** Optimisation achieved ****


  Final energy =   -3034.14604507 eV      
  Final Gnorm  =       0.00011774

  Components of energy : 

--------------------------------------------------------------------------------
  Interatomic potentials     =         809.00424683 eV    
  Three-body potentials      =           0.04859448 eV    
  Monopole - monopole (real) =       -2024.04811460 eV    
  Monopole - monopole (recip)=       -1819.15077178 eV    
  Monopole - monopole (total)=       -3843.19888638 eV    
--------------------------------------------------------------------------------
  Total lattice energy       =       -3034.14604507 eV    
--------------------------------------------------------------------------------
  Total lattice energy       =         -292748.7122 kJ/(mole unit cells)
--------------------------------------------------------------------------------

  Final fractional coordinates of atoms :

--------------------------------------------------------------------------------
   No.  Atomic        x           y          z          Radius
        Label       (Frac)      (Frac)     (Frac)       (Angs) 
--------------------------------------------------------------------------------
     1  Ge    c     0.052090    0.000000    0.372270    0.000000
     2  Ge    c     0.949639    0.986190    0.640159    0.000000
     3  Ge    c     0.654150    0.295205    0.700745    0.000000
     4  Ge    c     0.340837    0.278555    0.289869    0.000000
     5  Ge    c     0.846501    0.645597    0.033478    0.000000
     6  Ge    c     0.161857    0.663164    0.950966    0.000000
     7  Ge    c     0.346207    0.649507    0.950114    0.000000
     8  Ge    c     0.660899    0.661167    0.040449    0.000000
     9  Si    c     0.452270    0.981166    0.365205    0.000000
    10  Si    c     0.549414    0.994299    0.622139    0.000000
    11  Si    c     0.557413    0.970071    0.117501    0.000000
    12  Si    c     0.942682    0.956288    0.129772    0.000000
    13  Si    c     0.445028    0.959250    0.869669    0.000000
    14  Si    c     0.055832    0.972663    0.895029    0.000000
    15  Si    c     0.159694    0.299936    0.286298    0.000000
    16  Si    c     0.345324    0.686376    0.261503    0.000000
    17  Si    c     0.835317    0.282441    0.696933    0.000000
    18  Si    c     0.661454    0.702333    0.730123    0.000000
    19  Si    c     0.840309    0.683355    0.724203    0.000000
    20  Si    c     0.167966    0.702742    0.260350    0.000000
    21  Si    c     0.658123    0.263284    0.008215    0.000000
    22  Si    c     0.341539    0.251711    0.982458    0.000000
    23  Si    c     0.161153    0.267740    0.984576    0.000000
    24  Si    c     0.838348    0.247792    0.999635    0.000000
    25  O3    c     0.098984    0.197277    0.371281    0.000000
    26  O2    c     0.399492    0.814287    0.342575    0.000000
    27  O3    c     0.890501    0.166110    0.608416    0.000000
    28  O2    c     0.613747    0.846405    0.649572    0.000000
    29  O3    c     0.893805    0.801675    0.637016    0.000000
    30  O3    c     0.591840    0.176524    0.605583    0.000000
    31  O3    c     0.115429    0.830988    0.342567    0.000000
    32  O3    c     0.398492    0.149115    0.388362    0.000000
    33  O1    c     0.020671    0.968576    0.528322    0.000000
    34  O2    c     0.505374    0.943311    0.490410    0.000000
    35  O3    c     0.970583    0.003487    0.274011    0.000000
    36  O2    c     0.506866    0.017944    0.242251    0.000000
    37  O3    c     0.991506    0.020504    0.791264    0.000000
    38  O2    c     0.487281    0.009118    0.737194    0.000000
    39  O2    c     0.620325    0.120519    0.101026    0.000000
    40  O3    c     0.908604    0.764024    0.129381    0.000000
    41  O2    c     0.376604    0.100450    0.892070    0.000000
    42  O3    c     0.097979    0.791390    0.861682    0.000000
    43  O3    c     0.408222    0.770969    0.856941    0.000000
    44  O2    c     0.121685    0.119527    0.899110    0.000000
    45  O3    c     0.601700    0.788274    0.137180    0.000000
    46  O2    c     0.875775    0.089674    0.080775    0.000000
    47  O2    c     0.504476    0.961816    0.989353    0.000000
    48  O2    c     0.017759    0.963704    0.038506    0.000000
    49  O2    c     0.139994    0.505116    0.283599    0.000000
    50  O3    c     0.371251    0.490233    0.292485    0.000000
    51  O2    c     0.862513    0.481674    0.698972    0.000000
    52  O3    c     0.629058    0.512664    0.699199    0.000000
    53  O3    c     0.246091    0.268412    0.339418    0.000000
    54  O2    c     0.256963    0.716220    0.307901    0.000000
    55  O3    c     0.747809    0.271765    0.647004    0.000000
    56  O2    c     0.750543    0.712331    0.685508    0.000000
    57  O2    c     0.153532    0.224125    0.138464    0.000000
    58  O3    c     0.350589    0.726907    0.108586    0.000000
    59  O2    c     0.841173    0.204783    0.845161    0.000000
    60  O3    c     0.656900    0.742825    0.882858    0.000000
    61  O3    c     0.852283    0.727416    0.876141    0.000000
    62  O3    c     0.645534    0.214895    0.857903    0.000000
    63  O3    c     0.163842    0.746411    0.107914    0.000000
    64  O3    c     0.350479    0.198653    0.132719    0.000000
    65  O3    c     0.624416    0.453268    0.039633    0.000000
    66  O3    c     0.877648    0.429620    0.032454    0.000000
    67  O3    c     0.379378    0.435960    0.951665    0.000000
    68  O3    c     0.125289    0.454992    0.950762    0.000000
    69  O2    c     0.749336    0.272497    0.040867    0.000000
    70  O1    c     0.754661    0.665881    0.092330    0.000000
    71  O2    c     0.251092    0.279926    0.947774    0.000000
    72  O1    c     0.253757    0.669011    0.891489    0.000000
    73  O3    s     0.101520    0.192250    0.362586    0.000000
    74  O2    s     0.399260    0.818376    0.335955    0.000000
    75  O3    s     0.889462    0.164112    0.619797    0.000000
    76  O2    s     0.612038    0.846479    0.655663    0.000000
    77  O3    s     0.892731    0.804199    0.646315    0.000000
    78  O3    s     0.592758    0.168413    0.614906    0.000000
    79  O3    s     0.115733    0.831491    0.336183    0.000000
    80  O3    s     0.399051    0.143288    0.378079    0.000000
    81  O1    s     0.017249    0.972536    0.525239    0.000000
    82  O2    s     0.504336    0.953428    0.491120    0.000000
    83  O3    s     0.974290    0.998467    0.267309    0.000000
    84  O2    s     0.506631    0.008469    0.241461    0.000000
    85  O3    s     0.995081    0.012469    0.790134    0.000000
    86  O2    s     0.489337    0.001779    0.739621    0.000000
    87  O2    s     0.617778    0.120205    0.092456    0.000000
    88  O3    s     0.906921    0.773228    0.121668    0.000000
    89  O2    s     0.379980    0.102069    0.899691    0.000000
    90  O3    s     0.098958    0.798686    0.871892    0.000000
    91  O3    s     0.406893    0.779840    0.865693    0.000000
    92  O2    s     0.119221    0.120762    0.908253    0.000000
    93  O3    s     0.602075    0.796001    0.127479    0.000000
    94  O2    s     0.878709    0.093092    0.076907    0.000000
    95  O2    s     0.503704    0.962502    0.990238    0.000000
    96  O2    s     0.013736    0.963875    0.033270    0.000000
    97  O2    s     0.144973    0.503634    0.281490    0.000000
    98  O3    s     0.366162    0.492299    0.289215    0.000000
    99  O2    s     0.857280    0.481599    0.701397    0.000000
   100  O3    s     0.634272    0.513572    0.702328    0.000000
   101  O3    s     0.245339    0.272295    0.330289    0.000000
   102  O2    s     0.256877    0.711723    0.298237    0.000000
   103  O3    s     0.748857    0.274726    0.656244    0.000000
   104  O2    s     0.750639    0.708195    0.694209    0.000000
   105  O2    s     0.154941    0.236243    0.137357    0.000000
   106  O3    s     0.349731    0.716718    0.111168    0.000000
   107  O2    s     0.840304    0.216844    0.846502    0.000000
   108  O3    s     0.657660    0.732283    0.880139    0.000000
   109  O3    s     0.850695    0.716734    0.873779    0.000000
   110  O3    s     0.647465    0.226067    0.860368    0.000000
   111  O3    s     0.164087    0.735456    0.110690    0.000000
   112  O3    s     0.348822    0.210252    0.130169    0.000000
   113  O3    s     0.630599    0.451111    0.036643    0.000000
   114  O3    s     0.871444    0.428333    0.029376    0.000000
   115  O3    s     0.373126    0.434696    0.954500    0.000000
   116  O3    s     0.131697    0.452832    0.954085    0.000000
   117  O2    s     0.749266    0.269087    0.032978    0.000000
   118  O1    s     0.754433    0.663945    0.083800    0.000000
   119  O2    s     0.250956    0.275900    0.955417    0.000000
   120  O1    s     0.253756    0.667070    0.900495    0.000000
--------------------------------------------------------------------------------

  Final Cartesian lattice vectors (Angstroms) :

       17.329291    0.125668   -0.055988
        0.055386    7.695342    0.006968
       -0.033813    0.009758   10.223797


  Final cell parameters and derivatives :

--------------------------------------------------------------------------------
       a           17.329837 Angstrom     dE/de1(xx)     0.007061 eV/strain
       b            7.695544 Angstrom     dE/de2(yy)     0.008169 eV/strain
       c           10.223857 Angstrom     dE/de3(zz)     0.008496 eV/strain
       alpha       89.894806 Degrees      dE/de4(yz)    -0.000269 eV/strain
       beta        90.374201 Degrees      dE/de5(xz)    -0.000105 eV/strain
       gamma       89.172315 Degrees      dE/de6(xy)    -0.000520 eV/strain
--------------------------------------------------------------------------------

  Primitive cell volume =          1363.305587 Angs**3

  Density of cell =      2.190432 g/cm**3

  Non-primitive cell volume =          1363.305587 Angs**3


  Final internal derivatives :

--------------------------------------------------------------------------------
   No.  Atomic          a             b             c           Radius
        Label          (eV)          (eV)          (eV)        (eV/Angs)
--------------------------------------------------------------------------------
      1 Ge    c       0.000000      0.000000      0.000000      0.000000
      2 Ge    c       0.001715      0.000579      0.000116      0.000000
      3 Ge    c       0.001471      0.001039      0.000635      0.000000
      4 Ge    c      -0.000437     -0.001043      0.000302      0.000000
      5 Ge    c      -0.001843      0.001696     -0.000669      0.000000
      6 Ge    c       0.002745     -0.000205      0.000469      0.000000
      7 Ge    c      -0.000557      0.000364     -0.001126      0.000000
      8 Ge    c       0.000028      0.001323     -0.001620      0.000000
      9 Si    c      -0.009783      0.000913     -0.001251      0.000000
     10 Si    c       0.006901      0.000436      0.000059      0.000000
     11 Si    c       0.004965     -0.001114     -0.000372      0.000000
     12 Si    c       0.000544      0.000906      0.001388      0.000000
     13 Si    c      -0.007183     -0.001414      0.000692      0.000000
     14 Si    c       0.001074     -0.000234     -0.000396      0.000000
     15 Si    c      -0.000991     -0.000843     -0.000429      0.000000
     16 Si    c       0.001659      0.000379     -0.000200      0.000000
     17 Si    c      -0.002328     -0.000812      0.000827      0.000000
     18 Si    c       0.001547     -0.001419      0.002289      0.000000
     19 Si    c      -0.001853      0.000200      0.001416      0.000000
     20 Si    c       0.000779      0.000227     -0.001021      0.000000
     21 Si    c      -0.002493     -0.000177     -0.001679      0.000000
     22 Si    c      -0.006178     -0.000670     -0.001694      0.000000
     23 Si    c       0.003403     -0.000209     -0.000929      0.000000
     24 Si    c       0.000630     -0.000370     -0.001658      0.000000
     25 O3    c       0.000047      0.000057      0.000066      0.000000
     26 O2    c      -0.003120     -0.002727     -0.000401      0.000000
     27 O3    c      -0.001000      0.001174     -0.000612      0.000000
     28 O2    c       0.004303     -0.002179     -0.000258      0.000000
     29 O3    c      -0.001761     -0.001386     -0.000899      0.000000
     30 O3    c       0.004290      0.004470     -0.001413      0.000000
     31 O3    c       0.001145     -0.000824     -0.000371      0.000000
     32 O3    c      -0.001443      0.002457      0.001140      0.000000
     33 O1    c       0.002072     -0.000094     -0.002416      0.000000
     34 O2    c       0.001045     -0.003144      0.001533      0.000000
     35 O3    c      -0.000857     -0.000103     -0.000761      0.000000
     36 O2    c       0.004276      0.003045      0.001139      0.000000
     37 O3    c      -0.000188     -0.000024      0.000697      0.000000
     38 O2    c      -0.007160      0.002119      0.004232      0.000000
     39 O2    c       0.006344      0.001801      0.001159      0.000000
     40 O3    c      -0.000340     -0.002138      0.000032      0.000000
     41 O2    c       0.000425      0.001557      0.001113      0.000000
     42 O3    c       0.000097     -0.000304      0.000697      0.000000
     43 O3    c      -0.000345     -0.000243      0.000666      0.000000
     44 O2    c       0.000959      0.000852      0.001180      0.000000
     45 O3    c       0.004185     -0.005325      0.001468      0.000000
     46 O2    c      -0.002506      0.000039      0.000059      0.000000
     47 O2    c      -0.005820     -0.000151     -0.005157      0.000000
     48 O2    c       0.004122     -0.000192     -0.001156      0.000000
     49 O2    c      -0.000270      0.001940      0.000762      0.000000
     50 O3    c       0.000816      0.001510      0.001323      0.000000
     51 O2    c      -0.000056      0.000580      0.000326      0.000000
     52 O3    c       0.002644      0.001083      0.001863      0.000000
     53 O3    c       0.001677     -0.000332      0.000387      0.000000
     54 O2    c      -0.002618      0.000302      0.000604      0.000000
     55 O3    c      -0.000861      0.000476      0.001478      0.000000
     56 O2    c      -0.004363     -0.000771      0.000322      0.000000
     57 O2    c      -0.001709      0.000350     -0.003068      0.000000
     58 O3    c       0.000158     -0.000208      0.000887      0.000000
     59 O2    c      -0.000134      0.000577     -0.000472      0.000000
     60 O3    c       0.003737     -0.001199     -0.003124      0.000000
     61 O3    c      -0.000695     -0.001208     -0.000945      0.000000
     62 O3    c       0.000922      0.000650     -0.002652      0.000000
     63 O3    c      -0.001122     -0.000341      0.000077      0.000000
     64 O3    c       0.003039      0.001189     -0.001284      0.000000
     65 O3    c      -0.001062      0.000015      0.000336      0.000000
     66 O3    c       0.001276     -0.000759      0.000083      0.000000
     67 O3    c       0.000156     -0.001386     -0.000053      0.000000
     68 O3    c       0.000733     -0.000316      0.000699      0.000000
     69 O2    c       0.001923      0.000737      0.001021      0.000000
     70 O1    c       0.001625     -0.001368     -0.000722      0.000000
     71 O2    c       0.003242      0.000035      0.001876      0.000000
     72 O1    c      -0.004581     -0.000496      0.000907      0.000000
     73 O3    s      -0.000302     -0.000384      0.000439      0.000000
     74 O2    s      -0.008060     -0.001678     -0.000667      0.000000
     75 O3    s      -0.001349      0.000442     -0.000112      0.000000
     76 O2    s       0.007954     -0.002737     -0.000051      0.000000
     77 O3    s      -0.001362     -0.000464     -0.000113      0.000000
     78 O3    s       0.006548      0.001867     -0.000044      0.000000
     79 O3    s       0.000900      0.000060      0.000189      0.000000
     80 O3    s      -0.007824      0.001207     -0.001080      0.000000
     81 O1    s       0.001505     -0.000037      0.000970      0.000000
     82 O2    s      -0.000124     -0.003168      0.000406      0.000000
     83 O3    s      -0.000420      0.000545      0.000844      0.000000
     84 O2    s       0.000553      0.003254      0.001037      0.000000
     85 O3    s       0.000966      0.000443      0.000437      0.000000
     86 O2    s      -0.006120      0.000958      0.001805      0.000000
     87 O2    s       0.006992      0.001522      0.000605      0.000000
     88 O3    s      -0.002031     -0.000440      0.000735      0.000000
     89 O2    s      -0.005899      0.000587      0.000581      0.000000
     90 O3    s       0.001107     -0.000069     -0.000439      0.000000
     91 O3    s      -0.003050      0.000419      0.000106      0.000000
     92 O2    s       0.002980      0.000537      0.000698      0.000000
     93 O3    s       0.005992     -0.002194     -0.001311      0.000000
     94 O2    s      -0.001943      0.000134      0.000106      0.000000
     95 O2    s      -0.007620     -0.000864     -0.002550      0.000000
     96 O2    s       0.003250      0.000178     -0.000174      0.000000
     97 O2    s      -0.001791      0.000423      0.000965      0.000000
     98 O3    s       0.002433     -0.000860      0.001605      0.000000
     99 O2    s      -0.001761      0.000315      0.001302      0.000000
    100 O3    s       0.003547      0.000508      0.002823      0.000000
    101 O3    s       0.001215     -0.001879      0.001275      0.000000
    102 O2    s      -0.000465      0.001271      0.000218      0.000000
    103 O3    s      -0.000515     -0.000074      0.001426      0.000000
    104 O2    s      -0.001817     -0.001575      0.002145      0.000000
    105 O2    s      -0.001164     -0.000686     -0.002120      0.000000
    106 O3    s       0.000657      0.001994     -0.000525      0.000000
    107 O2    s       0.000054      0.000218     -0.000589      0.000000
    108 O3    s       0.003829     -0.000291     -0.000845      0.000000
    109 O3    s      -0.002655     -0.000103      0.000168      0.000000
    110 O3    s      -0.001913      0.000160     -0.001249      0.000000
    111 O3    s      -0.000048      0.000736     -0.000166      0.000000
    112 O3    s       0.000723     -0.001968     -0.001504      0.000000
    113 O3    s      -0.000935      0.001876     -0.000999      0.000000
    114 O3    s       0.000307      0.001234     -0.000980      0.000000
    115 O3    s      -0.001227     -0.001362     -0.001785      0.000000
    116 O3    s       0.002050     -0.000051     -0.000287      0.000000
    117 O2    s       0.001747     -0.000544     -0.000014      0.000000
    118 O1    s      -0.000782      0.000678     -0.001040      0.000000
    119 O2    s      -0.000226      0.000004      0.001110      0.000000
    120 O1    s       0.000308      0.000338     -0.001048      0.000000
--------------------------------------------------------------------------------
  Maximum abs         0.009783      0.005325      0.005157      0.000000
--------------------------------------------------------------------------------


  Born effective charge tensors : 

-------------------------------------------------------------------------------
  Atom             x           y             z
-------------------------------------------------------------------------------
    1 Ge    x       4.1812      0.1554     -0.4376
            y      -0.0113      3.9147      0.0595
            z      -0.3069     -0.1755      4.6763
-------------------------------------------------------------------------------
    2 Ge    x       4.2754      0.0443     -0.0404
            y      -0.0180      3.8877     -0.0512
            z      -0.9012      0.1629      4.4417
-------------------------------------------------------------------------------
    3 Ge    x       3.8959      0.3494      0.0926
            y       0.3303      4.1927      0.3021
            z       0.1631      0.0168      3.4085
-------------------------------------------------------------------------------
    4 Ge    x       3.9046     -0.3772      0.1166
            y      -0.2633      4.1745     -0.2892
            z       0.1571     -0.0199      3.4027
-------------------------------------------------------------------------------
    5 Ge    x       4.0264      0.3435      0.0919
            y       0.2557      4.2119      0.3706
            z       0.1225      0.0359      3.3312
-------------------------------------------------------------------------------
    6 Ge    x       4.0731     -0.4052      0.0610
            y      -0.2310      4.1702     -0.2989
            z       0.1286      0.0072      3.2631
-------------------------------------------------------------------------------
    7 Ge    x       4.0422      0.3741     -0.0934
            y       0.2603      4.1929     -0.3254
            z      -0.1647     -0.0194      3.3385
-------------------------------------------------------------------------------
    8 Ge    x       4.0596     -0.4005     -0.1192
            y      -0.2124      4.1713      0.3224
            z      -0.1596      0.0119      3.3294
-------------------------------------------------------------------------------
    9 Si    x       3.5304     -0.1635      0.1041
            y      -0.1745      3.4232      0.1620
            z       0.4867     -0.1884      3.7570
-------------------------------------------------------------------------------
   10 Si    x       3.5032      0.3076      0.1854
            y       0.0980      3.4532     -0.1381
            z       0.3892      0.2358      3.7806
-------------------------------------------------------------------------------
   11 Si    x       3.5686     -0.2660     -0.1124
            y      -0.0713      3.4754     -0.1098
            z      -0.4909      0.1482      3.1463
-------------------------------------------------------------------------------
   12 Si    x       3.6693      0.3790      0.5029
            y       0.0375      3.5720     -0.0212
            z       0.4720      0.2614      3.5005
-------------------------------------------------------------------------------
   13 Si    x       3.5381      0.3282     -0.1772
            y       0.0271      3.5039      0.1008
            z      -0.4362     -0.1664      3.1746
-------------------------------------------------------------------------------
   14 Si    x       3.8804     -0.3319      0.1638
            y      -0.1040      3.5291      0.0628
            z       0.7708     -0.1719      3.1686
-------------------------------------------------------------------------------
   15 Si    x       3.7349      0.3343     -0.0939
            y       0.3636      3.5633     -0.3698
            z      -0.1841     -0.1228      3.0020
-------------------------------------------------------------------------------
   16 Si    x       3.2993      0.2465      0.0483
            y       0.1370      3.8216      0.0154
            z       0.1714     -0.0639      3.1748
-------------------------------------------------------------------------------
   17 Si    x       3.7114     -0.4316     -0.0883
            y      -0.3184      3.5754      0.3541
            z      -0.1476      0.1143      3.0072
-------------------------------------------------------------------------------
   18 Si    x       3.2872     -0.2805      0.0508
            y      -0.0497      3.8190     -0.0025
            z       0.1430      0.0457      3.1764
-------------------------------------------------------------------------------
   19 Si    x       3.4198      0.4234     -0.1486
            y       0.3484      3.6264     -0.2710
            z      -0.1922     -0.0989      3.2507
-------------------------------------------------------------------------------
   20 Si    x       3.4186     -0.4530     -0.1349
            y      -0.3133      3.6722      0.2597
            z      -0.2401      0.1285      3.2542
-------------------------------------------------------------------------------
   21 Si    x       3.3383      0.3329     -0.1726
            y       0.0024      3.7782     -0.0199
            z      -0.1480      0.0860      3.1057
-------------------------------------------------------------------------------
   22 Si    x       3.3244     -0.3645     -0.1796
            y       0.0301      3.7672      0.0094
            z      -0.1688     -0.0834      3.1010
-------------------------------------------------------------------------------
   23 Si    x       3.2655      0.3116      0.1804
            y      -0.0444      3.6833      0.1002
            z       0.1520     -0.0313      2.7463
-------------------------------------------------------------------------------
   24 Si    x       3.2762     -0.3253      0.1492
            y       0.0768      3.7049     -0.1016
            z       0.1695     -0.0206      2.7986
-------------------------------------------------------------------------------
   25 O3    x      -2.0283     -0.9305      0.4994
            y      -0.9083     -2.3117      0.4382
            z       0.5258      0.4439     -1.5919
-------------------------------------------------------------------------------
   26 O2    x      -1.7273     -0.6986     -0.3265
            y      -0.7049     -1.9260     -0.3695
            z      -0.3929     -0.3233     -1.3566
-------------------------------------------------------------------------------
   27 O3    x      -2.0166      0.9234      0.3486
            y       0.9172     -2.2635     -0.3499
            z       0.4747     -0.3715     -1.6145
-------------------------------------------------------------------------------
   28 O2    x      -1.7522      0.6777     -0.3444
            y       0.6966     -1.9008      0.3763
            z      -0.3844      0.3306     -1.3644
-------------------------------------------------------------------------------
   29 O3    x      -2.0307     -0.9684      0.4098
            y      -0.9441     -2.3689      0.4736
            z       0.5074      0.4469     -1.5443
-------------------------------------------------------------------------------
   30 O3    x      -1.9430     -0.9437     -0.3327
            y      -0.9144     -2.4885     -0.2765
            z      -0.3866     -0.2988     -1.5427
-------------------------------------------------------------------------------
   31 O3    x      -2.0872      0.9716      0.5247
            y       0.9760     -2.3664     -0.5814
            z       0.5318     -0.5430     -1.5795
-------------------------------------------------------------------------------
   32 O3    x      -2.0121      0.9520     -0.2870
            y       0.9589     -2.3847      0.2572
            z      -0.3669      0.2868     -1.5582
-------------------------------------------------------------------------------
   33 O1    x      -2.1491     -0.0462      1.1482
            y      -0.0054     -1.2968      0.0588
            z       1.3959      0.1156     -3.5266
-------------------------------------------------------------------------------
   34 O2    x      -1.5809     -0.0436     -0.7633
            y      -0.0045     -1.1007     -0.0350
            z      -0.9451     -0.0681     -2.6369
-------------------------------------------------------------------------------
   35 O3    x      -2.0074     -0.1511     -0.8439
            y      -0.0632     -1.2445     -0.1709
            z      -0.8436     -0.2478     -2.7043
-------------------------------------------------------------------------------
   36 O2    x      -1.6814      0.0208      0.6822
            y       0.0024     -1.1425      0.0027
            z       0.6821      0.0018     -2.1809
-------------------------------------------------------------------------------
   37 O3    x      -2.1412      0.1196     -1.0014
            y       0.0942     -1.2753      0.0597
            z      -0.9633      0.0702     -2.5290
-------------------------------------------------------------------------------
   38 O2    x      -1.6729     -0.0814      0.6730
            y      -0.0121     -1.1278      0.0598
            z       0.6790      0.0798     -2.2016
-------------------------------------------------------------------------------
   39 O2    x      -1.7185     -0.6758      0.3414
            y      -0.6328     -1.8931      0.3838
            z       0.3594      0.3277     -1.2854
-------------------------------------------------------------------------------
   40 O3    x      -1.9001     -0.9034     -0.4055
            y      -0.7993     -2.5880     -0.3770
            z      -0.3760     -0.3435     -1.4041
-------------------------------------------------------------------------------
   41 O2    x      -1.7259      0.6542      0.3577
            y       0.6169     -1.8826     -0.3954
            z       0.3625     -0.3420     -1.2925
-------------------------------------------------------------------------------
   42 O3    x      -1.9592      0.9140     -0.1983
            y       0.8587     -2.4892      0.1553
            z      -0.3151      0.1704     -1.3608
-------------------------------------------------------------------------------
   43 O3    x      -1.9145     -0.9339      0.3355
            y      -0.8375     -2.5519      0.3002
            z       0.3759      0.2973     -1.3985
-------------------------------------------------------------------------------
   44 O2    x      -1.7383     -0.6844     -0.2606
            y      -0.6349     -1.9013     -0.3254
            z      -0.3193     -0.2727     -1.2222
-------------------------------------------------------------------------------
   45 O3    x      -1.9402      0.9361      0.3006
            y       0.8702     -2.4897     -0.2815
            z       0.3560     -0.2728     -1.4123
-------------------------------------------------------------------------------
   46 O2    x      -1.7304      0.6507     -0.4309
            y       0.6120     -1.9062      0.4656
            z      -0.3832      0.3788     -1.3145
-------------------------------------------------------------------------------
   47 O2    x      -1.7649     -0.0245     -0.6109
            y      -0.0075     -1.1637     -0.0295
            z      -0.3850     -0.0306     -1.8080
-------------------------------------------------------------------------------
   48 O2    x      -1.8638     -0.0303      0.5135
            y      -0.0134     -1.1795      0.0488
            z       0.3080      0.0401     -1.6704
-------------------------------------------------------------------------------
   49 O2    x      -1.2102     -0.0524      0.0339
            y      -0.0947     -2.5055      0.0820
            z       0.0658      0.0467     -1.0805
-------------------------------------------------------------------------------
   50 O3    x      -1.3391      0.0309     -0.0587
            y       0.0152     -3.1971      0.1929
            z      -0.0948      0.1191     -1.1761
-------------------------------------------------------------------------------
   51 O2    x      -1.2044     -0.0038      0.0381
            y      -0.0180     -2.4774     -0.0874
            z       0.0662     -0.0518     -1.0836
-------------------------------------------------------------------------------
   52 O3    x      -1.3603     -0.1070     -0.0650
            y      -0.1597     -3.1747     -0.1973
            z      -0.1000     -0.1230     -1.1786
-------------------------------------------------------------------------------
   53 O3    x      -2.9560      0.1119     -0.1160
            y       0.1116     -1.3582      0.1004
            z      -0.1260      0.0410     -1.2754
-------------------------------------------------------------------------------
   54 O2    x      -2.3752     -0.0050     -0.0157
            y      -0.0230     -1.2588     -0.0575
            z      -0.0191     -0.0345     -1.1022
-------------------------------------------------------------------------------
   55 O3    x      -2.9641      0.0087     -0.0841
            y      -0.0314     -1.3419     -0.0858
            z      -0.1031     -0.0255     -1.2738
-------------------------------------------------------------------------------
   56 O2    x      -2.3856      0.0955      0.0173
            y       0.0825     -1.2658      0.0519
            z       0.0067      0.0305     -1.0886
-------------------------------------------------------------------------------
   57 O2    x      -1.2032     -0.1346     -0.0037
            y      -0.0847     -1.3221     -0.0927
            z       0.0085     -0.1149     -2.0079
-------------------------------------------------------------------------------
   58 O3    x      -1.3116     -0.1381      0.1090
            y      -0.1075     -1.4455     -0.0413
            z       0.0566     -0.0673     -2.6350
-------------------------------------------------------------------------------
   59 O2    x      -1.2122      0.1464     -0.0000
            y       0.0752     -1.3286      0.0936
            z      -0.0076      0.1128     -2.0349
-------------------------------------------------------------------------------
   60 O3    x      -1.3093      0.1448      0.1003
            y       0.0925     -1.4505      0.0325
            z       0.0617      0.0711     -2.6248
-------------------------------------------------------------------------------
   61 O3    x      -1.3178     -0.1438     -0.1803
            y      -0.1107     -1.4810     -0.0217
            z      -0.1133      0.0380     -2.5683
-------------------------------------------------------------------------------
   62 O3    x      -1.3302     -0.1702     -0.0462
            y      -0.1199     -1.4425      0.0040
            z      -0.0416      0.0432     -2.5884
-------------------------------------------------------------------------------
   63 O3    x      -1.3174      0.1322     -0.1639
            y       0.0769     -1.4779      0.0341
            z      -0.0984     -0.0313     -2.5592
-------------------------------------------------------------------------------
   64 O3    x      -1.3248      0.1768     -0.0210
            y       0.1112     -1.4464      0.0026
            z      -0.0038     -0.0215     -2.5811
-------------------------------------------------------------------------------
   65 O3    x      -1.4401      0.1247      0.1100
            y       0.0773     -3.0903     -0.2128
            z       0.1318     -0.1440     -1.1379
-------------------------------------------------------------------------------
   66 O3    x      -1.4640     -0.2016     -0.1211
            y      -0.1976     -3.0690     -0.2370
            z      -0.1364     -0.1606     -1.1490
-------------------------------------------------------------------------------
   67 O3    x      -1.4651     -0.1815      0.1169
            y      -0.1638     -3.0672      0.2049
            z       0.1421      0.1289     -1.1344
-------------------------------------------------------------------------------
   68 O3    x      -1.4483      0.1453     -0.1147
            y       0.1024     -3.0472      0.2342
            z      -0.1307      0.1756     -1.1424
-------------------------------------------------------------------------------
   69 O2    x      -2.4433      0.0495      0.0787
            y       0.0127     -1.2633      0.0293
            z       0.0539      0.0003     -1.0665
-------------------------------------------------------------------------------
   70 O1    x      -3.1760      0.0559      0.0430
            y       0.0312     -1.4329     -0.1042
            z       0.0219     -0.0286     -1.3341
-------------------------------------------------------------------------------
   71 O2    x      -2.4352      0.0379      0.0472
            y       0.0363     -1.2693     -0.0319
            z       0.0426      0.0024     -1.0583
-------------------------------------------------------------------------------
   72 O1    x      -3.1444      0.0422      0.0181
            y       0.0097     -1.4277      0.0990
            z       0.0342      0.0253     -1.3550
-------------------------------------------------------------------------------




  Elastic Constant Matrix: (Units=GPa)

-------------------------------------------------------------------------------
  Indices      1         2         3         4         5         6    
-------------------------------------------------------------------------------
       1     51.8933   33.7066   20.0936   -0.1822    1.0405    8.8469
       2     33.7066   71.6765   14.7202   -0.1921   -0.0418    7.5902
       3     20.0936   14.7202   29.3797    0.7714   -0.7843    7.3289
       4     -0.1822   -0.1921    0.7714    9.0424    0.5468    0.0674
       5      1.0405   -0.0418   -0.7843    0.5468   10.2369    0.1905
       6      8.8469    7.5902    7.3289    0.0674    0.1905   10.8690
-------------------------------------------------------------------------------


  Elastic Compliance Matrix: (Units=1/GPa)

-------------------------------------------------------------------------------
  Indices      1         2         3         4         5         6    
-------------------------------------------------------------------------------
       1    0.034968 -0.012244 -0.015646  0.002135 -0.004744 -0.009292
       2   -0.012244  0.020270 -0.000843  0.000203  0.001320 -0.003645
       3   -0.015646 -0.000843  0.050670 -0.004870  0.006119 -0.020920
       4    0.002135  0.000203 -0.004870  0.111443 -0.006558  0.000828
       5   -0.004744  0.001320  0.006119 -0.006558  0.099046 -0.002881
       6   -0.009292 -0.003645 -0.020920  0.000828 -0.002881  0.116265
-------------------------------------------------------------------------------

  Mechanical properties :

-------------------------------------------------------------------------------
  Convention :                    Reuss         Voigt         Hill
-------------------------------------------------------------------------------
  Bulk  Modulus (GPa)     =      20.64281      32.22110      26.43196
  Shear Modulus (GPa)     =       9.87606      11.65828      10.76717
-------------------------------------------------------------------------------
  Velocity S-wave (km/s)  =       2.12338       2.30703       2.21710
  Velocity P-wave (km/s)  =       3.92883       4.66973       4.31521
-------------------------------------------------------------------------------
  Compressibility (1/GPa) =    0.04844301
-------------------------------------------------------------------------------
  Stress axis :                     x             y             z
-------------------------------------------------------------------------------
  Youngs Moduli (GPa)     =      28.59736      49.33443      19.73562
-------------------------------------------------------------------------------
  Poissons Ratio (x)      =                     0.60405       0.30878
  Poissons Ratio (y)      =       0.35015                     0.01663
  Poissons Ratio (z)      =       0.44743       0.04157
-------------------------------------------------------------------------------


  Piezoelectric Strain Matrix: (Units=C/m**2)

-------------------------------------------------------------------------------
  Indices      1         2         3         4         5         6    
-------------------------------------------------------------------------------
       x     0.34511   0.48599   0.16328  -0.18951  -0.07559  -0.30272
       y     2.02792   0.58859  -0.50109  -0.20867  -0.57623   0.32895
       z    -0.25482  -0.08564  -0.11364  -0.12062   0.15829   0.58422
-------------------------------------------------------------------------------


  Piezoelectric Stress Matrix: (Units=10**-11 C/N)

-------------------------------------------------------------------------------
  Indices      1         2         3         4         5         6    
-------------------------------------------------------------------------------
       x     0.63297   0.64531   0.92576  -2.08345  -0.53692  -4.35289
       y     7.07777  -1.44791  -6.70058  -1.23135  -6.85627   2.92261
       z    -1.25212  -0.04653  -1.23652  -1.40048   1.51864   7.24254
-------------------------------------------------------------------------------


  Static dielectric constant tensor : 

-------------------------------------------------------------------------------
              x         y         z
-------------------------------------------------------------------------------
       x     4.72822   0.01319  -0.16890
       y     0.01319   4.89883  -0.00045
       z    -0.16890  -0.00045   3.82551
--------------------------------------------------------------------------------

  High frequency dielectric constant tensor : 

-------------------------------------------------------------------------------
              x         y         z
-------------------------------------------------------------------------------
       x     1.63463   0.00090   0.00080
       y     0.00090   1.64333   0.00023
       z     0.00080   0.00023   1.58166
-------------------------------------------------------------------------------

  Static refractive indices : 

-------------------------------------------------------------------------------
    1 =    1.94806      2 =    2.18119      3 =    2.21360
-------------------------------------------------------------------------------

  High frequency refractive indices : 

-------------------------------------------------------------------------------
    1 =    1.25763      2 =    1.27849      3 =    1.28196
-------------------------------------------------------------------------------


  Time to end of optimisation =       7.4754 seconds


  Peak dynamic memory used =       5.01 MB 


  Timing analysis for GULP :

--------------------------------------------------------------------------------
  Task / Subroutine                                          Time (Seconds)
--------------------------------------------------------------------------------
  Calculation of reciprocal space energy and derivatives          0.4689
  Calculation of real space energy and derivatives                4.7855
  Calculation of three-body energy and derivatives                0.2133
  Calculation and manipulation of Hessian matrix                  2.3126
  Calculation of matrix inversion                                 0.0218
--------------------------------------------------------------------------------
  Total CPU time                                                  7.4754
--------------------------------------------------------------------------------


  Dump file written as POSCAR_N0008.vasp.grs
  CIF file written as POSCAR_N0008.vasp.cif


  Job Finished at 11:29.05 31st October    2025                               

