********************************************************************************
*                       GENERAL UTILITY LATTICE PROGRAM                        *
*                                 Julian Gale                                  *
*                       Curtin Institute for Computation                       *
*                    School of Molecular and Life Sciences                     *
*                    Curtin University, Western Australia                      *
********************************************************************************
* Version = 6.1.2 * Last modified =   3rd November 2022                        *
********************************************************************************
*  optimise     - perform optimisation run                                     *
*  conp         - constant pressure calculation                                *
*  property     - calculate properties for final geometry                      *
********************************************************************************

  Job Started  at 11:29.39 31st October    2025                               

  Number of CPUs =     1


  Total number of configurations input =      1

********************************************************************************
*  Input for Configuration =   1 : POSCAR_N0012.vasp                           *
********************************************************************************

  Formula = Ge12Si12O48                                                 

  Number of irreducible atoms/shells =     120


  Total number atoms/shells =     120

  Dimensionality = 3               :  Bulk   



  Cartesian lattice vectors (Angstroms) :

       17.182800    0.000000    0.000000
        0.000000    7.513760    0.000000
        0.000000    0.000000   10.447700

  Cell parameters (Angstroms/Degrees):

  a =      17.1828    alpha =  90.0000
  b =       7.5138    beta  =  90.0000
  c =      10.4477    gamma =  90.0000

  Initial cell volume =        1348.875752 Angs**3

  Temperature of configuration =   0.00     K 

  Pressure of configuration =         0.000 GPa 

  Fractional coordinates of asymmetric unit :

--------------------------------------------------------------------------------
   No.  Atomic       x           y          z         Charge      Occupancy
        Label      (Frac)      (Frac)     (Frac)        (e)         (Frac)  
--------------------------------------------------------------------------------
      1 Ge    c    0.052090    0.000000    0.372270     4.00000    1.000000    
      2 Ge    c    0.447910 *  0.000000 *  0.372270 *   4.00000    1.000000    
      3 Ge    c    0.947910 *  0.000000 *  0.627730 *   4.00000    1.000000    
      4 Ge    c    0.552090 *  0.000000 *  0.627730 *   4.00000    1.000000    
      5 Ge    c    0.339810 *  0.706090 *  0.273440 *   4.00000    1.000000    
      6 Ge    c    0.660190 *  0.706090 *  0.726560 *   4.00000    1.000000    
      7 Ge    c    0.839810 *  0.706090 *  0.726560 *   4.00000    1.000000    
      8 Ge    c    0.160190 *  0.706090 *  0.273440 *   4.00000    1.000000    
      9 Ge    c    0.660660 *  0.294090 *  0.017440 *   4.00000    1.000000    
     10 Ge    c    0.339340 *  0.294090 *  0.982560 *   4.00000    1.000000    
     11 Ge    c    0.160660 *  0.294090 *  0.982560 *   4.00000    1.000000    
     12 Ge    c    0.839340 *  0.294090 *  0.017440 *   4.00000    1.000000    
     13 Si    c    0.556730 *  0.000000 *  0.122130 *   4.00000    1.000000    
     14 Si    c    0.943270 *  0.000000 *  0.122130 *   4.00000    1.000000    
     15 Si    c    0.443270 *  0.000000 *  0.877870 *   4.00000    1.000000    
     16 Si    c    0.056730 *  0.000000 *  0.877870 *   4.00000    1.000000    
     17 Si    c    0.160190 *  0.293910 *  0.273440 *   4.00000    1.000000    
     18 Si    c    0.839810 *  0.293910 *  0.726560 *   4.00000    1.000000    
     19 Si    c    0.660190 *  0.293910 *  0.726560 *   4.00000    1.000000    
     20 Si    c    0.339810 *  0.293910 *  0.273440 *   4.00000    1.000000    
     21 Si    c    0.839340 *  0.705910 *  0.017440 *   4.00000    1.000000    
     22 Si    c    0.160660 *  0.705910 *  0.982560 *   4.00000    1.000000    
     23 Si    c    0.339340 *  0.705910 *  0.982560 *   4.00000    1.000000    
     24 Si    c    0.660660 *  0.705910 *  0.017440 *   4.00000    1.000000    
     25 O3    c    0.106570 *  0.174340 *  0.366200 *   1.33043    1.000000    
     26 O1    c    0.393430 *  0.825660 *  0.366200 *   1.73396    1.000000    
     27 O3    c    0.893430 *  0.174340 *  0.633800 *   1.33043    1.000000    
     28 O1    c    0.606570 *  0.825660 *  0.633800 *   1.73396    1.000000    
     29 O1    c    0.893430 *  0.825660 *  0.633800 *   1.73396    1.000000    
     30 O3    c    0.606570 *  0.174340 *  0.633800 *   1.33043    1.000000    
     31 O1    c    0.106570 *  0.825660 *  0.366200 *   1.73396    1.000000    
     32 O3    c    0.393430 *  0.174340 *  0.366200 *   1.33043    1.000000    
     33 O1    c    0.000000 *  0.000000 *  0.500000 *   1.73396    1.000000    
     34 O1    c    0.500000 *  0.000000 *  0.500000 *   1.73396    1.000000    
     35 O3    c    0.994520 *  0.000000 *  0.250840 *   1.33043    1.000000    
     36 O3    c    0.505480 *  0.000000 *  0.250840 *   1.33043    1.000000    
     37 O3    c    0.005480 *  0.000000 *  0.749160 *   1.33043    1.000000    
     38 O3    c    0.494520 *  0.000000 *  0.749160 *   1.33043    1.000000    
     39 O3    c    0.610230 *  0.175520 *  0.115390 *   1.33043    1.000000    
     40 O2    c    0.889770 *  0.824480 *  0.115390 *   0.87073    1.000000    
     41 O3    c    0.389770 *  0.175520 *  0.884610 *   1.33043    1.000000    
     42 O2    c    0.110230 *  0.824480 *  0.884610 *   0.87073    1.000000    
     43 O2    c    0.389770 *  0.824480 *  0.884610 *   0.87073    1.000000    
     44 O3    c    0.110230 *  0.175520 *  0.884610 *   1.33043    1.000000    
     45 O2    c    0.610230 *  0.824480 *  0.115390 *   0.87073    1.000000    
     46 O3    c    0.889770 *  0.175520 *  0.115390 *   1.33043    1.000000    
     47 O2    c    0.500000 *  0.000000 *  0.000000 *   0.87073    1.000000    
     48 O2    c    0.000000 *  0.000000 *  0.000000 *   0.87073    1.000000    
     49 O3    c    0.151750 *  0.500000 *  0.313330 *   1.33043    1.000000    
     50 O3    c    0.348250 *  0.500000 *  0.313330 *   1.33043    1.000000    
     51 O3    c    0.848250 *  0.500000 *  0.686670 *   1.33043    1.000000    
     52 O3    c    0.651750 *  0.500000 *  0.686670 *   1.33043    1.000000    
     53 O2    c    0.250000 *  0.234950 *  0.285720 *   0.87073    1.000000    
     54 O1    c    0.250000 *  0.765050 *  0.285720 *   1.73396    1.000000    
     55 O2    c    0.750000 *  0.234950 *  0.714280 *   0.87073    1.000000    
     56 O1    c    0.750000 *  0.765050 *  0.714280 *   1.73396    1.000000    
     57 O3    c    0.131410 *  0.268650 *  0.127790 *   1.33043    1.000000    
     58 O3    c    0.368590 *  0.731350 *  0.127790 *   1.33043    1.000000    
     59 O3    c    0.868590 *  0.268650 *  0.872210 *   1.33043    1.000000    
     60 O3    c    0.631410 *  0.731350 *  0.872210 *   1.33043    1.000000    
     61 O3    c    0.868590 *  0.731350 *  0.872210 *   1.33043    1.000000    
     62 O3    c    0.631410 *  0.268650 *  0.872210 *   1.33043    1.000000    
     63 O3    c    0.131410 *  0.731350 *  0.127790 *   1.33043    1.000000    
     64 O3    c    0.368590 *  0.268650 *  0.127790 *   1.33043    1.000000    
     65 O3    c    0.653920 *  0.500000 *  0.058200 *   1.33043    1.000000    
     66 O3    c    0.846080 *  0.500000 *  0.058200 *   1.33043    1.000000    
     67 O3    c    0.346080 *  0.500000 *  0.941800 *   1.33043    1.000000    
     68 O3    c    0.153920 *  0.500000 *  0.941800 *   1.33043    1.000000    
     69 O1    c    0.750000 *  0.231060 *  0.027050 *   1.73396    1.000000    
     70 O2    c    0.750000 *  0.768940 *  0.027050 *   0.87073    1.000000    
     71 O1    c    0.250000 *  0.231060 *  0.972950 *   1.73396    1.000000    
     72 O2    c    0.250000 *  0.768940 *  0.972950 *   0.87073    1.000000    
     73 O3    s    0.106570 *  0.174340 *  0.366200 *  -3.33043    1.000000    
     74 O1    s    0.393430 *  0.825660 *  0.366200 *  -3.73396    1.000000    
     75 O3    s    0.893430 *  0.174340 *  0.633800 *  -3.33043    1.000000    
     76 O1    s    0.606570 *  0.825660 *  0.633800 *  -3.73396    1.000000    
     77 O1    s    0.893430 *  0.825660 *  0.633800 *  -3.73396    1.000000    
     78 O3    s    0.606570 *  0.174340 *  0.633800 *  -3.33043    1.000000    
     79 O1    s    0.106570 *  0.825660 *  0.366200 *  -3.73396    1.000000    
     80 O3    s    0.393430 *  0.174340 *  0.366200 *  -3.33043    1.000000    
     81 O1    s    0.000000 *  0.000000 *  0.500000 *  -3.73396    1.000000    
     82 O1    s    0.500000 *  0.000000 *  0.500000 *  -3.73396    1.000000    
     83 O3    s    0.994520 *  0.000000 *  0.250840 *  -3.33043    1.000000    
     84 O3    s    0.505480 *  0.000000 *  0.250840 *  -3.33043    1.000000    
     85 O3    s    0.005480 *  0.000000 *  0.749160 *  -3.33043    1.000000    
     86 O3    s    0.494520 *  0.000000 *  0.749160 *  -3.33043    1.000000    
     87 O3    s    0.610230 *  0.175520 *  0.115390 *  -3.33043    1.000000    
     88 O2    s    0.889770 *  0.824480 *  0.115390 *  -2.87073    1.000000    
     89 O3    s    0.389770 *  0.175520 *  0.884610 *  -3.33043    1.000000    
     90 O2    s    0.110230 *  0.824480 *  0.884610 *  -2.87073    1.000000    
     91 O2    s    0.389770 *  0.824480 *  0.884610 *  -2.87073    1.000000    
     92 O3    s    0.110230 *  0.175520 *  0.884610 *  -3.33043    1.000000    
     93 O2    s    0.610230 *  0.824480 *  0.115390 *  -2.87073    1.000000    
     94 O3    s    0.889770 *  0.175520 *  0.115390 *  -3.33043    1.000000    
     95 O2    s    0.500000 *  0.000000 *  0.000000 *  -2.87073    1.000000    
     96 O2    s    0.000000 *  0.000000 *  0.000000 *  -2.87073    1.000000    
     97 O3    s    0.151750 *  0.500000 *  0.313330 *  -3.33043    1.000000    
     98 O3    s    0.348250 *  0.500000 *  0.313330 *  -3.33043    1.000000    
     99 O3    s    0.848250 *  0.500000 *  0.686670 *  -3.33043    1.000000    
    100 O3    s    0.651750 *  0.500000 *  0.686670 *  -3.33043    1.000000    
    101 O2    s    0.250000 *  0.234950 *  0.285720 *  -2.87073    1.000000    
    102 O1    s    0.250000 *  0.765050 *  0.285720 *  -3.73396    1.000000    
    103 O2    s    0.750000 *  0.234950 *  0.714280 *  -2.87073    1.000000    
    104 O1    s    0.750000 *  0.765050 *  0.714280 *  -3.73396    1.000000    
    105 O3    s    0.131410 *  0.268650 *  0.127790 *  -3.33043    1.000000    
    106 O3    s    0.368590 *  0.731350 *  0.127790 *  -3.33043    1.000000    
    107 O3    s    0.868590 *  0.268650 *  0.872210 *  -3.33043    1.000000    
    108 O3    s    0.631410 *  0.731350 *  0.872210 *  -3.33043    1.000000    
    109 O3    s    0.868590 *  0.731350 *  0.872210 *  -3.33043    1.000000    
    110 O3    s    0.631410 *  0.268650 *  0.872210 *  -3.33043    1.000000    
    111 O3    s    0.131410 *  0.731350 *  0.127790 *  -3.33043    1.000000    
    112 O3    s    0.368590 *  0.268650 *  0.127790 *  -3.33043    1.000000    
    113 O3    s    0.653920 *  0.500000 *  0.058200 *  -3.33043    1.000000    
    114 O3    s    0.846080 *  0.500000 *  0.058200 *  -3.33043    1.000000    
    115 O3    s    0.346080 *  0.500000 *  0.941800 *  -3.33043    1.000000    
    116 O3    s    0.153920 *  0.500000 *  0.941800 *  -3.33043    1.000000    
    117 O1    s    0.750000 *  0.231060 *  0.027050 *  -3.73396    1.000000    
    118 O2    s    0.750000 *  0.768940 *  0.027050 *  -2.87073    1.000000    
    119 O1    s    0.250000 *  0.231060 *  0.972950 *  -3.73396    1.000000    
    120 O2    s    0.250000 *  0.768940 *  0.972950 *  -2.87073    1.000000    
--------------------------------------------------------------------------------



********************************************************************************
*  General input information                                                   *
********************************************************************************

  Species output for all configurations : 

--------------------------------------------------------------------------------
  Species    Type    Atomic    Atomic    Charge       Radii (Angs)     Library
                     Number     Mass       (e)     Cova   Ionic  VDW   Symbol
--------------------------------------------------------------------------------
    Ge       Core       32      72.61   4.000000   1.170  0.000  1.750 Ge       
    Si       Core       14      28.09   4.000000   1.200  0.000  2.100 Si       
    O1       Core        8      16.00   1.733957   0.730  0.000  1.360 O1       
    O2       Core        8      16.00   0.870733   0.730  0.000  1.360 O2       
    O3       Core        8      16.00   1.330431   0.730  0.000  1.360 O3       
    O1       Shell       8       0.00  -3.733957   0.730  0.000  0.000 O1       
    O2       Shell       8       0.00  -2.870733   0.730  0.000  0.000 O2       
    O3       Shell       8       0.00  -3.330431   0.730  0.000  0.000 O3       
--------------------------------------------------------------------------------


  Lattice summation method               =    Ewald          (3-D)
                                         =    Parry          (2-D)
                                         =    Saunders et al (1-D)
  Accuracy factor for lattice sums       =   12.000


  Analytic derivatives to be used

  Time limit = Infinity

  Maximum range for interatomic potentials =    100000.000000 Angstroms

  General interatomic potentials :

--------------------------------------------------------------------------------
Atom  Types   Potential      Parameter       Value         Units   Cutoffs(Ang)
  1     2                                                            Min /  Max 
--------------------------------------------------------------------------------
Si   c O1   s Buckingham    Buckingham A     1315.2478    eV        0.000 16.000
                            Buckingham rho  0.31775900    Ang       
                            Buckingham C     10.141118    eV*Ang^6  
--------------------------------------------------------------------------------
Si   c O2   s Buckingham    Buckingham A     1315.2478    eV        0.000 16.000
                            Buckingham rho  0.31775900    Ang       
                            Buckingham C     10.141118    eV*Ang^6  
--------------------------------------------------------------------------------
Si   c O3   s Buckingham    Buckingham A     1315.2478    eV        0.000 16.000
                            Buckingham rho  0.31775900    Ang       
                            Buckingham C     10.141118    eV*Ang^6  
--------------------------------------------------------------------------------
Ge   c O1   s Buckingham    Buckingham A     1497.3996    eV        0.000 16.000
                            Buckingham rho  0.32564600    Ang       
                            Buckingham C     16.808599    eV*Ang^6  
--------------------------------------------------------------------------------
Ge   c O2   s Buckingham    Buckingham A     1497.3996    eV        0.000 16.000
                            Buckingham rho  0.32564600    Ang       
                            Buckingham C     16.808599    eV*Ang^6  
--------------------------------------------------------------------------------
Ge   c O3   s Buckingham    Buckingham A     1497.3996    eV        0.000 16.000
                            Buckingham rho  0.32564600    Ang       
                            Buckingham C     16.808599    eV*Ang^6  
--------------------------------------------------------------------------------
O1   s O1   s Buckingham    Buckingham A     22764.000    eV        0.000 16.000
                            Buckingham rho  0.14900000    Ang       
                            Buckingham C     10.937044    eV*Ang^6  
--------------------------------------------------------------------------------
O1   s O2   s Buckingham    Buckingham A     22764.000    eV        0.000 16.000
                            Buckingham rho  0.14900000    Ang       
                            Buckingham C     10.937044    eV*Ang^6  
--------------------------------------------------------------------------------
O1   s O3   s Buckingham    Buckingham A     22764.000    eV        0.000 16.000
                            Buckingham rho  0.14900000    Ang       
                            Buckingham C     10.937044    eV*Ang^6  
--------------------------------------------------------------------------------
O2   s O2   s Buckingham    Buckingham A     22764.000    eV        0.000 16.000
                            Buckingham rho  0.14900000    Ang       
                            Buckingham C     10.937044    eV*Ang^6  
--------------------------------------------------------------------------------
O2   s O3   s Buckingham    Buckingham A     22764.000    eV        0.000 16.000
                            Buckingham rho  0.14900000    Ang       
                            Buckingham C     10.937044    eV*Ang^6  
--------------------------------------------------------------------------------
O3   s O3   s Buckingham    Buckingham A     22764.000    eV        0.000 16.000
                            Buckingham rho  0.14900000    Ang       
                            Buckingham C     10.937044    eV*Ang^6  
--------------------------------------------------------------------------------
O1   c O1   s Spring (c-s)  Spring k 2       180.31577    eV*Ang^-2 0.000  0.800
                            Spring k 4       0.0000000    eV*Ang^-4 
--------------------------------------------------------------------------------
O2   c O2   s Spring (c-s)  Spring k 2       75.969800    eV*Ang^-2 0.000  0.800
                            Spring k 4       0.0000000    eV*Ang^-4 
--------------------------------------------------------------------------------
O3   c O3   s Spring (c-s)  Spring k 2       128.14270    eV*Ang^-2 0.000  0.800
                            Spring k 4       0.0000000    eV*Ang^-4 
--------------------------------------------------------------------------------

  General Three-body potentials :

--------------------------------------------------------------------------------
  Atoms       Potential      Parameter       Value         Units   Cutoffs(Ang)
  1 / 2 / 3                                                          Min /  Max 
--------------------------------------------------------------------------------
Si    core    Harmonic      Three-body cnst  1.2614000    eV*rad^-2 0.000  1.900
O1    shel                  Three-body angl  109.47000    degrees   0.000  1.900
O1    shel                  Three-body k4    0.0000000    eV*rad^-4 0.000  3.500
                            Three-body k3    0.0000000    eV*rad^-3 
--------------------------------------------------------------------------------
Si    core    Harmonic      Three-body cnst  1.2614000    eV*rad^-2 0.000  1.900
O1    shel                  Three-body angl  109.47000    degrees   0.000  1.900
õ(1   shel                  Three-body k4    0.0000000    eV*rad^-4 0.000  3.500
                            Three-body k3    0.0000000    eV*rad^-3 
--------------------------------------------------------------------------------
Si    core    Harmonic      Three-body cnst  1.2614000    eV*rad^-2 0.000  1.900
õ(1   shel                  Three-body angl  109.47000    degrees   0.000  1.900
õ(1   shel                  Three-body k4    0.0000000    eV*rad^-4 0.000  3.500
                            Three-body k3    0.0000000    eV*rad^-3 
--------------------------------------------------------------------------------
Si    core    Harmonic      Three-body cnst  1.2614000    eV*rad^-2 0.000  1.900
O1    shel                  Three-body angl  109.47000    degrees   0.000  1.900
O2    shel                  Three-body k4    0.0000000    eV*rad^-4 0.000  3.500
                            Three-body k3    0.0000000    eV*rad^-3 
--------------------------------------------------------------------------------
Si    core    Harmonic      Three-body cnst  1.2614000    eV*rad^-2 0.000  1.900
O1    shel                  Three-body angl  109.47000    degrees   0.000  1.900
õ(2   shel                  Three-body k4    0.0000000    eV*rad^-4 0.000  3.500
                            Three-body k3    0.0000000    eV*rad^-3 
--------------------------------------------------------------------------------
Si    core    Harmonic      Three-body cnst  1.2614000    eV*rad^-2 0.000  1.900
O2    shel                  Three-body angl  109.47000    degrees   0.000  1.900
õ(1   shel                  Three-body k4    0.0000000    eV*rad^-4 0.000  3.500
                            Three-body k3    0.0000000    eV*rad^-3 
--------------------------------------------------------------------------------
Si    core    Harmonic      Three-body cnst  1.2614000    eV*rad^-2 0.000  1.900
õ(1   shel                  Three-body angl  109.47000    degrees   0.000  1.900
õ(2   shel                  Three-body k4    0.0000000    eV*rad^-4 0.000  3.500
                            Three-body k3    0.0000000    eV*rad^-3 
--------------------------------------------------------------------------------
Si    core    Harmonic      Three-body cnst  1.2614000    eV*rad^-2 0.000  1.900
O2    shel                  Three-body angl  109.47000    degrees   0.000  1.900
O2    shel                  Three-body k4    0.0000000    eV*rad^-4 0.000  3.500
                            Three-body k3    0.0000000    eV*rad^-3 
--------------------------------------------------------------------------------
Si    core    Harmonic      Three-body cnst  1.2614000    eV*rad^-2 0.000  1.900
O2    shel                  Three-body angl  109.47000    degrees   0.000  1.900
õ(2   shel                  Three-body k4    0.0000000    eV*rad^-4 0.000  3.500
                            Three-body k3    0.0000000    eV*rad^-3 
--------------------------------------------------------------------------------
Si    core    Harmonic      Three-body cnst  1.2614000    eV*rad^-2 0.000  1.900
õ(2   shel                  Three-body angl  109.47000    degrees   0.000  1.900
õ(2   shel                  Three-body k4    0.0000000    eV*rad^-4 0.000  3.500
                            Three-body k3    0.0000000    eV*rad^-3 
--------------------------------------------------------------------------------

********************************************************************************
*  Output for configuration   1 : POSCAR_N0012.vasp                            *
********************************************************************************


  Components of energy : 

--------------------------------------------------------------------------------
  Interatomic potentials     =         832.38777292 eV    
  Three-body potentials      =           0.00269459 eV    
  Monopole - monopole (real) =       -2676.00317478 eV    
  Monopole - monopole (recip)=       -1115.35404472 eV    
  Monopole - monopole (total)=       -3791.35721950 eV    
--------------------------------------------------------------------------------
  Total lattice energy       =       -2958.96675200 eV    
--------------------------------------------------------------------------------
  Total lattice energy       =         -285495.0596 kJ/(mole unit cells)
--------------------------------------------------------------------------------


  Number of variables =      363

  Maximum number of calculations  =          1000
  Maximum Hessian update interval =            10
  Maximum step size               =   0.100000000
  Maximum parameter tolerance     =   0.000010000
  Maximum function  tolerance     =   0.000010000
  Maximum gradient  tolerance     =   0.001000000
  Maximum gradient  component     =   0.010000000

  Symmetry not applied to optimisation

  Cell parameters to be optimised using strains

  Newton-Raphson optimiser to be used

  BFGS hessian update to be used

  Lower half triangular hessian to be used

  Minimiser to switch to RFO
  When gradient norm is less than     0.050000

  Dumpfile to be written after every cycle

  Start of bulk optimisation :

  Cycle:      0 Energy:     -2958.966752  Gnorm:      5.193890  CPU:    0.086
  ** Hessian calculated **
  Cycle:      1 Energy:     -2995.082427  Gnorm:      1.209607  CPU:    0.177
  ** Hessian calculated **
  Cycle:      2 Energy:     -2998.707550  Gnorm:      0.679014  CPU:    0.318
  Cycle:      3 Energy:     -3000.038416  Gnorm:      0.454326  CPU:    0.391
  Cycle:      4 Energy:     -3001.614835  Gnorm:      0.378569  CPU:    0.476
  Cycle:      5 Energy:     -3003.217050  Gnorm:      0.296438  CPU:    0.560
  Cycle:      6 Energy:     -3003.967849  Gnorm:      0.232764  CPU:    0.632
  Cycle:      7 Energy:     -3004.300622  Gnorm:      0.156242  CPU:    0.704
  Cycle:      8 Energy:     -3004.428078  Gnorm:      0.093798  CPU:    0.777
  Cycle:      9 Energy:     -3004.474076  Gnorm:      0.064691  CPU:    0.848
  Cycle:     10 Energy:     -3004.510435  Gnorm:      0.053387  CPU:    0.934
  Cycle:     11 Energy:     -3004.548009  Gnorm:      0.057581  CPU:    1.019
  ** Hessian calculated **
  Cycle:     12 Energy:     -3004.560151  Gnorm:      0.049401  CPU:    1.173
  ** Hessian has required structure
  Cycle:     13 Energy:     -3004.576334  Gnorm:      0.079001  CPU:    1.303
  ** Hessian has required structure
  Cycle:     14 Energy:     -3004.602121  Gnorm:      0.060058  CPU:    1.430
  ** Hessian has required structure
  Cycle:     15 Energy:     -3004.630636  Gnorm:      0.108838  CPU:    1.559
  ** Hessian has required structure
  Cycle:     16 Energy:     -3004.639847  Gnorm:      0.088948  CPU:    1.660
  ** Hessian has required structure
  Cycle:     17 Energy:     -3004.659093  Gnorm:      0.136886  CPU:    1.775
  ** Hessian has required structure
  Cycle:     18 Energy:     -3004.666625  Gnorm:      0.111498  CPU:    1.877
  ** Hessian has required structure
  Cycle:     19 Energy:     -3004.676028  Gnorm:      0.133327  CPU:    1.992
  ** Hessian has required structure
  Cycle:     20 Energy:     -3004.687018  Gnorm:      0.098828  CPU:    2.095
  ** Hessian has required structure
  Cycle:     21 Energy:     -3004.693377  Gnorm:      0.110994  CPU:    2.198
  ** Hessian has wrong structure
  ** Imaginary eigenvectors =   4
  ** Hessian has wrong structure
  ** Imaginary eigenvectors =   4
  Cycle:     22 Energy:     -3004.737375  Gnorm:      0.121756  CPU:    2.601
  ** Hessian has wrong structure
  ** Imaginary eigenvectors =   3
  ** Hessian has wrong structure
  ** Imaginary eigenvectors =   2
  Cycle:     23 Energy:     -3004.802648  Gnorm:      0.135477  CPU:    2.980
  ** Hessian has wrong structure
  ** Imaginary eigenvectors =   1
  ** Hessian has required structure
  Cycle:     24 Energy:     -3005.330292  Gnorm:      0.101635  CPU:    3.346
  ** Hessian has required structure
  Cycle:     25 Energy:     -3005.512907  Gnorm:      0.061619  CPU:    3.463
  ** Hessian has required structure
  Cycle:     26 Energy:     -3005.563007  Gnorm:      0.059889  CPU:    3.579
  ** Hessian has required structure
  Cycle:     27 Energy:     -3005.635857  Gnorm:      0.047893  CPU:    3.695
  ** Hessian has required structure
  Cycle:     28 Energy:     -3005.680874  Gnorm:      0.032991  CPU:    3.810
  ** Hessian has required structure
  Cycle:     29 Energy:     -3005.691014  Gnorm:      0.036456  CPU:    3.913
  ** Hessian has required structure
  Cycle:     30 Energy:     -3005.708752  Gnorm:      0.038840  CPU:    4.041
  ** Hessian has required structure
  Cycle:     31 Energy:     -3005.726853  Gnorm:      0.037939  CPU:    4.157
  ** Hessian has required structure
  Cycle:     32 Energy:     -3005.740433  Gnorm:      0.027767  CPU:    4.273
  ** Hessian has required structure
  Cycle:     33 Energy:     -3005.752725  Gnorm:      0.029731  CPU:    4.403
  ** Hessian has required structure
  Cycle:     34 Energy:     -3005.779255  Gnorm:      0.033025  CPU:    4.584
  ** Hessian has required structure
  Cycle:     35 Energy:     -3005.794967  Gnorm:      0.033172  CPU:    4.712
  ** Hessian has required structure
  Cycle:     36 Energy:     -3005.808515  Gnorm:      0.020217  CPU:    4.828
  ** Hessian has required structure
  Cycle:     37 Energy:     -3005.818292  Gnorm:      0.022890  CPU:    4.951
  ** Hessian has required structure
  Cycle:     38 Energy:     -3005.826130  Gnorm:      0.019363  CPU:    5.067
  ** Hessian has required structure
  Cycle:     39 Energy:     -3005.832865  Gnorm:      0.016157  CPU:    5.185
  ** Hessian has required structure
  Cycle:     40 Energy:     -3005.835274  Gnorm:      0.015669  CPU:    5.290
  ** Hessian has required structure
  Cycle:     41 Energy:     -3005.838445  Gnorm:      0.010444  CPU:    5.394
  ** Hessian has required structure
  Cycle:     42 Energy:     -3005.839979  Gnorm:      0.009053  CPU:    5.513
  ** Hessian has required structure
  Cycle:     43 Energy:     -3005.840969  Gnorm:      0.005735  CPU:    5.631
  ** Hessian has wrong structure
  ** Imaginary eigenvectors =   1
  Cycle:     44 Energy:     -3005.842466  Gnorm:      0.008748  CPU:    5.945
  ** Hessian has wrong structure
  ** Imaginary eigenvectors =   1
  Cycle:     45 Energy:     -3005.845844  Gnorm:      0.014717  CPU:    6.231
  ** Hessian has required structure
  Cycle:     46 Energy:     -3005.855110  Gnorm:      0.013303  CPU:    6.434
  ** Hessian has required structure
  Cycle:     47 Energy:     -3005.865367  Gnorm:      0.015405  CPU:    6.571
  ** Hessian has required structure
  Cycle:     48 Energy:     -3005.876013  Gnorm:      0.010650  CPU:    6.693
  ** Hessian has required structure
  Cycle:     49 Energy:     -3005.880687  Gnorm:      0.016663  CPU:    6.815
  ** Hessian has required structure
  Cycle:     50 Energy:     -3005.887164  Gnorm:      0.011838  CPU:    6.951
  ** Hessian has required structure
  Cycle:     51 Energy:     -3005.890263  Gnorm:      0.014537  CPU:    7.073
  ** Hessian has required structure
  Cycle:     52 Energy:     -3005.894130  Gnorm:      0.014402  CPU:    7.180
  ** Hessian has required structure
  Cycle:     53 Energy:     -3005.899380  Gnorm:      0.010984  CPU:    7.303
  ** Hessian has required structure
  Cycle:     54 Energy:     -3005.901959  Gnorm:      0.011253  CPU:    7.425
  ** Hessian has required structure
  Cycle:     55 Energy:     -3005.905102  Gnorm:      0.008492  CPU:    7.548
  ** Hessian has required structure
  Cycle:     56 Energy:     -3005.908131  Gnorm:      0.006255  CPU:    7.740
  ** Hessian has required structure
  Cycle:     57 Energy:     -3005.910443  Gnorm:      0.004667  CPU:    7.868
  ** Hessian has required structure
  Cycle:     58 Energy:     -3005.911479  Gnorm:      0.003371  CPU:    7.996
  ** Hessian has required structure
  Cycle:     59 Energy:     -3005.912398  Gnorm:      0.004475  CPU:    8.124
  ** Hessian has required structure
  Cycle:     60 Energy:     -3005.914063  Gnorm:      0.005908  CPU:    8.260
  ** Hessian has required structure
  Cycle:     61 Energy:     -3005.915748  Gnorm:      0.010699  CPU:    8.378
  ** Hessian has required structure
  Cycle:     62 Energy:     -3005.918100  Gnorm:      0.017287  CPU:    8.494
  ** Hessian has required structure
  Cycle:     63 Energy:     -3005.919622  Gnorm:      0.019346  CPU:    8.597
  ** Hessian has required structure
  Cycle:     64 Energy:     -3005.925069  Gnorm:      0.019049  CPU:    8.712
  ** Hessian has required structure
  Cycle:     65 Energy:     -3005.932020  Gnorm:      0.022930  CPU:    8.842
  ** Hessian has required structure
  Cycle:     66 Energy:     -3005.949186  Gnorm:      0.022694  CPU:    9.019
  ** Hessian has required structure
  Cycle:     67 Energy:     -3005.956641  Gnorm:      0.015727  CPU:    9.134
  ** Hessian has required structure
  Cycle:     68 Energy:     -3005.961540  Gnorm:      0.010607  CPU:    9.253
  ** Hessian has required structure
  Cycle:     69 Energy:     -3005.964001  Gnorm:      0.008616  CPU:    9.373
  ** Hessian has required structure
  Cycle:     70 Energy:     -3005.965247  Gnorm:      0.005273  CPU:    9.491
  ** Hessian has required structure
  Cycle:     71 Energy:     -3005.965994  Gnorm:      0.006450  CPU:    9.621
  ** Hessian has required structure
  Cycle:     72 Energy:     -3005.966571  Gnorm:      0.003426  CPU:    9.739
  ** Hessian has required structure
  Cycle:     73 Energy:     -3005.966872  Gnorm:      0.002024  CPU:    9.857
  ** Hessian has required structure
  Cycle:     74 Energy:     -3005.967008  Gnorm:      0.001930  CPU:    9.974
  ** Hessian has required structure
  Cycle:     75 Energy:     -3005.967087  Gnorm:      0.000647  CPU:   10.105
  ** Hessian has required structure
  Cycle:     76 Energy:     -3005.967118  Gnorm:      0.000391  CPU:   10.289
  ** Hessian has required structure
  Cycle:     77 Energy:     -3005.967136  Gnorm:      0.000162  CPU:   10.433
  ** Hessian has required structure


  **** Optimisation achieved ****


  Final energy =   -3005.96713775 eV      
  Final Gnorm  =       0.00011409

  Components of energy : 

--------------------------------------------------------------------------------
  Interatomic potentials     =         800.88773390 eV    
  Three-body potentials      =           0.01707031 eV    
  Monopole - monopole (real) =       -1878.24669189 eV    
  Monopole - monopole (recip)=       -1928.62525007 eV    
  Monopole - monopole (total)=       -3806.87194196 eV    
--------------------------------------------------------------------------------
  Total lattice energy       =       -3005.96713775 eV    
--------------------------------------------------------------------------------
  Total lattice energy       =         -290029.8784 kJ/(mole unit cells)
--------------------------------------------------------------------------------

  Final fractional coordinates of atoms :

--------------------------------------------------------------------------------
   No.  Atomic        x           y          z          Radius
        Label       (Frac)      (Frac)     (Frac)       (Angs) 
--------------------------------------------------------------------------------
     1  Ge    c     0.052090    0.000000    0.372270    0.000000
     2  Ge    c     0.452957    0.999975    0.372271    0.000000
     3  Ge    c     0.953565    0.993446    0.637404    0.000000
     4  Ge    c     0.551481    0.993465    0.637409    0.000000
     5  Ge    c     0.345149    0.688977    0.315555    0.000000
     6  Ge    c     0.658662    0.683532    0.713922    0.000000
     7  Ge    c     0.846397    0.683507    0.713928    0.000000
     8  Ge    c     0.159911    0.689011    0.315556    0.000000
     9  Ge    c     0.660918    0.339197    0.062591    0.000000
    10  Ge    c     0.346532    0.340269    0.969537    0.000000
    11  Ge    c     0.158504    0.340288    0.969545    0.000000
    12  Ge    c     0.844124    0.339172    0.062594    0.000000
    13  Si    c     0.559022    0.027923    0.117632    0.000000
    14  Si    c     0.946030    0.027901    0.117624    0.000000
    15  Si    c     0.443594    0.029742    0.882315    0.000000
    16  Si    c     0.061451    0.029762    0.882308    0.000000
    17  Si    c     0.160698    0.296340    0.270365    0.000000
    18  Si    c     0.841577    0.287677    0.757190    0.000000
    19  Si    c     0.663465    0.287704    0.757187    0.000000
    20  Si    c     0.344339    0.296307    0.270359    0.000000
    21  Si    c     0.843666    0.732323    0.016331    0.000000
    22  Si    c     0.162751    0.737417    0.010153    0.000000
    23  Si    c     0.342300    0.737394    0.010150    0.000000
    24  Si    c     0.661390    0.732349    0.016325    0.000000
    25  O3    c     0.125475    0.151388    0.360239    0.000000
    26  O1    c     0.406933    0.809534    0.406697    0.000000
    27  O3    c     0.883840    0.139899    0.679700    0.000000
    28  O1    c     0.597166    0.798738    0.618652    0.000000
    29  O1    c     0.907898    0.798701    0.618666    0.000000
    30  O3    c     0.621196    0.139942    0.679694    0.000000
    31  O1    c     0.098135    0.809581    0.406706    0.000000
    32  O3    c     0.379553    0.151322    0.360217    0.000000
    33  O1    c     0.990137    0.056941    0.491349    0.000000
    34  O1    c     0.514888    0.056962    0.491369    0.000000
    35  O3    c     0.002785    0.972287    0.229214    0.000000
    36  O3    c     0.502288    0.972290    0.229240    0.000000
    37  O3    c     0.029897    0.977311    0.743536    0.000000
    38  O3    c     0.475160    0.977279    0.743556    0.000000
    39  O3    c     0.598502    0.210049    0.150520    0.000000
    40  O2    c     0.878885    0.883287    0.104383    0.000000
    41  O3    c     0.403299    0.215578    0.869730    0.000000
    42  O2    c     0.123732    0.888018    0.927084    0.000000
    43  O2    c     0.381320    0.887990    0.927085    0.000000
    44  O3    c     0.101735    0.215607    0.869739    0.000000
    45  O2    c     0.626178    0.883330    0.104372    0.000000
    46  O3    c     0.906538    0.210014    0.150526    0.000000
    47  O2    c     0.514552    0.041596    0.981468    0.000000
    48  O2    c     0.990483    0.041589    0.981444    0.000000
    49  O3    c     0.125299    0.480799    0.308148    0.000000
    50  O3    c     0.379749    0.480750    0.308153    0.000000
    51  O3    c     0.878060    0.472920    0.723852    0.000000
    52  O3    c     0.626990    0.472958    0.723849    0.000000
    53  O2    c     0.252519    0.322791    0.288432    0.000000
    54  O1    c     0.252530    0.701377    0.372353    0.000000
    55  O2    c     0.752521    0.299531    0.711140    0.000000
    56  O1    c     0.752530    0.698962    0.663476    0.000000
    57  O3    c     0.145119    0.251038    0.121685    0.000000
    58  O3    c     0.348296    0.778216    0.160718    0.000000
    59  O3    c     0.843547    0.251680    0.909100    0.000000
    60  O3    c     0.648946    0.774726    0.866988    0.000000
    61  O3    c     0.856113    0.774697    0.866994    0.000000
    62  O3    c     0.661490    0.251706    0.909097    0.000000
    63  O3    c     0.156765    0.778253    0.160720    0.000000
    64  O3    c     0.359916    0.251017    0.121677    0.000000
    65  O3    c     0.625789    0.548022    0.056011    0.000000
    66  O3    c     0.879262    0.547986    0.056016    0.000000
    67  O3    c     0.378372    0.551998    0.975201    0.000000
    68  O3    c     0.126672    0.552028    0.975213    0.000000
    69  O1    c     0.752521    0.331379    0.124397    0.000000
    70  O2    c     0.752528    0.710205    0.043645    0.000000
    71  O1    c     0.252517    0.328534    0.921252    0.000000
    72  O2    c     0.252525    0.723670    0.969985    0.000000
    73  O3    s     0.123441    0.154749    0.351701    0.000000
    74  O1    s     0.405660    0.814472    0.397257    0.000000
    75  O3    s     0.885211    0.143335    0.684476    0.000000
    76  O1    s     0.598511    0.804322    0.627374    0.000000
    77  O1    s     0.906551    0.804287    0.627386    0.000000
    78  O3    s     0.619826    0.143374    0.684471    0.000000
    79  O1    s     0.099406    0.814517    0.397265    0.000000
    80  O3    s     0.381589    0.154690    0.351683    0.000000
    81  O1    s     0.992343    0.047398    0.492993    0.000000
    82  O1    s     0.512686    0.047415    0.493010    0.000000
    83  O3    s     0.000738    0.980588    0.229023    0.000000
    84  O3    s     0.504331    0.980591    0.229046    0.000000
    85  O3    s     0.026918    0.983971    0.749121    0.000000
    86  O3    s     0.478137    0.983945    0.749138    0.000000
    87  O3    s     0.599591    0.202842    0.140588    0.000000
    88  O2    s     0.881929    0.881750    0.096151    0.000000
    89  O3    s     0.402612    0.207890    0.878922    0.000000
    90  O2    s     0.121343    0.886601    0.931540    0.000000
    91  O2    s     0.383708    0.886575    0.931541    0.000000
    92  O3    s     0.102422    0.207918    0.878930    0.000000
    93  O2    s     0.623132    0.881788    0.096142    0.000000
    94  O3    s     0.905450    0.202808    0.140593    0.000000
    95  O2    s     0.511618    0.038831    0.985261    0.000000
    96  O2    s     0.993421    0.038826    0.985240    0.000000
    97  O3    s     0.131466    0.479671    0.305128    0.000000
    98  O3    s     0.373582    0.479626    0.305132    0.000000
    99  O3    s     0.872048    0.471895    0.726231    0.000000
   100  O3    s     0.633002    0.471931    0.726228    0.000000
   101  O2    s     0.252519    0.317502    0.284634    0.000000
   102  O1    s     0.252530    0.699474    0.363794    0.000000
   103  O2    s     0.752521    0.297205    0.720586    0.000000
   104  O1    s     0.752530    0.696606    0.671101    0.000000
   105  O3    s     0.147640    0.262292    0.124364    0.000000
   106  O3    s     0.347478    0.767493    0.157396    0.000000
   107  O3    s     0.843398    0.262226    0.906213    0.000000
   108  O3    s     0.650890    0.763689    0.870255    0.000000
   109  O3    s     0.854169    0.763661    0.870261    0.000000
   110  O3    s     0.661640    0.262252    0.906209    0.000000
   111  O3    s     0.157582    0.767528    0.157398    0.000000
   112  O3    s     0.357395    0.262270    0.124356    0.000000
   113  O3    s     0.631896    0.549158    0.052812    0.000000
   114  O3    s     0.873154    0.549124    0.052817    0.000000
   115  O3    s     0.372481    0.553125    0.978024    0.000000
   116  O3    s     0.132563    0.553153    0.978035    0.000000
   117  O1    s     0.752521    0.332571    0.115140    0.000000
   118  O2    s     0.752528    0.714588    0.037846    0.000000
   119  O1    s     0.252518    0.330399    0.928738    0.000000
   120  O2    s     0.252525    0.726395    0.978409    0.000000
--------------------------------------------------------------------------------

  Final Cartesian lattice vectors (Angstroms) :

       17.345772   -0.000780    0.000025
        0.000531    7.754829    0.004986
       -0.000092    0.007156   10.345014


  Final cell parameters and derivatives :

--------------------------------------------------------------------------------
       a           17.345772 Angstrom     dE/de1(xx)    -0.001378 eV/strain
       b            7.754831 Angstrom     dE/de2(yy)    -0.000011 eV/strain
       c           10.345016 Angstrom     dE/de3(zz)     0.002918 eV/strain
       alpha       89.923529 Degrees      dE/de4(yz)     0.000342 eV/strain
       beta        90.000429 Degrees      dE/de5(xz)    -0.000237 eV/strain
       gamma       89.998655 Degrees      dE/de6(xy)    -0.000363 eV/strain
--------------------------------------------------------------------------------

  Primitive cell volume =          1391.543332 Angs**3

  Density of cell =      2.358490 g/cm**3

  Non-primitive cell volume =          1391.543332 Angs**3


  Final internal derivatives :

--------------------------------------------------------------------------------
   No.  Atomic          a             b             c           Radius
        Label          (eV)          (eV)          (eV)        (eV/Angs)
--------------------------------------------------------------------------------
      1 Ge    c       0.000000      0.000000      0.000000      0.000000
      2 Ge    c      -0.001083     -0.002023     -0.002059      0.000000
      3 Ge    c      -0.005265      0.000115      0.000914      0.000000
      4 Ge    c       0.001272      0.000844     -0.001094      0.000000
      5 Ge    c      -0.001852     -0.000309     -0.002922      0.000000
      6 Ge    c       0.000680     -0.001510      0.000605      0.000000
      7 Ge    c      -0.000085      0.000156     -0.000362      0.000000
      8 Ge    c       0.002119      0.000007     -0.003187      0.000000
      9 Ge    c       0.000250      0.000827      0.000007      0.000000
     10 Ge    c       0.000458     -0.000068     -0.001438      0.000000
     11 Ge    c      -0.001371     -0.000020     -0.001805      0.000000
     12 Ge    c      -0.000418      0.000662      0.000478      0.000000
     13 Si    c      -0.004540      0.000495     -0.004679      0.000000
     14 Si    c      -0.001835      0.001864     -0.005653      0.000000
     15 Si    c       0.000059     -0.000021      0.001204      0.000000
     16 Si    c       0.001573     -0.000352     -0.000025      0.000000
     17 Si    c      -0.001288      0.001020      0.002746      0.000000
     18 Si    c      -0.005119     -0.001730     -0.000877      0.000000
     19 Si    c       0.003411     -0.001341      0.001151      0.000000
     20 Si    c       0.001645      0.000993      0.002087      0.000000
     21 Si    c       0.000990     -0.000352     -0.000425      0.000000
     22 Si    c       0.003293      0.001592     -0.000216      0.000000
     23 Si    c      -0.004630      0.002137     -0.000698      0.000000
     24 Si    c      -0.001611     -0.000872     -0.002194      0.000000
     25 O3    c       0.001539      0.001055     -0.002304      0.000000
     26 O1    c      -0.000742      0.000107     -0.000405      0.000000
     27 O3    c       0.004176     -0.000370      0.000253      0.000000
     28 O1    c       0.000932     -0.001674     -0.001810      0.000000
     29 O1    c      -0.000609     -0.000820     -0.000676      0.000000
     30 O3    c       0.000650      0.000123      0.000531      0.000000
     31 O1    c      -0.000258      0.000456     -0.000721      0.000000
     32 O3    c      -0.002438      0.000281     -0.002172      0.000000
     33 O1    c      -0.007963      0.003806      0.006519      0.000000
     34 O1    c       0.000176      0.002494      0.004834      0.000000
     35 O3    c       0.006406     -0.003746      0.004617      0.000000
     36 O3    c       0.000510     -0.001300      0.004941      0.000000
     37 O3    c       0.005935      0.000030      0.003483      0.000000
     38 O3    c      -0.007095     -0.000321      0.005087      0.000000
     39 O3    c       0.001101      0.000575      0.000941      0.000000
     40 O2    c      -0.000687      0.000664      0.001132      0.000000
     41 O3    c       0.001058     -0.000452     -0.000613      0.000000
     42 O2    c       0.000090     -0.003805      0.003278      0.000000
     43 O2    c       0.000494     -0.003921      0.003976      0.000000
     44 O3    c      -0.000036      0.000196     -0.000014      0.000000
     45 O2    c       0.000995      0.001389      0.001459      0.000000
     46 O3    c       0.000083      0.000323      0.000888      0.000000
     47 O2    c       0.002210     -0.000542      0.001285      0.000000
     48 O2    c      -0.003950      0.000006      0.000765      0.000000
     49 O3    c       0.003001     -0.000334     -0.001475      0.000000
     50 O3    c      -0.002478      0.000386     -0.001058      0.000000
     51 O3    c       0.002607      0.002583     -0.001694      0.000000
     52 O3    c      -0.000151      0.005290     -0.002431      0.000000
     53 O2    c      -0.001588      0.002560      0.000758      0.000000
     54 O1    c      -0.002131     -0.002308     -0.002085      0.000000
     55 O2    c       0.002611     -0.000144      0.000952      0.000000
     56 O1    c      -0.002118      0.000018     -0.000178      0.000000
     57 O3    c      -0.003648     -0.000905      0.000317      0.000000
     58 O3    c      -0.007158     -0.003985      0.000874      0.000000
     59 O3    c       0.001040     -0.000151      0.001888      0.000000
     60 O3    c      -0.002033      0.000984      0.000915      0.000000
     61 O3    c       0.002661      0.001263     -0.001765      0.000000
     62 O3    c      -0.001004      0.000442     -0.000203      0.000000
     63 O3    c       0.007436     -0.004247      0.001697      0.000000
     64 O3    c       0.003619     -0.000752      0.000500      0.000000
     65 O3    c      -0.000512     -0.002036      0.001376      0.000000
     66 O3    c       0.001729     -0.002714      0.001456      0.000000
     67 O3    c      -0.001725      0.002325      0.003735      0.000000
     68 O3    c       0.001982      0.002291      0.003476      0.000000
     69 O1    c       0.000856      0.000398     -0.000106      0.000000
     70 O2    c      -0.000576     -0.001495      0.000492      0.000000
     71 O1    c       0.000915     -0.000771     -0.000844      0.000000
     72 O2    c       0.002762      0.005574      0.001231      0.000000
     73 O3    s       0.001851      0.000429      0.002325      0.000000
     74 O1    s      -0.001036     -0.000934     -0.000779      0.000000
     75 O3    s      -0.002030      0.000502     -0.000431      0.000000
     76 O1    s       0.000862     -0.000083     -0.000499      0.000000
     77 O1    s      -0.000591      0.000145     -0.000144      0.000000
     78 O3    s       0.001056      0.000342     -0.001137      0.000000
     79 O1    s       0.003040     -0.001252     -0.000541      0.000000
     80 O3    s       0.000374      0.000066      0.002222      0.000000
     81 O1    s       0.003725     -0.000562     -0.002726      0.000000
     82 O1    s      -0.000962      0.000259     -0.002983      0.000000
     83 O3    s      -0.003455      0.000949     -0.001726      0.000000
     84 O3    s       0.001468      0.000295     -0.002393      0.000000
     85 O3    s      -0.002443     -0.000027     -0.000725      0.000000
     86 O3    s       0.000271     -0.000357     -0.000505      0.000000
     87 O3    s      -0.001432      0.000386     -0.001997      0.000000
     88 O2    s      -0.000667      0.000710      0.000925      0.000000
     89 O3    s      -0.000287     -0.000154      0.000678      0.000000
     90 O2    s       0.000691     -0.000950      0.002717      0.000000
     91 O2    s      -0.000453     -0.000848      0.002099      0.000000
     92 O3    s       0.000371     -0.000159     -0.000198      0.000000
     93 O2    s      -0.000184      0.000655      0.000868      0.000000
     94 O3    s      -0.001696      0.000689     -0.001505      0.000000
     95 O2    s      -0.005688      0.000446      0.000049      0.000000
     96 O2    s       0.004256      0.000552     -0.001220      0.000000
     97 O3    s      -0.004848      0.000488      0.001730      0.000000
     98 O3    s       0.005982      0.000195      0.001626      0.000000
     99 O3    s      -0.001223     -0.001599     -0.000264      0.000000
    100 O3    s      -0.000771     -0.002126      0.001071      0.000000
    101 O2    s      -0.000621     -0.002456      0.000456      0.000000
    102 O1    s       0.000856      0.003144      0.001363      0.000000
    103 O2    s       0.000587      0.000227      0.001353      0.000000
    104 O1    s       0.001131      0.000291     -0.000166      0.000000
    105 O3    s       0.001214     -0.000894     -0.001719      0.000000
    106 O3    s       0.001045      0.002622     -0.005895      0.000000
    107 O3    s      -0.002419     -0.000410     -0.000282      0.000000
    108 O3    s       0.000749     -0.001300     -0.002526      0.000000
    109 O3    s      -0.000743     -0.000308     -0.001840      0.000000
    110 O3    s       0.002620     -0.000046      0.001015      0.000000
    111 O3    s      -0.000953      0.002501     -0.005843      0.000000
    112 O3    s      -0.000989     -0.000625     -0.002404      0.000000
    113 O3    s      -0.001927     -0.000464     -0.000737      0.000000
    114 O3    s       0.002768     -0.000283     -0.000100      0.000000
    115 O3    s      -0.005165      0.001757     -0.002421      0.000000
    116 O3    s       0.003965      0.001509     -0.001904      0.000000
    117 O1    s      -0.000671     -0.001001     -0.000825      0.000000
    118 O2    s      -0.001091      0.001278      0.000552      0.000000
    119 O1    s      -0.000153      0.001504      0.000087      0.000000
    120 O2    s       0.000618     -0.004133      0.001908      0.000000
--------------------------------------------------------------------------------
  Maximum abs         0.007963      0.005574      0.006519      0.000000
--------------------------------------------------------------------------------


  Born effective charge tensors : 

-------------------------------------------------------------------------------
  Atom             x           y             z
-------------------------------------------------------------------------------
    1 Ge    x       4.1611     -0.1938     -0.0611
            y       0.0317      3.8889     -0.1179
            z      -0.7452      0.2991      4.5169
-------------------------------------------------------------------------------
    2 Ge    x       4.1611      0.1941      0.0613
            y      -0.0318      3.8889     -0.1179
            z       0.7448      0.2992      4.5170
-------------------------------------------------------------------------------
    3 Ge    x       4.1405      0.2413     -0.3323
            y       0.0109      3.8991      0.1466
            z      -0.3666     -0.3161      4.6245
-------------------------------------------------------------------------------
    4 Ge    x       4.1406     -0.2410      0.3321
            y      -0.0110      3.8991      0.1466
            z       0.3667     -0.3163      4.6244
-------------------------------------------------------------------------------
    5 Ge    x       3.9876      0.4210      0.0852
            y       0.2863      4.1473      0.3438
            z       0.1604      0.0609      3.4875
-------------------------------------------------------------------------------
    6 Ge    x       3.9803     -0.3772      0.1162
            y      -0.2917      4.1446     -0.3620
            z       0.1485     -0.0700      3.4868
-------------------------------------------------------------------------------
    7 Ge    x       3.9803      0.3772     -0.1162
            y       0.2918      4.1446     -0.3619
            z      -0.1485     -0.0700      3.4868
-------------------------------------------------------------------------------
    8 Ge    x       3.9875     -0.4211     -0.0852
            y      -0.2861      4.1473      0.3439
            z      -0.1604      0.0609      3.4875
-------------------------------------------------------------------------------
    9 Ge    x       4.0429      0.4137     -0.0427
            y       0.2471      4.1880     -0.3011
            z      -0.1159      0.0115      3.2338
-------------------------------------------------------------------------------
   10 Ge    x       4.0249     -0.3690     -0.1142
            y      -0.2282      4.1895      0.3682
            z      -0.0684      0.0246      3.2713
-------------------------------------------------------------------------------
   11 Ge    x       4.0249      0.3690      0.1142
            y       0.2283      4.1894      0.3682
            z       0.0684      0.0247      3.2714
-------------------------------------------------------------------------------
   12 Ge    x       4.0429     -0.4138      0.0427
            y      -0.2470      4.1880     -0.3011
            z       0.1159      0.0115      3.2338
-------------------------------------------------------------------------------
   13 Si    x       3.7704      0.3506     -0.1851
            y       0.0779      3.5591      0.0821
            z      -0.7038     -0.2333      3.2501
-------------------------------------------------------------------------------
   14 Si    x       3.7705     -0.3505      0.1850
            y      -0.0780      3.5591      0.0821
            z       0.7039     -0.2333      3.2499
-------------------------------------------------------------------------------
   15 Si    x       3.6646     -0.3353     -0.4093
            y      -0.0855      3.5612     -0.0600
            z      -0.4658      0.2908      3.4694
-------------------------------------------------------------------------------
   16 Si    x       3.6646      0.3353      0.4094
            y       0.0854      3.5612     -0.0601
            z       0.4657      0.2907      3.4695
-------------------------------------------------------------------------------
   17 Si    x       3.3125      0.4933     -0.1995
            y       0.1124      3.9271     -0.1612
            z      -0.1311     -0.0571      3.2961
-------------------------------------------------------------------------------
   18 Si    x       3.3438     -0.4670     -0.1336
            y      -0.1299      3.9572      0.1656
            z      -0.2439      0.0982      3.2819
-------------------------------------------------------------------------------
   19 Si    x       3.3439      0.4670      0.1336
            y       0.1301      3.9571      0.1656
            z       0.2440      0.0982      3.2819
-------------------------------------------------------------------------------
   20 Si    x       3.3124     -0.4933      0.1994
            y      -0.1122      3.9273     -0.1611
            z       0.1310     -0.0571      3.2961
-------------------------------------------------------------------------------
   21 Si    x       3.3145      0.3768      0.1726
            y      -0.0091      3.7611     -0.0060
            z       0.1077     -0.0977      3.0480
-------------------------------------------------------------------------------
   22 Si    x       3.3182     -0.3319      0.1310
            y       0.0208      3.7838     -0.0254
            z       0.1627      0.0502      3.0926
-------------------------------------------------------------------------------
   23 Si    x       3.3182      0.3320     -0.1310
            y      -0.0207      3.7838     -0.0253
            z      -0.1626      0.0502      3.0926
-------------------------------------------------------------------------------
   24 Si    x       3.3144     -0.3768     -0.1726
            y       0.0092      3.7611     -0.0059
            z      -0.1077     -0.0977      3.0480
-------------------------------------------------------------------------------
   25 O3    x      -1.9162     -0.8756      0.4049
            y      -0.8580     -2.3182      0.5710
            z       0.4546      0.5128     -1.5903
-------------------------------------------------------------------------------
   26 O1    x      -2.0312     -0.9449     -0.3047
            y      -0.9233     -2.5380     -0.2486
            z      -0.4331     -0.2759     -1.6991
-------------------------------------------------------------------------------
   27 O3    x      -1.9996      0.9245      0.5083
            y       0.9082     -2.3423     -0.6201
            z       0.5104     -0.5562     -1.5922
-------------------------------------------------------------------------------
   28 O1    x      -2.0238      0.9261     -0.4145
            y       0.9243     -2.5432      0.3306
            z      -0.4514      0.3457     -1.6995
-------------------------------------------------------------------------------
   29 O1    x      -2.0239     -0.9261      0.4146
            y      -0.9243     -2.5431      0.3306
            z       0.4515      0.3457     -1.6995
-------------------------------------------------------------------------------
   30 O3    x      -1.9999     -0.9246     -0.5084
            y      -0.9083     -2.3421     -0.6200
            z      -0.5105     -0.5561     -1.5922
-------------------------------------------------------------------------------
   31 O1    x      -2.0311      0.9448      0.3046
            y       0.9233     -2.5381     -0.2487
            z       0.4330     -0.2760     -1.6992
-------------------------------------------------------------------------------
   32 O3    x      -1.9161      0.8755     -0.4048
            y       0.8579     -2.3184      0.5711
            z      -0.4545      0.5129     -1.5902
-------------------------------------------------------------------------------
   33 O1    x      -1.9657      0.0161      1.0301
            y       0.0164     -1.3292      0.0349
            z       1.2981      0.0683     -3.4456
-------------------------------------------------------------------------------
   34 O1    x      -1.9655     -0.0162     -1.0301
            y      -0.0164     -1.3293      0.0349
            z      -1.2981      0.0682     -3.4457
-------------------------------------------------------------------------------
   35 O3    x      -2.0482      0.1536     -0.9925
            y       0.0789     -1.2825      0.1048
            z      -0.9739      0.1388     -2.5987
-------------------------------------------------------------------------------
   36 O3    x      -2.0482     -0.1536      0.9925
            y      -0.0788     -1.2825      0.1048
            z       0.9740      0.1390     -2.5988
-------------------------------------------------------------------------------
   37 O3    x      -1.9642     -0.1203     -0.8779
            y      -0.0439     -1.2478     -0.1536
            z      -0.8781     -0.2264     -2.7157
-------------------------------------------------------------------------------
   38 O3    x      -1.9643      0.1203      0.8780
            y       0.0440     -1.2479     -0.1536
            z       0.8782     -0.2264     -2.7156
-------------------------------------------------------------------------------
   39 O3    x      -1.9210     -0.9210      0.1973
            y      -0.8303     -2.5142      0.1405
            z       0.3070      0.1790     -1.3659
-------------------------------------------------------------------------------
   40 O2    x      -1.7162     -0.6801     -0.2783
            y      -0.6200     -1.9350     -0.3474
            z      -0.3191     -0.2992     -1.2316
-------------------------------------------------------------------------------
   41 O3    x      -1.8877      0.9138      0.3495
            y       0.8127     -2.5330     -0.3094
            z       0.3307     -0.3074     -1.4210
-------------------------------------------------------------------------------
   42 O2    x      -1.7119      0.6722     -0.4036
            y       0.6175     -1.9370      0.4388
            z      -0.3730      0.3714     -1.2935
-------------------------------------------------------------------------------
   43 O2    x      -1.7121     -0.6722      0.4036
            y      -0.6176     -1.9369      0.4387
            z       0.3731      0.3713     -1.2935
-------------------------------------------------------------------------------
   44 O3    x      -1.8878     -0.9139     -0.3496
            y      -0.8127     -2.5329     -0.3095
            z      -0.3308     -0.3074     -1.4210
-------------------------------------------------------------------------------
   45 O2    x      -1.7161      0.6801      0.2784
            y       0.6199     -1.9351     -0.3474
            z       0.3191     -0.2992     -1.2316
-------------------------------------------------------------------------------
   46 O3    x      -1.9208      0.9209     -0.1973
            y       0.8302     -2.5143      0.1405
            z      -0.3070      0.1790     -1.3659
-------------------------------------------------------------------------------
   47 O2    x      -1.8625     -0.0078     -0.5683
            y      -0.0046     -1.1844      0.0167
            z      -0.3563      0.0129     -1.6727
-------------------------------------------------------------------------------
   48 O2    x      -1.8625      0.0078      0.5683
            y       0.0046     -1.1844      0.0167
            z       0.3562      0.0130     -1.6727
-------------------------------------------------------------------------------
   49 O3    x      -1.4059      0.1248      0.0962
            y       0.1091     -2.9534     -0.2832
            z       0.1059     -0.1936     -1.2122
-------------------------------------------------------------------------------
   50 O3    x      -1.4060     -0.1251     -0.0963
            y      -0.1095     -2.9533     -0.2832
            z      -0.1060     -0.1936     -1.2122
-------------------------------------------------------------------------------
   51 O3    x      -1.3921     -0.1415      0.0670
            y      -0.1378     -2.9883      0.2642
            z       0.0985      0.1763     -1.2007
-------------------------------------------------------------------------------
   52 O3    x      -1.3920      0.1412     -0.0669
            y       0.1374     -2.9883      0.2642
            z      -0.0985      0.1763     -1.2007
-------------------------------------------------------------------------------
   53 O2    x      -2.3772      0.0001      0.0000
            y       0.0001     -1.2971      0.0311
            z       0.0000      0.0132     -1.0799
-------------------------------------------------------------------------------
   54 O1    x      -3.0411      0.0002     -0.0000
            y       0.0002     -1.4073     -0.0888
            z       0.0000     -0.0252     -1.4031
-------------------------------------------------------------------------------
   55 O2    x      -2.3122      0.0001     -0.0000
            y       0.0001     -1.2712     -0.0254
            z      -0.0000     -0.0128     -1.1221
-------------------------------------------------------------------------------
   56 O1    x      -3.0869      0.0002     -0.0000
            y       0.0001     -1.4158      0.0884
            z      -0.0000      0.0304     -1.3622
-------------------------------------------------------------------------------
   57 O3    x      -1.3382     -0.1857     -0.1687
            y      -0.1228     -1.4582      0.0031
            z      -0.1051      0.0505     -2.5111
-------------------------------------------------------------------------------
   58 O3    x      -1.3089     -0.1571     -0.0623
            y      -0.0881     -1.4598      0.0718
            z      -0.0301      0.0988     -2.5862
-------------------------------------------------------------------------------
   59 O3    x      -1.3185      0.1408     -0.1352
            y       0.0768     -1.4470     -0.0428
            z      -0.0716     -0.0885     -2.5504
-------------------------------------------------------------------------------
   60 O3    x      -1.3129      0.1780     -0.0664
            y       0.1115     -1.4629     -0.0738
            z      -0.0434     -0.0981     -2.5402
-------------------------------------------------------------------------------
   61 O3    x      -1.3129     -0.1781      0.0665
            y      -0.1115     -1.4629     -0.0738
            z       0.0434     -0.0981     -2.5402
-------------------------------------------------------------------------------
   62 O3    x      -1.3185     -0.1408      0.1352
            y      -0.0769     -1.4469     -0.0429
            z       0.0716     -0.0885     -2.5504
-------------------------------------------------------------------------------
   63 O3    x      -1.3089      0.1571      0.0622
            y       0.0881     -1.4598      0.0718
            z       0.0300      0.0988     -2.5862
-------------------------------------------------------------------------------
   64 O3    x      -1.3382      0.1856      0.1687
            y       0.1227     -1.4583      0.0031
            z       0.1051      0.0505     -2.5112
-------------------------------------------------------------------------------
   65 O3    x      -1.4594     -0.1407      0.1252
            y      -0.1123     -3.0470      0.2939
            z       0.1312      0.1892     -1.1406
-------------------------------------------------------------------------------
   66 O3    x      -1.4594      0.1404     -0.1252
            y       0.1120     -3.0471      0.2939
            z      -0.1311      0.1892     -1.1406
-------------------------------------------------------------------------------
   67 O3    x      -1.4460      0.1538      0.1122
            y       0.1397     -3.0901     -0.2621
            z       0.1213     -0.1586     -1.1385
-------------------------------------------------------------------------------
   68 O3    x      -1.4461     -0.1541     -0.1122
            y      -0.1400     -3.0900     -0.2620
            z      -0.1213     -0.1586     -1.1385
-------------------------------------------------------------------------------
   69 O1    x      -3.1165      0.0002     -0.0000
            y       0.0001     -1.4136      0.0917
            z      -0.0000      0.0133     -1.3671
-------------------------------------------------------------------------------
   70 O2    x      -2.4640      0.0001     -0.0000
            y       0.0001     -1.2912     -0.0306
            z      -0.0000     -0.0017     -1.0292
-------------------------------------------------------------------------------
   71 O1    x      -3.2280      0.0002      0.0000
            y       0.0001     -1.4260     -0.1026
            z       0.0000     -0.0263     -1.2865
-------------------------------------------------------------------------------
   72 O2    x      -2.4363      0.0001      0.0000
            y       0.0001     -1.2690      0.0319
            z       0.0000      0.0070     -1.0560
-------------------------------------------------------------------------------




  Elastic Constant Matrix: (Units=GPa)

-------------------------------------------------------------------------------
  Indices      1         2         3         4         5         6    
-------------------------------------------------------------------------------
       1     31.1773   21.8613   10.4138   -0.1829    0.0016    0.0035
       2     21.8613   60.8618    9.6476   -0.8528    0.0005    0.0130
       3     10.4138    9.6476   16.4354    0.3584    0.0012   -0.0068
       4     -0.1829   -0.8528    0.3584    5.8808   -0.0013    0.0010
       5      0.0016    0.0005    0.0012   -0.0013    7.7924   -0.9385
       6      0.0035    0.0130   -0.0068    0.0010   -0.9385    7.6885
-------------------------------------------------------------------------------


  Elastic Compliance Matrix: (Units=1/GPa)

-------------------------------------------------------------------------------
  Indices      1         2         3         4         5         6    
-------------------------------------------------------------------------------
       1    0.049791 -0.014188 -0.023240  0.000907 -0.000008 -0.000021
       2   -0.014188  0.022223 -0.004121  0.003033 -0.000002 -0.000035
       3   -0.023240 -0.004121  0.078121 -0.006081  0.000002  0.000088
       4    0.000907  0.003033 -0.006081  0.170884  0.000025 -0.000029
       5   -0.000008 -0.000002  0.000002  0.000025  0.130245  0.015899
       6   -0.000021 -0.000035  0.000088 -0.000029  0.015899  0.132005
-------------------------------------------------------------------------------

  Mechanical properties :

-------------------------------------------------------------------------------
  Convention :                    Reuss         Voigt         Hill
-------------------------------------------------------------------------------
  Bulk  Modulus (GPa)     =      14.91718      21.36887      18.14303
  Shear Modulus (GPa)     =       7.25992       8.70913       7.98452
-------------------------------------------------------------------------------
  Velocity S-wave (km/s)  =       1.75448       1.92163       1.83996
  Velocity P-wave (km/s)  =       3.22942       3.73951       3.49379
-------------------------------------------------------------------------------
  Compressibility (1/GPa) =    0.06703678
-------------------------------------------------------------------------------
  Stress axis :                     x             y             z
-------------------------------------------------------------------------------
  Youngs Moduli (GPa)     =      20.08392      44.99906      12.80062
-------------------------------------------------------------------------------
  Poissons Ratio (x)      =                     0.63845       0.29749
  Poissons Ratio (y)      =       0.28495                     0.05275
  Poissons Ratio (z)      =       0.46675       0.18544
-------------------------------------------------------------------------------


  Piezoelectric Strain Matrix: (Units=C/m**2)

-------------------------------------------------------------------------------
  Indices      1         2         3         4         5         6    
-------------------------------------------------------------------------------
       x     0.00068  -0.00014   0.00033  -0.00026   0.64675   0.63562
       y    -0.40103  -0.41921   0.94648  -0.31123   0.00001   0.00008
       z     0.59171   1.01480  -1.37576   0.89984   0.00033  -0.00122
-------------------------------------------------------------------------------


  Piezoelectric Stress Matrix: (Units=10**-11 C/N)

-------------------------------------------------------------------------------
  Indices      1         2         3         4         5         6    
-------------------------------------------------------------------------------
       x     0.00097  -0.00382   0.00690  -0.00489   9.43413   9.41869
       y    -3.62984  -0.84706   8.68806  -6.05753  -0.00002   0.01255
       z     4.78528   2.25550 -13.08820  16.57495   0.00377  -0.03505
-------------------------------------------------------------------------------


  Static dielectric constant tensor : 

-------------------------------------------------------------------------------
              x         y         z
-------------------------------------------------------------------------------
       x     5.05107   0.00007   0.00001
       y     0.00007   5.31330  -0.08298
       z     0.00001  -0.08298   4.27159
--------------------------------------------------------------------------------

  High frequency dielectric constant tensor : 

-------------------------------------------------------------------------------
              x         y         z
-------------------------------------------------------------------------------
       x     1.59586   0.00000  -0.00000
       y     0.00000   1.60915   0.00041
       z    -0.00000   0.00041   1.54851
-------------------------------------------------------------------------------

  Static refractive indices : 

-------------------------------------------------------------------------------
    1 =    2.06519      2 =    2.24746      3 =    2.30648
-------------------------------------------------------------------------------

  High frequency refractive indices : 

-------------------------------------------------------------------------------
    1 =    1.24439      2 =    1.26327      3 =    1.26852
-------------------------------------------------------------------------------


  Time to end of optimisation =      10.6795 seconds


  Peak dynamic memory used =       5.01 MB 


  Timing analysis for GULP :

--------------------------------------------------------------------------------
  Task / Subroutine                                          Time (Seconds)
--------------------------------------------------------------------------------
  Calculation of reciprocal space energy and derivatives          0.6222
  Calculation of real space energy and derivatives                6.7613
  Calculation of three-body energy and derivatives                0.1969
  Calculation and manipulation of Hessian matrix                  3.5209
  Calculation of matrix inversion                                 0.0163
  Global summation overhead                                       0.0001
--------------------------------------------------------------------------------
  Total CPU time                                                 10.6795
--------------------------------------------------------------------------------


  Dump file written as POSCAR_N0012.vasp.grs
  CIF file written as POSCAR_N0012.vasp.cif


  Job Finished at 11:29.49 31st October    2025                               

