********************************************************************************
*                       GENERAL UTILITY LATTICE PROGRAM                        *
*                                 Julian Gale                                  *
*                       Curtin Institute for Computation                       *
*                    School of Molecular and Life Sciences                     *
*                    Curtin University, Western Australia                      *
********************************************************************************
* Version = 6.1.2 * Last modified =   3rd November 2022                        *
********************************************************************************
*  optimise     - perform optimisation run                                     *
*  conp         - constant pressure calculation                                *
*  property     - calculate properties for final geometry                      *
********************************************************************************

  Job Started  at 11:28.40 31st October    2025                               

  Number of CPUs =     1


  Total number of configurations input =      1

********************************************************************************
*  Input for Configuration =   1 : POSCAR_N0006.vasp                           *
********************************************************************************

  Formula = Ge6Si18O48                                                  

  Number of irreducible atoms/shells =     120


  Total number atoms/shells =     120

  Dimensionality = 3               :  Bulk   



  Cartesian lattice vectors (Angstroms) :

       17.182800    0.000000    0.000000
        0.000000    7.513760    0.000000
        0.000000    0.000000   10.447700

  Cell parameters (Angstroms/Degrees):

  a =      17.1828    alpha =  90.0000
  b =       7.5138    beta  =  90.0000
  c =      10.4477    gamma =  90.0000

  Initial cell volume =        1348.875752 Angs**3

  Temperature of configuration =   0.00     K 

  Pressure of configuration =         0.000 GPa 

  Fractional coordinates of asymmetric unit :

--------------------------------------------------------------------------------
   No.  Atomic       x           y          z         Charge      Occupancy
        Label      (Frac)      (Frac)     (Frac)        (e)         (Frac)  
--------------------------------------------------------------------------------
      1 Ge    c    0.052090    0.000000    0.372270     4.00000    1.000000    
      2 Ge    c    0.552090 *  0.000000 *  0.627730 *   4.00000    1.000000    
      3 Ge    c    0.339810 *  0.706090 *  0.273440 *   4.00000    1.000000    
      4 Ge    c    0.839810 *  0.706090 *  0.726560 *   4.00000    1.000000    
      5 Ge    c    0.660660 *  0.294090 *  0.017440 *   4.00000    1.000000    
      6 Ge    c    0.160660 *  0.294090 *  0.982560 *   4.00000    1.000000    
      7 Si    c    0.447910 *  0.000000 *  0.372270 *   4.00000    1.000000    
      8 Si    c    0.947910 *  0.000000 *  0.627730 *   4.00000    1.000000    
      9 Si    c    0.556730 *  0.000000 *  0.122130 *   4.00000    1.000000    
     10 Si    c    0.943270 *  0.000000 *  0.122130 *   4.00000    1.000000    
     11 Si    c    0.443270 *  0.000000 *  0.877870 *   4.00000    1.000000    
     12 Si    c    0.056730 *  0.000000 *  0.877870 *   4.00000    1.000000    
     13 Si    c    0.160190 *  0.293910 *  0.273440 *   4.00000    1.000000    
     14 Si    c    0.839810 *  0.293910 *  0.726560 *   4.00000    1.000000    
     15 Si    c    0.660190 *  0.706090 *  0.726560 *   4.00000    1.000000    
     16 Si    c    0.660190 *  0.293910 *  0.726560 *   4.00000    1.000000    
     17 Si    c    0.160190 *  0.706090 *  0.273440 *   4.00000    1.000000    
     18 Si    c    0.339810 *  0.293910 *  0.273440 *   4.00000    1.000000    
     19 Si    c    0.839340 *  0.705910 *  0.017440 *   4.00000    1.000000    
     20 Si    c    0.339340 *  0.294090 *  0.982560 *   4.00000    1.000000    
     21 Si    c    0.160660 *  0.705910 *  0.982560 *   4.00000    1.000000    
     22 Si    c    0.339340 *  0.705910 *  0.982560 *   4.00000    1.000000    
     23 Si    c    0.660660 *  0.705910 *  0.017440 *   4.00000    1.000000    
     24 Si    c    0.839340 *  0.294090 *  0.017440 *   4.00000    1.000000    
     25 O3    c    0.106570 *  0.174340 *  0.366200 *   1.33043    1.000000    
     26 O3    c    0.393430 *  0.825660 *  0.366200 *   1.33043    1.000000    
     27 O2    c    0.893430 *  0.174340 *  0.633800 *   0.87073    1.000000    
     28 O3    c    0.606570 *  0.825660 *  0.633800 *   1.33043    1.000000    
     29 O3    c    0.893430 *  0.825660 *  0.633800 *   1.33043    1.000000    
     30 O3    c    0.606570 *  0.174340 *  0.633800 *   1.33043    1.000000    
     31 O3    c    0.106570 *  0.825660 *  0.366200 *   1.33043    1.000000    
     32 O2    c    0.393430 *  0.174340 *  0.366200 *   0.87073    1.000000    
     33 O3    c    0.000000 *  0.000000 *  0.500000 *   1.33043    1.000000    
     34 O3    c    0.500000 *  0.000000 *  0.500000 *   1.33043    1.000000    
     35 O3    c    0.994520 *  0.000000 *  0.250840 *   1.33043    1.000000    
     36 O2    c    0.505480 *  0.000000 *  0.250840 *   0.87073    1.000000    
     37 O2    c    0.005480 *  0.000000 *  0.749160 *   0.87073    1.000000    
     38 O3    c    0.494520 *  0.000000 *  0.749160 *   1.33043    1.000000    
     39 O3    c    0.610230 *  0.175520 *  0.115390 *   1.33043    1.000000    
     40 O2    c    0.889770 *  0.824480 *  0.115390 *   0.87073    1.000000    
     41 O2    c    0.389770 *  0.175520 *  0.884610 *   0.87073    1.000000    
     42 O2    c    0.110230 *  0.824480 *  0.884610 *   0.87073    1.000000    
     43 O2    c    0.389770 *  0.824480 *  0.884610 *   0.87073    1.000000    
     44 O3    c    0.110230 *  0.175520 *  0.884610 *   1.33043    1.000000    
     45 O2    c    0.610230 *  0.824480 *  0.115390 *   0.87073    1.000000    
     46 O2    c    0.889770 *  0.175520 *  0.115390 *   0.87073    1.000000    
     47 O2    c    0.500000 *  0.000000 *  0.000000 *   0.87073    1.000000    
     48 O2    c    0.000000 *  0.000000 *  0.000000 *   0.87073    1.000000    
     49 O2    c    0.151750 *  0.500000 *  0.313330 *   0.87073    1.000000    
     50 O3    c    0.348250 *  0.500000 *  0.313330 *   1.33043    1.000000    
     51 O3    c    0.848250 *  0.500000 *  0.686670 *   1.33043    1.000000    
     52 O2    c    0.651750 *  0.500000 *  0.686670 *   0.87073    1.000000    
     53 O2    c    0.250000 *  0.234950 *  0.285720 *   0.87073    1.000000    
     54 O3    c    0.250000 *  0.765050 *  0.285720 *   1.33043    1.000000    
     55 O2    c    0.750000 *  0.234950 *  0.714280 *   0.87073    1.000000    
     56 O3    c    0.750000 *  0.765050 *  0.714280 *   1.33043    1.000000    
     57 O3    c    0.131410 *  0.268650 *  0.127790 *   1.33043    1.000000    
     58 O3    c    0.368590 *  0.731350 *  0.127790 *   1.33043    1.000000    
     59 O2    c    0.868590 *  0.268650 *  0.872210 *   0.87073    1.000000    
     60 O2    c    0.631410 *  0.731350 *  0.872210 *   0.87073    1.000000    
     61 O3    c    0.868590 *  0.731350 *  0.872210 *   1.33043    1.000000    
     62 O3    c    0.631410 *  0.268650 *  0.872210 *   1.33043    1.000000    
     63 O2    c    0.131410 *  0.731350 *  0.127790 *   0.87073    1.000000    
     64 O2    c    0.368590 *  0.268650 *  0.127790 *   0.87073    1.000000    
     65 O3    c    0.653920 *  0.500000 *  0.058200 *   1.33043    1.000000    
     66 O2    c    0.846080 *  0.500000 *  0.058200 *   0.87073    1.000000    
     67 O2    c    0.346080 *  0.500000 *  0.941800 *   0.87073    1.000000    
     68 O3    c    0.153920 *  0.500000 *  0.941800 *   1.33043    1.000000    
     69 O3    c    0.750000 *  0.231060 *  0.027050 *   1.33043    1.000000    
     70 O2    c    0.750000 *  0.768940 *  0.027050 *   0.87073    1.000000    
     71 O3    c    0.250000 *  0.231060 *  0.972950 *   1.33043    1.000000    
     72 O2    c    0.250000 *  0.768940 *  0.972950 *   0.87073    1.000000    
     73 O3    s    0.106570 *  0.174340 *  0.366200 *  -3.33043    1.000000    
     74 O3    s    0.393430 *  0.825660 *  0.366200 *  -3.33043    1.000000    
     75 O2    s    0.893430 *  0.174340 *  0.633800 *  -2.87073    1.000000    
     76 O3    s    0.606570 *  0.825660 *  0.633800 *  -3.33043    1.000000    
     77 O3    s    0.893430 *  0.825660 *  0.633800 *  -3.33043    1.000000    
     78 O3    s    0.606570 *  0.174340 *  0.633800 *  -3.33043    1.000000    
     79 O3    s    0.106570 *  0.825660 *  0.366200 *  -3.33043    1.000000    
     80 O2    s    0.393430 *  0.174340 *  0.366200 *  -2.87073    1.000000    
     81 O3    s    0.000000 *  0.000000 *  0.500000 *  -3.33043    1.000000    
     82 O3    s    0.500000 *  0.000000 *  0.500000 *  -3.33043    1.000000    
     83 O3    s    0.994520 *  0.000000 *  0.250840 *  -3.33043    1.000000    
     84 O2    s    0.505480 *  0.000000 *  0.250840 *  -2.87073    1.000000    
     85 O2    s    0.005480 *  0.000000 *  0.749160 *  -2.87073    1.000000    
     86 O3    s    0.494520 *  0.000000 *  0.749160 *  -3.33043    1.000000    
     87 O3    s    0.610230 *  0.175520 *  0.115390 *  -3.33043    1.000000    
     88 O2    s    0.889770 *  0.824480 *  0.115390 *  -2.87073    1.000000    
     89 O2    s    0.389770 *  0.175520 *  0.884610 *  -2.87073    1.000000    
     90 O2    s    0.110230 *  0.824480 *  0.884610 *  -2.87073    1.000000    
     91 O2    s    0.389770 *  0.824480 *  0.884610 *  -2.87073    1.000000    
     92 O3    s    0.110230 *  0.175520 *  0.884610 *  -3.33043    1.000000    
     93 O2    s    0.610230 *  0.824480 *  0.115390 *  -2.87073    1.000000    
     94 O2    s    0.889770 *  0.175520 *  0.115390 *  -2.87073    1.000000    
     95 O2    s    0.500000 *  0.000000 *  0.000000 *  -2.87073    1.000000    
     96 O2    s    0.000000 *  0.000000 *  0.000000 *  -2.87073    1.000000    
     97 O2    s    0.151750 *  0.500000 *  0.313330 *  -2.87073    1.000000    
     98 O3    s    0.348250 *  0.500000 *  0.313330 *  -3.33043    1.000000    
     99 O3    s    0.848250 *  0.500000 *  0.686670 *  -3.33043    1.000000    
    100 O2    s    0.651750 *  0.500000 *  0.686670 *  -2.87073    1.000000    
    101 O2    s    0.250000 *  0.234950 *  0.285720 *  -2.87073    1.000000    
    102 O3    s    0.250000 *  0.765050 *  0.285720 *  -3.33043    1.000000    
    103 O2    s    0.750000 *  0.234950 *  0.714280 *  -2.87073    1.000000    
    104 O3    s    0.750000 *  0.765050 *  0.714280 *  -3.33043    1.000000    
    105 O3    s    0.131410 *  0.268650 *  0.127790 *  -3.33043    1.000000    
    106 O3    s    0.368590 *  0.731350 *  0.127790 *  -3.33043    1.000000    
    107 O2    s    0.868590 *  0.268650 *  0.872210 *  -2.87073    1.000000    
    108 O2    s    0.631410 *  0.731350 *  0.872210 *  -2.87073    1.000000    
    109 O3    s    0.868590 *  0.731350 *  0.872210 *  -3.33043    1.000000    
    110 O3    s    0.631410 *  0.268650 *  0.872210 *  -3.33043    1.000000    
    111 O2    s    0.131410 *  0.731350 *  0.127790 *  -2.87073    1.000000    
    112 O2    s    0.368590 *  0.268650 *  0.127790 *  -2.87073    1.000000    
    113 O3    s    0.653920 *  0.500000 *  0.058200 *  -3.33043    1.000000    
    114 O2    s    0.846080 *  0.500000 *  0.058200 *  -2.87073    1.000000    
    115 O2    s    0.346080 *  0.500000 *  0.941800 *  -2.87073    1.000000    
    116 O3    s    0.153920 *  0.500000 *  0.941800 *  -3.33043    1.000000    
    117 O3    s    0.750000 *  0.231060 *  0.027050 *  -3.33043    1.000000    
    118 O2    s    0.750000 *  0.768940 *  0.027050 *  -2.87073    1.000000    
    119 O3    s    0.250000 *  0.231060 *  0.972950 *  -3.33043    1.000000    
    120 O2    s    0.250000 *  0.768940 *  0.972950 *  -2.87073    1.000000    
--------------------------------------------------------------------------------



********************************************************************************
*  General input information                                                   *
********************************************************************************

  Species output for all configurations : 

--------------------------------------------------------------------------------
  Species    Type    Atomic    Atomic    Charge       Radii (Angs)     Library
                     Number     Mass       (e)     Cova   Ionic  VDW   Symbol
--------------------------------------------------------------------------------
    Ge       Core       32      72.61   4.000000   1.170  0.000  1.750 Ge       
    Si       Core       14      28.09   4.000000   1.200  0.000  2.100 Si       
    O1       Core        8      16.00   1.733957   0.730  0.000  0.000 O1       
    O2       Core        8      16.00   0.870733   0.730  0.000  1.360 O2       
    O3       Core        8      16.00   1.330431   0.730  0.000  1.360 O3       
    O1       Shell       8       0.00  -3.733957   0.730  0.000  0.000 O1       
    O2       Shell       8       0.00  -2.870733   0.730  0.000  0.000 O2       
    O3       Shell       8       0.00  -3.330431   0.730  0.000  0.000 O3       
--------------------------------------------------------------------------------


  Lattice summation method               =    Ewald          (3-D)
                                         =    Parry          (2-D)
                                         =    Saunders et al (1-D)
  Accuracy factor for lattice sums       =   12.000


  Analytic derivatives to be used

  Time limit = Infinity

  Maximum range for interatomic potentials =    100000.000000 Angstroms

  General interatomic potentials :

--------------------------------------------------------------------------------
Atom  Types   Potential      Parameter       Value         Units   Cutoffs(Ang)
  1     2                                                            Min /  Max 
--------------------------------------------------------------------------------
Si   c O1   s Buckingham    Buckingham A     1315.2478    eV        0.000 16.000
                            Buckingham rho  0.31775900    Ang       
                            Buckingham C     10.141118    eV*Ang^6  
--------------------------------------------------------------------------------
Si   c O2   s Buckingham    Buckingham A     1315.2478    eV        0.000 16.000
                            Buckingham rho  0.31775900    Ang       
                            Buckingham C     10.141118    eV*Ang^6  
--------------------------------------------------------------------------------
Si   c O3   s Buckingham    Buckingham A     1315.2478    eV        0.000 16.000
                            Buckingham rho  0.31775900    Ang       
                            Buckingham C     10.141118    eV*Ang^6  
--------------------------------------------------------------------------------
Ge   c O1   s Buckingham    Buckingham A     1497.3996    eV        0.000 16.000
                            Buckingham rho  0.32564600    Ang       
                            Buckingham C     16.808599    eV*Ang^6  
--------------------------------------------------------------------------------
Ge   c O2   s Buckingham    Buckingham A     1497.3996    eV        0.000 16.000
                            Buckingham rho  0.32564600    Ang       
                            Buckingham C     16.808599    eV*Ang^6  
--------------------------------------------------------------------------------
Ge   c O3   s Buckingham    Buckingham A     1497.3996    eV        0.000 16.000
                            Buckingham rho  0.32564600    Ang       
                            Buckingham C     16.808599    eV*Ang^6  
--------------------------------------------------------------------------------
O1   s O1   s Buckingham    Buckingham A     22764.000    eV        0.000 16.000
                            Buckingham rho  0.14900000    Ang       
                            Buckingham C     10.937044    eV*Ang^6  
--------------------------------------------------------------------------------
O1   s O2   s Buckingham    Buckingham A     22764.000    eV        0.000 16.000
                            Buckingham rho  0.14900000    Ang       
                            Buckingham C     10.937044    eV*Ang^6  
--------------------------------------------------------------------------------
O1   s O3   s Buckingham    Buckingham A     22764.000    eV        0.000 16.000
                            Buckingham rho  0.14900000    Ang       
                            Buckingham C     10.937044    eV*Ang^6  
--------------------------------------------------------------------------------
O2   s O2   s Buckingham    Buckingham A     22764.000    eV        0.000 16.000
                            Buckingham rho  0.14900000    Ang       
                            Buckingham C     10.937044    eV*Ang^6  
--------------------------------------------------------------------------------
O2   s O3   s Buckingham    Buckingham A     22764.000    eV        0.000 16.000
                            Buckingham rho  0.14900000    Ang       
                            Buckingham C     10.937044    eV*Ang^6  
--------------------------------------------------------------------------------
O3   s O3   s Buckingham    Buckingham A     22764.000    eV        0.000 16.000
                            Buckingham rho  0.14900000    Ang       
                            Buckingham C     10.937044    eV*Ang^6  
--------------------------------------------------------------------------------
O1   c O1   s Spring (c-s)  Spring k 2       180.31577    eV*Ang^-2 0.000  0.800
                            Spring k 4       0.0000000    eV*Ang^-4 
--------------------------------------------------------------------------------
O2   c O2   s Spring (c-s)  Spring k 2       75.969800    eV*Ang^-2 0.000  0.800
                            Spring k 4       0.0000000    eV*Ang^-4 
--------------------------------------------------------------------------------
O3   c O3   s Spring (c-s)  Spring k 2       128.14270    eV*Ang^-2 0.000  0.800
                            Spring k 4       0.0000000    eV*Ang^-4 
--------------------------------------------------------------------------------

  General Three-body potentials :

--------------------------------------------------------------------------------
  Atoms       Potential      Parameter       Value         Units   Cutoffs(Ang)
  1 / 2 / 3                                                          Min /  Max 
--------------------------------------------------------------------------------
Si    core    Harmonic      Three-body cnst  1.2614000    eV*rad^-2 0.000  1.900
O1    shel                  Three-body angl  109.47000    degrees   0.000  1.900
O1    shel                  Three-body k4    0.0000000    eV*rad^-4 0.000  3.500
                            Three-body k3    0.0000000    eV*rad^-3 
--------------------------------------------------------------------------------
Si    core    Harmonic      Three-body cnst  1.2614000    eV*rad^-2 0.000  1.900
O1    shel                  Three-body angl  109.47000    degrees   0.000  1.900
õ(1   shel                  Three-body k4    0.0000000    eV*rad^-4 0.000  3.500
                            Three-body k3    0.0000000    eV*rad^-3 
--------------------------------------------------------------------------------
Si    core    Harmonic      Three-body cnst  1.2614000    eV*rad^-2 0.000  1.900
õ(1   shel                  Three-body angl  109.47000    degrees   0.000  1.900
õ(1   shel                  Three-body k4    0.0000000    eV*rad^-4 0.000  3.500
                            Three-body k3    0.0000000    eV*rad^-3 
--------------------------------------------------------------------------------
Si    core    Harmonic      Three-body cnst  1.2614000    eV*rad^-2 0.000  1.900
O1    shel                  Three-body angl  109.47000    degrees   0.000  1.900
O2    shel                  Three-body k4    0.0000000    eV*rad^-4 0.000  3.500
                            Three-body k3    0.0000000    eV*rad^-3 
--------------------------------------------------------------------------------
Si    core    Harmonic      Three-body cnst  1.2614000    eV*rad^-2 0.000  1.900
O1    shel                  Three-body angl  109.47000    degrees   0.000  1.900
õ(2   shel                  Three-body k4    0.0000000    eV*rad^-4 0.000  3.500
                            Three-body k3    0.0000000    eV*rad^-3 
--------------------------------------------------------------------------------
Si    core    Harmonic      Three-body cnst  1.2614000    eV*rad^-2 0.000  1.900
O2    shel                  Three-body angl  109.47000    degrees   0.000  1.900
õ(1   shel                  Three-body k4    0.0000000    eV*rad^-4 0.000  3.500
                            Three-body k3    0.0000000    eV*rad^-3 
--------------------------------------------------------------------------------
Si    core    Harmonic      Three-body cnst  1.2614000    eV*rad^-2 0.000  1.900
õ(1   shel                  Three-body angl  109.47000    degrees   0.000  1.900
õ(2   shel                  Three-body k4    0.0000000    eV*rad^-4 0.000  3.500
                            Three-body k3    0.0000000    eV*rad^-3 
--------------------------------------------------------------------------------
Si    core    Harmonic      Three-body cnst  1.2614000    eV*rad^-2 0.000  1.900
O2    shel                  Three-body angl  109.47000    degrees   0.000  1.900
O2    shel                  Three-body k4    0.0000000    eV*rad^-4 0.000  3.500
                            Three-body k3    0.0000000    eV*rad^-3 
--------------------------------------------------------------------------------
Si    core    Harmonic      Three-body cnst  1.2614000    eV*rad^-2 0.000  1.900
O2    shel                  Three-body angl  109.47000    degrees   0.000  1.900
õ(2   shel                  Three-body k4    0.0000000    eV*rad^-4 0.000  3.500
                            Three-body k3    0.0000000    eV*rad^-3 
--------------------------------------------------------------------------------
Si    core    Harmonic      Three-body cnst  1.2614000    eV*rad^-2 0.000  1.900
õ(2   shel                  Three-body angl  109.47000    degrees   0.000  1.900
õ(2   shel                  Three-body k4    0.0000000    eV*rad^-4 0.000  3.500
                            Three-body k3    0.0000000    eV*rad^-3 
--------------------------------------------------------------------------------

********************************************************************************
*  Output for configuration   1 : POSCAR_N0006.vasp                            *
********************************************************************************


  Components of energy : 

--------------------------------------------------------------------------------
  Interatomic potentials     =         784.33499765 eV    
  Three-body potentials      =           0.00771804 eV    
  Monopole - monopole (real) =       -2676.00317478 eV    
  Monopole - monopole (recip)=       -1115.35404472 eV    
  Monopole - monopole (total)=       -3791.35721950 eV    
--------------------------------------------------------------------------------
  Total lattice energy       =       -3007.01450381 eV    
--------------------------------------------------------------------------------
  Total lattice energy       =         -290130.9332 kJ/(mole unit cells)
--------------------------------------------------------------------------------


  Number of variables =      363

  Maximum number of calculations  =          1000
  Maximum Hessian update interval =            10
  Maximum step size               =   0.100000000
  Maximum parameter tolerance     =   0.000010000
  Maximum function  tolerance     =   0.000010000
  Maximum gradient  tolerance     =   0.001000000
  Maximum gradient  component     =   0.010000000

  Symmetry not applied to optimisation

  Cell parameters to be optimised using strains

  Newton-Raphson optimiser to be used

  BFGS hessian update to be used

  Lower half triangular hessian to be used

  Minimiser to switch to RFO
  When gradient norm is less than     0.050000

  Dumpfile to be written after every cycle

  Start of bulk optimisation :

  Cycle:      0 Energy:     -3007.014504  Gnorm:      4.703047  CPU:    0.080
  ** Hessian calculated **
  Cycle:      1 Energy:     -3025.382195  Gnorm:      3.477582  CPU:    0.211
  ** Hessian calculated **
  Cycle:      2 Energy:     -3042.739921  Gnorm:      0.819177  CPU:    0.351
  ** Hessian calculated **
  Cycle:      3 Energy:     -3044.184298  Gnorm:      0.675146  CPU:    0.505
  ** Hessian calculated **
  Cycle:      4 Energy:     -3045.267057  Gnorm:      0.412446  CPU:    0.645
  Cycle:      5 Energy:     -3045.749533  Gnorm:      0.296305  CPU:    0.717
  Cycle:      6 Energy:     -3046.283365  Gnorm:      0.233672  CPU:    0.802
  Cycle:      7 Energy:     -3046.749902  Gnorm:      0.173694  CPU:    0.887
  Cycle:      8 Energy:     -3046.967086  Gnorm:      0.131790  CPU:    0.959
  Cycle:      9 Energy:     -3047.076549  Gnorm:      0.091357  CPU:    1.031
  Cycle:     10 Energy:     -3047.126081  Gnorm:      0.062252  CPU:    1.102
  Cycle:     11 Energy:     -3047.152306  Gnorm:      0.047127  CPU:    1.187
  ** Hessian has required structure
  Cycle:     12 Energy:     -3047.168976  Gnorm:      0.101164  CPU:    1.288
  ** Hessian has required structure
  Cycle:     13 Energy:     -3047.197317  Gnorm:      0.078647  CPU:    1.407
  ** Hessian has wrong structure
  ** Imaginary eigenvectors =   4
  ** Hessian has wrong structure
  ** Imaginary eigenvectors =   4
  Cycle:     14 Energy:     -3047.212461  Gnorm:      0.078671  CPU:    1.845
  ** Hessian has wrong structure
  ** Imaginary eigenvectors =   4
  ** Hessian has wrong structure
  ** Imaginary eigenvectors =   4
  Cycle:     15 Energy:     -3047.234209  Gnorm:      0.079063  CPU:    2.217
  ** Hessian has wrong structure
  ** Imaginary eigenvectors =   4
  ** Hessian has wrong structure
  ** Imaginary eigenvectors =   4
  Cycle:     16 Energy:     -3047.269778  Gnorm:      0.079920  CPU:    2.588
  ** Hessian has wrong structure
  ** Imaginary eigenvectors =   4
  ** Hessian has wrong structure
  ** Imaginary eigenvectors =   3
  Cycle:     17 Energy:     -3047.318651  Gnorm:      0.083054  CPU:    2.932
  ** Hessian has wrong structure
  ** Imaginary eigenvectors =   2
  ** Hessian has wrong structure
  ** Imaginary eigenvectors =   2
  Cycle:     18 Energy:     -3047.411305  Gnorm:      0.086196  CPU:    3.276
  ** Hessian has wrong structure
  ** Imaginary eigenvectors =   1
  ** Hessian has required structure
  Cycle:     19 Energy:     -3047.694921  Gnorm:      0.064216  CPU:    3.607
  ** Hessian has required structure
  Cycle:     20 Energy:     -3047.858632  Gnorm:      0.038738  CPU:    3.743
  ** Hessian has required structure
  Cycle:     21 Energy:     -3047.903872  Gnorm:      0.030820  CPU:    3.864
  ** Hessian has required structure
  Cycle:     22 Energy:     -3047.934579  Gnorm:      0.014684  CPU:    3.985
  ** Hessian has required structure
  Cycle:     23 Energy:     -3047.943876  Gnorm:      0.012882  CPU:    4.106
  ** Hessian has required structure
  Cycle:     24 Energy:     -3047.950253  Gnorm:      0.012240  CPU:    4.227
  ** Hessian has required structure
  Cycle:     25 Energy:     -3047.955901  Gnorm:      0.012322  CPU:    4.348
  ** Hessian has required structure
  Cycle:     26 Energy:     -3047.962635  Gnorm:      0.010749  CPU:    4.483
  ** Hessian has required structure
  Cycle:     27 Energy:     -3047.972347  Gnorm:      0.017135  CPU:    4.618
  ** Hessian has required structure
  Cycle:     28 Energy:     -3047.985564  Gnorm:      0.029833  CPU:    4.753
  ** Hessian has required structure
  Cycle:     29 Energy:     -3048.026802  Gnorm:      0.027988  CPU:    4.940
  ** Hessian has required structure
  Cycle:     30 Energy:     -3048.049226  Gnorm:      0.019904  CPU:    5.061
  ** Hessian has required structure
  Cycle:     31 Energy:     -3048.058427  Gnorm:      0.017785  CPU:    5.169
  ** Hessian has required structure
  Cycle:     32 Energy:     -3048.068444  Gnorm:      0.007412  CPU:    5.290
  ** Hessian has required structure
  Cycle:     33 Energy:     -3048.071548  Gnorm:      0.011110  CPU:    5.411
  ** Hessian has required structure
  Cycle:     34 Energy:     -3048.073199  Gnorm:      0.006365  CPU:    5.533
  ** Hessian has required structure
  Cycle:     35 Energy:     -3048.073739  Gnorm:      0.006065  CPU:    5.669
  ** Hessian has required structure
  Cycle:     36 Energy:     -3048.074402  Gnorm:      0.001928  CPU:    5.782
  ** Hessian has required structure
  Cycle:     37 Energy:     -3048.074688  Gnorm:      0.001912  CPU:    5.910
  ** Hessian has required structure
  Cycle:     38 Energy:     -3048.074824  Gnorm:      0.002035  CPU:    6.025
  ** Hessian has required structure
  Cycle:     39 Energy:     -3048.075013  Gnorm:      0.001145  CPU:    6.217
  ** Hessian has required structure
  Cycle:     40 Energy:     -3048.075059  Gnorm:      0.000766  CPU:    6.338
  ** Hessian has required structure
  Cycle:     41 Energy:     -3048.075077  Gnorm:      0.000404  CPU:    6.472
  ** Hessian has required structure
  Cycle:     42 Energy:     -3048.075081  Gnorm:      0.000292  CPU:    6.579
  ** Hessian has required structure
  Cycle:     43 Energy:     -3048.075083  Gnorm:      0.000204  CPU:    6.686
  ** Hessian has required structure
  Cycle:     44 Energy:     -3048.075083  Gnorm:      0.000185  CPU:    6.794
  ** Hessian has required structure
  Cycle:     45 Energy:     -3048.075083  Gnorm:      0.000182  CPU:    6.985
  ** Hessian has wrong structure
  ** Imaginary eigenvectors =   1
  Cycle:     46 Energy:     -3048.075083  Gnorm:      0.000182  CPU:    7.204
  ** Hessian has required structure
  Cycle:     47 Energy:     -3048.075083  Gnorm:      0.000183  CPU:    7.310
  ** Hessian has required structure
  Cycle:     48 Energy:     -3048.075083  Gnorm:      0.000183  CPU:    7.501
  ** Hessian has required structure
  Cycle:     49 Energy:     -3048.075083  Gnorm:      0.000183  CPU:    7.801
  ** Hessian calculated **
  Cycle:     50 Energy:     -3048.075083  Gnorm:      0.000113  CPU:    7.935
  ** Hessian has required structure
  Cycle:     51 Energy:     -3048.075084  Gnorm:      0.000208  CPU:    8.042
  ** Hessian has required structure
  Cycle:     52 Energy:     -3048.075084  Gnorm:      0.000192  CPU:    8.150
  ** Hessian has required structure
  Cycle:     53 Energy:     -3048.075084  Gnorm:      0.000152  CPU:    8.257
  ** Hessian has required structure
  Cycle:     54 Energy:     -3048.075084  Gnorm:      0.000135  CPU:    8.364
  ** Hessian has required structure
  Cycle:     55 Energy:     -3048.075084  Gnorm:      0.000118  CPU:    8.471
  ** Hessian has required structure


  **** Optimisation achieved ****


  Final energy =   -3048.07508364 eV      
  Final Gnorm  =       0.00011733

  Components of energy : 

--------------------------------------------------------------------------------
  Interatomic potentials     =         811.58430812 eV    
  Three-body potentials      =           0.09612670 eV    
  Monopole - monopole (real) =       -2102.52065897 eV    
  Monopole - monopole (recip)=       -1757.23485949 eV    
  Monopole - monopole (total)=       -3859.75551846 eV    
--------------------------------------------------------------------------------
  Total lattice energy       =       -3048.07508364 eV    
--------------------------------------------------------------------------------
  Total lattice energy       =         -294092.6515 kJ/(mole unit cells)
--------------------------------------------------------------------------------

  Final fractional coordinates of atoms :

--------------------------------------------------------------------------------
   No.  Atomic        x           y          z          Radius
        Label       (Frac)      (Frac)     (Frac)       (Angs) 
--------------------------------------------------------------------------------
     1  Ge    c     0.052090    0.000000    0.372270    0.000000
     2  Ge    c     0.552102    0.000042    0.605617    0.000000
     3  Ge    c     0.344541    0.690560    0.277935    0.000000
     4  Ge    c     0.844578    0.690449    0.699963    0.000000
     5  Ge    c     0.658153    0.313606    0.019224    0.000000
     6  Ge    c     0.158201    0.313505    0.958672    0.000000
     7  Si    c     0.453594    0.988227    0.342301    0.000000
     8  Si    c     0.953583    0.988187    0.635594    0.000000
     9  Si    c     0.554768    0.008933    0.089005    0.000000
    10  Si    c     0.941547    0.001833    0.126545    0.000000
    11  Si    c     0.441553    0.001852    0.851342    0.000000
    12  Si    c     0.054769    0.008917    0.888877    0.000000
    13  Si    c     0.163283    0.293562    0.267269    0.000000
    14  Si    c     0.840078    0.284719    0.714562    0.000000
    15  Si    c     0.664673    0.699959    0.700747    0.000000
    16  Si    c     0.663246    0.293661    0.710628    0.000000
    17  Si    c     0.164632    0.699885    0.277157    0.000000
    18  Si    c     0.340115    0.284809    0.263343    0.000000
    19  Si    c     0.842782    0.701622    0.012669    0.000000
    20  Si    c     0.338483    0.305124    0.954254    0.000000
    21  Si    c     0.164925    0.716639    0.972273    0.000000
    22  Si    c     0.342746    0.701715    0.965233    0.000000
    23  Si    c     0.664969    0.716734    0.005638    0.000000
    24  Si    c     0.838432    0.305040    0.023650    0.000000
    25  O3    c     0.109025    0.180298    0.356956    0.000000
    26  O3    c     0.406708    0.813278    0.369391    0.000000
    27  O2    c     0.891374    0.144946    0.638025    0.000000
    28  O3    c     0.605595    0.811047    0.616144    0.000000
    29  O3    c     0.906763    0.813143    0.608517    0.000000
    30  O3    c     0.608978    0.180433    0.620935    0.000000
    31  O3    c     0.105528    0.810918    0.361762    0.000000
    32  O2    c     0.391451    0.145115    0.339877    0.000000
    33  O3    c     0.018482    0.017876    0.530483    0.000000
    34  O3    c     0.518506    0.017814    0.447397    0.000000
    35  O3    c     0.972320    0.997882    0.273082    0.000000
    36  O2    c     0.493039    0.971456    0.199849    0.000000
    37  O2    c     0.993026    0.971544    0.778047    0.000000
    38  O3    c     0.472327    0.997837    0.704803    0.000000
    39  O3    c     0.595827    0.191706    0.111713    0.000000
    40  O2    c     0.891513    0.829581    0.103647    0.000000
    41  O2    c     0.391527    0.177013    0.869617    0.000000
    42  O2    c     0.120055    0.858944    0.886746    0.000000
    43  O2    c     0.391430    0.829732    0.874224    0.000000
    44  O3    c     0.095911    0.191585    0.866140    0.000000
    45  O2    c     0.620128    0.859119    0.091146    0.000000
    46  O2    c     0.891433    0.176863    0.108297    0.000000
    47  O2    c     0.514595    0.005683    0.947011    0.000000
    48  O2    c     0.014590    0.005881    0.030875    0.000000
    49  O2    c     0.142406    0.497167    0.282077    0.000000
    50  O3    c     0.369452    0.474992    0.297354    0.000000
    51  O3    c     0.869469    0.474864    0.680559    0.000000
    52  O2    c     0.642390    0.497274    0.695829    0.000000
    53  O2    c     0.252039    0.263814    0.309476    0.000000
    54  O3    c     0.250867    0.723821    0.328131    0.000000
    55  O2    c     0.752000    0.263859    0.668420    0.000000
    56  O3    c     0.750913    0.723765    0.649754    0.000000
    57  O3    c     0.151991    0.237465    0.117344    0.000000
    58  O3    c     0.353755    0.751215    0.115515    0.000000
    59  O2    c     0.843456    0.252060    0.870922    0.000000
    60  O2    c     0.660228    0.765401    0.851649    0.000000
    61  O3    c     0.853793    0.751100    0.862383    0.000000
    62  O3    c     0.651937    0.237570    0.860551    0.000000
    63  O2    c     0.160157    0.765330    0.126259    0.000000
    64  O2    c     0.343513    0.252153    0.106982    0.000000
    65  O3    c     0.630164    0.528405    0.030909    0.000000
    66  O2    c     0.869386    0.502239    0.039497    0.000000
    67  O2    c     0.369393    0.502357    0.938405    0.000000
    68  O3    c     0.130164    0.528273    0.947006    0.000000
    69  O3    c     0.751785    0.292119    0.072919    0.000000
    70  O2    c     0.753318    0.718195    0.051564    0.000000
    71  O3    c     0.251840    0.292097    0.904985    0.000000
    72  O2    c     0.253278    0.718183    0.926363    0.000000
    73  O3    s     0.110041    0.177264    0.348645    0.000000
    74  O3    s     0.406154    0.820128    0.359319    0.000000
    75  O2    s     0.892220    0.144100    0.646400    0.000000
    76  O3    s     0.607355    0.815003    0.624114    0.000000
    77  O3    s     0.906202    0.820005    0.618586    0.000000
    78  O3    s     0.610000    0.177388    0.629246    0.000000
    79  O3    s     0.107296    0.814886    0.353791    0.000000
    80  O2    s     0.392285    0.144246    0.331501    0.000000
    81  O3    s     0.014231    0.013113    0.528653    0.000000
    82  O3    s     0.514253    0.013071    0.449231    0.000000
    83  O3    s     0.975785    0.998461    0.266073    0.000000
    84  O2    s     0.495926    0.977621    0.202288    0.000000
    85  O2    s     0.995916    0.977684    0.775606    0.000000
    86  O3    s     0.475791    0.998431    0.711814    0.000000
    87  O3    s     0.596853    0.183691    0.101996    0.000000
    88  O2    s     0.891508    0.833985    0.095982    0.000000
    89  O2    s     0.390972    0.172445    0.877167    0.000000
    90  O2    s     0.118107    0.859017    0.896555    0.000000
    91  O2    s     0.391440    0.834116    0.881895    0.000000
    92  O3    s     0.096926    0.183581    0.875864    0.000000
    93  O2    s     0.618169    0.859166    0.081339    0.000000
    94  O2    s     0.890893    0.172316    0.100743    0.000000
    95  O2    s     0.510959    0.005600    0.951819    0.000000
    96  O2    s     0.010955    0.005751    0.026067    0.000000
    97  O2    s     0.146998    0.497155    0.279975    0.000000
    98  O3    s     0.364435    0.473321    0.292336    0.000000
    99  O3    s     0.864449    0.473201    0.685575    0.000000
   100  O2    s     0.646985    0.497255    0.697930    0.000000
   101  O2    s     0.252108    0.269151    0.300222    0.000000
   102  O3    s     0.249913    0.718810    0.319111    0.000000
   103  O2    s     0.752070    0.269188    0.677676    0.000000
   104  O3    s     0.749958    0.718762    0.658777    0.000000
   105  O3    s     0.153589    0.249044    0.119275    0.000000
   106  O3    s     0.351880    0.741304    0.113230    0.000000
   107  O2    s     0.842559    0.261129    0.870695    0.000000
   108  O2    s     0.661172    0.753659    0.852196    0.000000
   109  O3    s     0.851918    0.741192    0.864669    0.000000
   110  O3    s     0.653536    0.249148    0.858620    0.000000
   111  O2    s     0.161107    0.753586    0.125710    0.000000
   112  O2    s     0.342613    0.261220    0.107210    0.000000
   113  O3    s     0.635902    0.529763    0.027465    0.000000
   114  O2    s     0.863484    0.502525    0.035093    0.000000
   115  O2    s     0.363490    0.502636    0.942809    0.000000
   116  O3    s     0.135903    0.529640    0.950448    0.000000
   117  O3    s     0.752954    0.295149    0.063632    0.000000
   118  O2    s     0.753347    0.716163    0.042436    0.000000
   119  O3    s     0.253008    0.295131    0.914271    0.000000
   120  O2    s     0.253308    0.716153    0.935487    0.000000
--------------------------------------------------------------------------------

  Final Cartesian lattice vectors (Angstroms) :

       17.411278    0.077936    0.000344
        0.033564    7.694551   -0.000157
        0.000181    0.000093   10.190404


  Final cell parameters and derivatives :

--------------------------------------------------------------------------------
       a           17.411453 Angstrom     dE/de1(xx)     0.009686 eV/strain
       b            7.694625 Angstrom     dE/de2(yy)     0.009463 eV/strain
       c           10.190404 Angstrom     dE/de3(zz)     0.001223 eV/strain
       alpha       90.000641 Degrees      dE/de4(yz)    -0.000040 eV/strain
       beta        89.997846 Degrees      dE/de5(xz)    -0.000326 eV/strain
       gamma       89.493610 Degrees      dE/de6(xy)     0.002679 eV/strain
--------------------------------------------------------------------------------

  Primitive cell volume =          1365.201828 Angs**3

  Density of cell =      2.079086 g/cm**3

  Non-primitive cell volume =          1365.201828 Angs**3


  Final internal derivatives :

--------------------------------------------------------------------------------
   No.  Atomic          a             b             c           Radius
        Label          (eV)          (eV)          (eV)        (eV/Angs)
--------------------------------------------------------------------------------
      1 Ge    c       0.000000      0.000000      0.000000      0.000000
      2 Ge    c      -0.001761     -0.000220     -0.001168      0.000000
      3 Ge    c      -0.001443     -0.000425     -0.000934      0.000000
      4 Ge    c      -0.002605     -0.000760      0.002070      0.000000
      5 Ge    c      -0.000699      0.000133     -0.001600      0.000000
      6 Ge    c       0.000474      0.000470      0.001242      0.000000
      7 Si    c       0.000472      0.000913     -0.002025      0.000000
      8 Si    c       0.000807      0.000520      0.003100      0.000000
      9 Si    c      -0.001702     -0.000950     -0.001089      0.000000
     10 Si    c       0.001074      0.000877      0.001073      0.000000
     11 Si    c      -0.001319      0.001378     -0.001156      0.000000
     12 Si    c      -0.001167     -0.001852      0.001641      0.000000
     13 Si    c       0.002200     -0.000013     -0.000852      0.000000
     14 Si    c       0.002010     -0.001443      0.001014      0.000000
     15 Si    c      -0.000359      0.001204      0.000790      0.000000
     16 Si    c       0.001424      0.000581      0.000976      0.000000
     17 Si    c      -0.003723      0.001969     -0.001403      0.000000
     18 Si    c       0.005462     -0.002803     -0.001295      0.000000
     19 Si    c       0.000071      0.000213     -0.001816      0.000000
     20 Si    c       0.004351     -0.002274      0.000994      0.000000
     21 Si    c      -0.004500      0.001681      0.001271      0.000000
     22 Si    c      -0.001373      0.000621      0.001158      0.000000
     23 Si    c      -0.002883      0.001472     -0.001204      0.000000
     24 Si    c       0.003697     -0.001644     -0.001100      0.000000
     25 O3    c      -0.000638      0.001086      0.000831      0.000000
     26 O3    c       0.002410     -0.001812      0.001813      0.000000
     27 O2    c      -0.002581      0.002292     -0.000916      0.000000
     28 O3    c       0.001873     -0.001605      0.000421      0.000000
     29 O3    c       0.001368     -0.000988     -0.001625      0.000000
     30 O3    c      -0.000988      0.000082     -0.001195      0.000000
     31 O3    c       0.008275     -0.003934     -0.000760      0.000000
     32 O2    c      -0.005605      0.003263      0.000903      0.000000
     33 O3    c       0.007381      0.000079     -0.002726      0.000000
     34 O3    c       0.007004      0.000227      0.003234      0.000000
     35 O3    c      -0.003618      0.000267     -0.001017      0.000000
     36 O2    c      -0.006525     -0.000472      0.002013      0.000000
     37 O2    c      -0.005662     -0.000656     -0.002577      0.000000
     38 O3    c      -0.005751      0.000504      0.002119      0.000000
     39 O3    c      -0.001401      0.000839      0.000529      0.000000
     40 O2    c      -0.000874     -0.000145      0.000150      0.000000
     41 O2    c      -0.002801      0.002124      0.000693      0.000000
     42 O2    c       0.002271     -0.001564     -0.000640      0.000000
     43 O2    c      -0.002369     -0.000392     -0.000745      0.000000
     44 O3    c      -0.001828      0.002060     -0.001035      0.000000
     45 O2    c       0.000723     -0.000361      0.000915      0.000000
     46 O2    c      -0.001131      0.000929     -0.000770      0.000000
     47 O2    c       0.004250     -0.000013      0.001930      0.000000
     48 O2    c       0.004454     -0.000193     -0.000792      0.000000
     49 O2    c      -0.002739     -0.002438     -0.000185      0.000000
     50 O3    c       0.003133      0.004196      0.000932      0.000000
     51 O3    c       0.000604      0.001841      0.000992      0.000000
     52 O2    c      -0.001392     -0.001996     -0.000100      0.000000
     53 O2    c      -0.005552     -0.001070      0.000350      0.000000
     54 O3    c       0.005724      0.000946      0.000448      0.000000
     55 O2    c      -0.002828      0.000064     -0.000591      0.000000
     56 O3    c       0.000740     -0.000003     -0.000152      0.000000
     57 O3    c      -0.000413     -0.000696      0.000161      0.000000
     58 O3    c       0.000989      0.000576     -0.000899      0.000000
     59 O2    c       0.001468      0.000012      0.000097      0.000000
     60 O2    c      -0.000718     -0.000105     -0.000069      0.000000
     61 O3    c      -0.000782     -0.000137      0.000592      0.000000
     62 O3    c      -0.001650     -0.000708     -0.000099      0.000000
     63 O2    c       0.000078     -0.000499      0.000679      0.000000
     64 O2    c      -0.000030     -0.000426      0.001114      0.000000
     65 O3    c      -0.004476     -0.000964     -0.000299      0.000000
     66 O2    c       0.003018      0.001331      0.000108      0.000000
     67 O2    c       0.003502      0.001544     -0.000249      0.000000
     68 O3    c      -0.002929     -0.001789      0.000543      0.000000
     69 O3    c      -0.001450     -0.000587      0.001261      0.000000
     70 O2    c       0.001016      0.000609      0.000727      0.000000
     71 O3    c      -0.002435     -0.000591     -0.000938      0.000000
     72 O2    c       0.004446      0.000461     -0.000576      0.000000
     73 O3    s      -0.002438     -0.000845      0.001330      0.000000
     74 O3    s       0.000587      0.000962      0.001660      0.000000
     75 O2    s       0.003221     -0.000507     -0.000827      0.000000
     76 O3    s      -0.001768     -0.000173     -0.000106      0.000000
     77 O3    s      -0.000509      0.000054     -0.000973      0.000000
     78 O3    s       0.000547      0.000614     -0.000237      0.000000
     79 O3    s      -0.008088      0.001446      0.000105      0.000000
     80 O2    s       0.006031     -0.001773      0.001149      0.000000
     81 O3    s      -0.007934     -0.000062      0.002472      0.000000
     82 O3    s      -0.006366     -0.000299     -0.003652      0.000000
     83 O3    s       0.003476     -0.000081      0.002331      0.000000
     84 O2    s       0.005794     -0.000965     -0.000416      0.000000
     85 O2    s       0.004144     -0.000117      0.002175      0.000000
     86 O3    s       0.006514     -0.000556     -0.001575      0.000000
     87 O3    s       0.003388      0.000480      0.000865      0.000000
     88 O2    s       0.000143     -0.000880     -0.000282      0.000000
     89 O2    s       0.002241     -0.000562     -0.000848      0.000000
     90 O2    s      -0.001767      0.001497     -0.000649      0.000000
     91 O2    s       0.004967     -0.000447     -0.000739      0.000000
     92 O3    s       0.000419     -0.000662     -0.001171      0.000000
     93 O2    s       0.001680     -0.000038     -0.000288      0.000000
     94 O2    s      -0.000785      0.000338     -0.000253      0.000000
     95 O2    s      -0.002378     -0.000347     -0.003447      0.000000
     96 O2    s      -0.003153      0.000687      0.000007      0.000000
     97 O2    s       0.002778      0.000207     -0.000466      0.000000
     98 O3    s      -0.003763     -0.000802     -0.000473      0.000000
     99 O3    s       0.000000     -0.000153      0.000590      0.000000
    100 O2    s       0.002100      0.000805      0.001906      0.000000
    101 O2    s       0.003171      0.001582      0.000011      0.000000
    102 O3    s      -0.005126     -0.000285     -0.000260      0.000000
    103 O2    s       0.000468      0.001061      0.001094      0.000000
    104 O3    s      -0.000771     -0.000576      0.000871      0.000000
    105 O3    s       0.000250      0.001289     -0.000858      0.000000
    106 O3    s      -0.001304     -0.001297      0.000479      0.000000
    107 O2    s      -0.003194      0.000840      0.000272      0.000000
    108 O2    s       0.001804     -0.000957      0.000203      0.000000
    109 O3    s       0.000176     -0.001310     -0.000441      0.000000
    110 O3    s       0.003241      0.001663      0.000478      0.000000
    111 O2    s       0.000612      0.000435     -0.000465      0.000000
    112 O2    s      -0.000678      0.000549     -0.001136      0.000000
    113 O3    s       0.005179     -0.000150     -0.000433      0.000000
    114 O2    s      -0.003112     -0.000064     -0.001218      0.000000
    115 O2    s      -0.003489      0.000445      0.000582      0.000000
    116 O3    s       0.002516     -0.000182      0.000165      0.000000
    117 O3    s       0.000094      0.000772     -0.000667      0.000000
    118 O2    s      -0.000559     -0.001540     -0.000747      0.000000
    119 O3    s       0.001947      0.000285     -0.000118      0.000000
    120 O2    s      -0.002271     -0.001546      0.000420      0.000000
--------------------------------------------------------------------------------
  Maximum abs         0.008275      0.004196      0.003652      0.000000
--------------------------------------------------------------------------------


  Born effective charge tensors : 

-------------------------------------------------------------------------------
  Atom             x           y             z
-------------------------------------------------------------------------------
    1 Ge    x       4.1927     -0.0357     -0.3666
            y       0.0155      3.9161     -0.0107
            z      -0.2532      0.0929      4.5773
-------------------------------------------------------------------------------
    2 Ge    x       4.1926     -0.0351      0.3668
            y       0.0149      3.9162      0.0107
            z       0.2532     -0.0924      4.5774
-------------------------------------------------------------------------------
    3 Ge    x       3.9103      0.3259      0.0924
            y       0.3184      4.1769      0.2320
            z       0.1411      0.0318      3.4094
-------------------------------------------------------------------------------
    4 Ge    x       3.9101      0.3258     -0.0922
            y       0.3186      4.1770     -0.2321
            z      -0.1411     -0.0319      3.4094
-------------------------------------------------------------------------------
    5 Ge    x       4.0272      0.3787     -0.1362
            y       0.2948      4.1739     -0.2802
            z      -0.2041      0.0045      3.2567
-------------------------------------------------------------------------------
    6 Ge    x       4.0273      0.3788      0.1365
            y       0.2943      4.1737      0.2803
            z       0.2041     -0.0045      3.2568
-------------------------------------------------------------------------------
    7 Si    x       3.8195      0.2592      0.1218
            y       0.1293      3.4939     -0.0781
            z       0.9139      0.1945      3.9628
-------------------------------------------------------------------------------
    8 Si    x       3.8191      0.2600     -0.1219
            y       0.1286      3.4940      0.0779
            z      -0.9138     -0.1950      3.9630
-------------------------------------------------------------------------------
    9 Si    x       3.6245      0.2897      0.0331
            y       0.0507      3.5038      0.0849
            z      -0.5804     -0.0973      2.9915
-------------------------------------------------------------------------------
   10 Si    x       3.5764      0.0033      0.4731
            y      -0.0089      3.3186      0.0003
            z       0.4686     -0.0289      3.5499
-------------------------------------------------------------------------------
   11 Si    x       3.5763      0.0025     -0.4731
            y      -0.0080      3.3186     -0.0001
            z      -0.4686      0.0292      3.5499
-------------------------------------------------------------------------------
   12 Si    x       3.6249      0.2889     -0.0333
            y       0.0517      3.5037     -0.0851
            z       0.5804      0.0970      2.9914
-------------------------------------------------------------------------------
   13 Si    x       3.4478      0.4097     -0.1959
            y       0.3677      3.6198     -0.2832
            z      -0.2603     -0.1073      3.2863
-------------------------------------------------------------------------------
   14 Si    x       3.2313     -0.2169     -0.0862
            y      -0.0584      3.7280      0.0579
            z      -0.1478      0.0015      2.8638
-------------------------------------------------------------------------------
   15 Si    x       3.7421     -0.3718      0.1207
            y      -0.3587      3.5908     -0.3571
            z       0.2222     -0.1462      3.0249
-------------------------------------------------------------------------------
   16 Si    x       3.4478      0.4096      0.1958
            y       0.3678      3.6195      0.2832
            z       0.2602      0.1073      3.2863
-------------------------------------------------------------------------------
   17 Si    x       3.7423     -0.3713     -0.1207
            y      -0.3589      3.5907      0.3570
            z      -0.2221      0.1460      3.0248
-------------------------------------------------------------------------------
   18 Si    x       3.2314     -0.2166      0.0862
            y      -0.0590      3.7281     -0.0579
            z       0.1478     -0.0015      2.8639
-------------------------------------------------------------------------------
   19 Si    x       3.2850      0.3348      0.0974
            y       0.1977      3.5038      0.1167
            z       0.1222     -0.0113      3.0441
-------------------------------------------------------------------------------
   20 Si    x       3.5684     -0.2860     -0.0017
            y      -0.1591      3.4877      0.2114
            z      -0.0851      0.0641      2.8022
-------------------------------------------------------------------------------
   21 Si    x       3.3086     -0.2693      0.1423
            y       0.0190      3.7169     -0.1336
            z       0.1640      0.0050      2.7481
-------------------------------------------------------------------------------
   22 Si    x       3.2849      0.3350     -0.0975
            y       0.1972      3.5040     -0.1167
            z      -0.1220      0.0112      3.0441
-------------------------------------------------------------------------------
   23 Si    x       3.3086     -0.2695     -0.1422
            y       0.0194      3.7169      0.1334
            z      -0.1640     -0.0050      2.7480
-------------------------------------------------------------------------------
   24 Si    x       3.5683     -0.2864      0.0018
            y      -0.1587      3.4878     -0.2114
            z       0.0851     -0.0642      2.8023
-------------------------------------------------------------------------------
   25 O3    x      -2.0842     -0.9750      0.5478
            y      -0.9568     -2.3178      0.5415
            z       0.5748      0.5420     -1.6295
-------------------------------------------------------------------------------
   26 O3    x      -1.9870     -0.9313     -0.2221
            y      -0.9422     -2.4512     -0.2054
            z      -0.3585     -0.2264     -1.5208
-------------------------------------------------------------------------------
   27 O2    x      -1.7557      0.6946      0.2405
            y       0.7183     -1.9142     -0.2906
            z       0.3440     -0.2576     -1.3193
-------------------------------------------------------------------------------
   28 O3    x      -2.0666      0.9674     -0.5290
            y       0.9556     -2.3219      0.5030
            z      -0.5525      0.4980     -1.6144
-------------------------------------------------------------------------------
   29 O3    x      -1.9864     -0.9311      0.2223
            y      -0.9416     -2.4517      0.2054
            z       0.3586      0.2265     -1.5208
-------------------------------------------------------------------------------
   30 O3    x      -2.0838     -0.9750     -0.5478
            y      -0.9564     -2.3179     -0.5415
            z      -0.5747     -0.5420     -1.6296
-------------------------------------------------------------------------------
   31 O3    x      -2.0665      0.9673      0.5289
            y       0.9554     -2.3219     -0.5027
            z       0.5524     -0.4978     -1.6144
-------------------------------------------------------------------------------
   32 O2    x      -1.7555      0.6946     -0.2406
            y       0.7183     -1.9144      0.2906
            z      -0.3442      0.2577     -1.3194
-------------------------------------------------------------------------------
   33 O3    x      -2.0394     -0.0682      1.0780
            y      -0.0499     -1.2102      0.0428
            z       1.3435      0.0736     -3.2730
-------------------------------------------------------------------------------
   34 O3    x      -2.0396     -0.0680     -1.0781
            y      -0.0498     -1.2101     -0.0427
            z      -1.3436     -0.0735     -3.2730
-------------------------------------------------------------------------------
   35 O3    x      -2.0451      0.0065     -0.9199
            y       0.0129     -1.2135      0.0207
            z      -0.9528      0.0126     -2.8262
-------------------------------------------------------------------------------
   36 O2    x      -1.7194     -0.0625      0.6731
            y      -0.0109     -1.1505      0.0080
            z       0.6525      0.0169     -2.1292
-------------------------------------------------------------------------------
   37 O2    x      -1.7195     -0.0624     -0.6732
            y      -0.0109     -1.1504     -0.0080
            z      -0.6526     -0.0169     -2.1292
-------------------------------------------------------------------------------
   38 O3    x      -2.0450      0.0065      0.9198
            y       0.0128     -1.2135     -0.0208
            z       0.9527     -0.0128     -2.8261
-------------------------------------------------------------------------------
   39 O3    x      -2.0139     -0.9618      0.2707
            y      -0.8941     -2.5059      0.2506
            z       0.3810      0.2526     -1.3598
-------------------------------------------------------------------------------
   40 O2    x      -1.6730     -0.7210     -0.3622
            y      -0.6476     -2.0176     -0.3859
            z      -0.3478     -0.3676     -1.2738
-------------------------------------------------------------------------------
   41 O2    x      -1.6634      0.7139      0.3484
            y       0.6474     -2.0183     -0.3737
            z       0.3326     -0.3513     -1.2716
-------------------------------------------------------------------------------
   42 O2    x      -1.7930      0.6941     -0.2670
            y       0.6806     -1.8751      0.3178
            z      -0.3428      0.2712     -1.2208
-------------------------------------------------------------------------------
   43 O2    x      -1.6732     -0.7211      0.3623
            y      -0.6478     -2.0173      0.3859
            z       0.3478      0.3676     -1.2739
-------------------------------------------------------------------------------
   44 O3    x      -2.0145     -0.9622     -0.2706
            y      -0.8947     -2.5053     -0.2506
            z      -0.3808     -0.2525     -1.3599
-------------------------------------------------------------------------------
   45 O2    x      -1.7934      0.6940      0.2667
            y       0.6807     -1.8748     -0.3176
            z       0.3426     -0.2711     -1.2206
-------------------------------------------------------------------------------
   46 O2    x      -1.6637      0.7140     -0.3484
            y       0.6477     -2.0181      0.3737
            z      -0.3326      0.3514     -1.2717
-------------------------------------------------------------------------------
   47 O2    x      -1.8678     -0.0185     -0.5742
            y       0.0101     -1.1625     -0.0058
            z      -0.3204      0.0118     -1.7054
-------------------------------------------------------------------------------
   48 O2    x      -1.8679     -0.0188      0.5742
            y       0.0099     -1.1625      0.0057
            z       0.3203     -0.0119     -1.7054
-------------------------------------------------------------------------------
   49 O2    x      -1.1956      0.0135      0.0412
            y       0.0161     -2.5217     -0.0107
            z       0.0708     -0.0062     -1.0827
-------------------------------------------------------------------------------
   50 O3    x      -1.3311     -0.1078     -0.0836
            y      -0.1318     -3.1598     -0.1417
            z      -0.1137     -0.1184     -1.2011
-------------------------------------------------------------------------------
   51 O3    x      -1.3313     -0.1082      0.0836
            y      -0.1326     -3.1595      0.1418
            z       0.1138      0.1184     -1.2011
-------------------------------------------------------------------------------
   52 O2    x      -1.1956      0.0132     -0.0412
            y       0.0155     -2.5215      0.0107
            z      -0.0708      0.0063     -1.0827
-------------------------------------------------------------------------------
   53 O2    x      -2.3663      0.0701      0.0388
            y       0.0463     -1.2445      0.0649
            z       0.0469      0.0364     -1.1123
-------------------------------------------------------------------------------
   54 O3    x      -2.9509     -0.0104     -0.1022
            y      -0.0450     -1.3634     -0.0969
            z      -0.0945     -0.0478     -1.2699
-------------------------------------------------------------------------------
   55 O2    x      -2.3662      0.0707     -0.0389
            y       0.0466     -1.2446     -0.0649
            z      -0.0470     -0.0364     -1.1123
-------------------------------------------------------------------------------
   56 O3    x      -2.9509     -0.0096      0.1022
            y      -0.0445     -1.3633      0.0969
            z       0.0945      0.0477     -1.2700
-------------------------------------------------------------------------------
   57 O3    x      -1.3353     -0.1601     -0.1288
            y      -0.1240     -1.4798     -0.0879
            z      -0.1018     -0.0307     -2.5463
-------------------------------------------------------------------------------
   58 O3    x      -1.3210     -0.1576     -0.0537
            y      -0.1224     -1.4438     -0.0605
            z      -0.0228     -0.0296     -2.6040
-------------------------------------------------------------------------------
   59 O2    x      -1.1862      0.1109     -0.0424
            y       0.0744     -1.2794     -0.0671
            z      -0.0369     -0.0733     -2.0917
-------------------------------------------------------------------------------
   60 O2    x      -1.2012      0.1255      0.0073
            y       0.0806     -1.3166     -0.0663
            z      -0.0009     -0.0815     -2.0324
-------------------------------------------------------------------------------
   61 O3    x      -1.3210     -0.1575      0.0537
            y      -0.1225     -1.4437      0.0603
            z       0.0227      0.0295     -2.6041
-------------------------------------------------------------------------------
   62 O3    x      -1.3354     -0.1601      0.1289
            y      -0.1241     -1.4797      0.0879
            z       0.1019      0.0307     -2.5463
-------------------------------------------------------------------------------
   63 O2    x      -1.2012      0.1255     -0.0074
            y       0.0808     -1.3166      0.0662
            z       0.0008      0.0815     -2.0324
-------------------------------------------------------------------------------
   64 O2    x      -1.1863      0.1109      0.0424
            y       0.0745     -1.2794      0.0671
            z       0.0369      0.0733     -2.0917
-------------------------------------------------------------------------------
   65 O3    x      -1.4278     -0.1392      0.0963
            y      -0.1692     -3.1238      0.1170
            z       0.1288      0.0970     -1.1251
-------------------------------------------------------------------------------
   66 O2    x      -1.2356      0.0055     -0.0633
            y      -0.0088     -2.5445      0.0171
            z      -0.0923      0.0048     -1.0253
-------------------------------------------------------------------------------
   67 O2    x      -1.2356      0.0059      0.0633
            y      -0.0081     -2.5446     -0.0170
            z       0.0922     -0.0047     -1.0253
-------------------------------------------------------------------------------
   68 O3    x      -1.4276     -0.1387     -0.0963
            y      -0.1683     -3.1239     -0.1171
            z      -0.1287     -0.0969     -1.1251
-------------------------------------------------------------------------------
   69 O3    x      -3.0406      0.0118      0.0694
            y       0.0038     -1.3556      0.0878
            z       0.0769      0.0334     -1.2239
-------------------------------------------------------------------------------
   70 O2    x      -2.4331      0.0780     -0.0647
            y       0.0484     -1.2392     -0.0530
            z      -0.0410     -0.0159     -1.0583
-------------------------------------------------------------------------------
   71 O3    x      -3.0406      0.0110     -0.0695
            y       0.0033     -1.3556     -0.0879
            z      -0.0769     -0.0334     -1.2239
-------------------------------------------------------------------------------
   72 O2    x      -2.4333      0.0774      0.0647
            y       0.0481     -1.2392      0.0531
            z       0.0409      0.0160     -1.0583
-------------------------------------------------------------------------------




  Elastic Constant Matrix: (Units=GPa)

-------------------------------------------------------------------------------
  Indices      1         2         3         4         5         6    
-------------------------------------------------------------------------------
       1     66.9033   46.9808   21.0426   -0.0062    0.0961    7.0663
       2     46.9808   87.4920   19.9280   -0.0074    0.1087   14.3915
       3     21.0426   19.9280   24.2842   -0.0000   -0.0040    1.3157
       4     -0.0062   -0.0074   -0.0000    9.3297    1.6524   -0.0065
       5      0.0961    0.1087   -0.0040    1.6524   11.2041    0.0482
       6      7.0663   14.3915    1.3157   -0.0065    0.0482   11.5985
-------------------------------------------------------------------------------


  Elastic Compliance Matrix: (Units=1/GPa)

-------------------------------------------------------------------------------
  Indices      1         2         3         4         5         6    
-------------------------------------------------------------------------------
       1    0.027591 -0.011315 -0.014562  0.000032 -0.000132 -0.001118
       2   -0.011315  0.022572 -0.007622  0.000003 -0.000038 -0.020250
       3   -0.014562 -0.007622  0.059424 -0.000039  0.000176  0.011587
       4    0.000032  0.000003 -0.000039  0.110060 -0.016233  0.000111
       5   -0.000132 -0.000038  0.000176 -0.016233  0.091650 -0.000282
       6   -0.001118 -0.020250  0.011587  0.000111 -0.000282  0.110712
-------------------------------------------------------------------------------

  Mechanical properties :

-------------------------------------------------------------------------------
  Convention :                    Reuss         Voigt         Hill
-------------------------------------------------------------------------------
  Bulk  Modulus (GPa)     =      23.47973      39.39803      31.43888
  Shear Modulus (GPa)     =       9.93637      12.47498      11.20567
-------------------------------------------------------------------------------
  Velocity S-wave (km/s)  =       2.18614       2.44954       2.32158
  Velocity P-wave (km/s)  =       4.20304       5.19134       4.72311
-------------------------------------------------------------------------------
  Compressibility (1/GPa) =    0.04258992
-------------------------------------------------------------------------------
  Stress axis :                     x             y             z
-------------------------------------------------------------------------------
  Youngs Moduli (GPa)     =      36.24407      44.30246      16.82820
-------------------------------------------------------------------------------
  Poissons Ratio (x)      =                     0.50127       0.24506
  Poissons Ratio (y)      =       0.41009                     0.12826
  Poissons Ratio (z)      =       0.52780       0.33766
-------------------------------------------------------------------------------


  Piezoelectric Strain Matrix: (Units=C/m**2)

-------------------------------------------------------------------------------
  Indices      1         2         3         4         5         6    
-------------------------------------------------------------------------------
       x    -0.40085  -0.08980  -0.49734   0.00022   0.00117   0.21964
       y    -0.70238  -0.38163  -0.09563   0.00041  -0.00380   0.46985
       z     0.00129   0.00149  -0.00023   0.07412  -0.31494   0.00048
-------------------------------------------------------------------------------


  Piezoelectric Stress Matrix: (Units=10**-11 C/N)

-------------------------------------------------------------------------------
  Indices      1         2         3         4         5         6    
-------------------------------------------------------------------------------
       x    -0.30470   0.18514  -2.04868   0.00362   0.00102   2.08198
       y    -1.41933  -0.94522   1.28976   0.01390  -0.03973   5.94238
       z     0.00653   0.00233  -0.00962   1.32696  -3.00680   0.01163
-------------------------------------------------------------------------------


  Static dielectric constant tensor : 

-------------------------------------------------------------------------------
              x         y         z
-------------------------------------------------------------------------------
       x     4.42130   0.13044  -0.00005
       y     0.13044   4.50561  -0.00019
       z    -0.00005  -0.00019   3.57938
--------------------------------------------------------------------------------

  High frequency dielectric constant tensor : 

-------------------------------------------------------------------------------
              x         y         z
-------------------------------------------------------------------------------
       x     1.64783   0.00022   0.00000
       y     0.00022   1.65384  -0.00000
       z     0.00000  -0.00000   1.58933
-------------------------------------------------------------------------------

  Static refractive indices : 

-------------------------------------------------------------------------------
    1 =    1.89193      2 =    2.07999      3 =    2.14489
-------------------------------------------------------------------------------

  High frequency refractive indices : 

-------------------------------------------------------------------------------
    1 =    1.26069      2 =    1.28367      3 =    1.28602
-------------------------------------------------------------------------------


  Time to end of optimisation =       8.7190 seconds


  Peak dynamic memory used =       5.01 MB 


  Timing analysis for GULP :

--------------------------------------------------------------------------------
  Task / Subroutine                                          Time (Seconds)
--------------------------------------------------------------------------------
  Calculation of reciprocal space energy and derivatives          0.5481
  Calculation of real space energy and derivatives                5.5818
  Calculation of three-body energy and derivatives                0.3046
  Calculation and manipulation of Hessian matrix                  2.9208
  Calculation of matrix inversion                                 0.0275
  Global summation overhead                                       0.0001
--------------------------------------------------------------------------------
  Total CPU time                                                  8.7190
--------------------------------------------------------------------------------


  Dump file written as POSCAR_N0006.vasp.grs
  CIF file written as POSCAR_N0006.vasp.cif


  Job Finished at 11:28.49 31st October    2025                               

