********************************************************************************
*                       GENERAL UTILITY LATTICE PROGRAM                        *
*                                 Julian Gale                                  *
*                       Curtin Institute for Computation                       *
*                    School of Molecular and Life Sciences                     *
*                    Curtin University, Western Australia                      *
********************************************************************************
* Version = 6.1.2 * Last modified =   3rd November 2022                        *
********************************************************************************
*  optimise     - perform optimisation run                                     *
*  conp         - constant pressure calculation                                *
*  property     - calculate properties for final geometry                      *
********************************************************************************

  Job Started  at 11:29.05 31st October    2025                               

  Number of CPUs =     1


  Total number of configurations input =      1

********************************************************************************
*  Input for Configuration =   1 : POSCAR_N0009.vasp                           *
********************************************************************************

  Formula = Ge9Si15O48                                                  

  Number of irreducible atoms/shells =     120


  Total number atoms/shells =     120

  Dimensionality = 3               :  Bulk   



  Cartesian lattice vectors (Angstroms) :

       17.182800    0.000000    0.000000
        0.000000    7.513760    0.000000
        0.000000    0.000000   10.447700

  Cell parameters (Angstroms/Degrees):

  a =      17.1828    alpha =  90.0000
  b =       7.5138    beta  =  90.0000
  c =      10.4477    gamma =  90.0000

  Initial cell volume =        1348.875752 Angs**3

  Temperature of configuration =   0.00     K 

  Pressure of configuration =         0.000 GPa 

  Fractional coordinates of asymmetric unit :

--------------------------------------------------------------------------------
   No.  Atomic       x           y          z         Charge      Occupancy
        Label      (Frac)      (Frac)     (Frac)        (e)         (Frac)  
--------------------------------------------------------------------------------
      1 Ge    c    0.052090    0.000000    0.372270     4.00000    1.000000    
      2 Ge    c    0.447910 *  0.000000 *  0.372270 *   4.00000    1.000000    
      3 Ge    c    0.947910 *  0.000000 *  0.627730 *   4.00000    1.000000    
      4 Ge    c    0.339810 *  0.706090 *  0.273440 *   4.00000    1.000000    
      5 Ge    c    0.660190 *  0.706090 *  0.726560 *   4.00000    1.000000    
      6 Ge    c    0.660660 *  0.294090 *  0.017440 *   4.00000    1.000000    
      7 Ge    c    0.339340 *  0.294090 *  0.982560 *   4.00000    1.000000    
      8 Ge    c    0.160660 *  0.294090 *  0.982560 *   4.00000    1.000000    
      9 Ge    c    0.839340 *  0.294090 *  0.017440 *   4.00000    1.000000    
     10 Si    c    0.552090 *  0.000000 *  0.627730 *   4.00000    1.000000    
     11 Si    c    0.556730 *  0.000000 *  0.122130 *   4.00000    1.000000    
     12 Si    c    0.943270 *  0.000000 *  0.122130 *   4.00000    1.000000    
     13 Si    c    0.443270 *  0.000000 *  0.877870 *   4.00000    1.000000    
     14 Si    c    0.056730 *  0.000000 *  0.877870 *   4.00000    1.000000    
     15 Si    c    0.160190 *  0.293910 *  0.273440 *   4.00000    1.000000    
     16 Si    c    0.839810 *  0.293910 *  0.726560 *   4.00000    1.000000    
     17 Si    c    0.839810 *  0.706090 *  0.726560 *   4.00000    1.000000    
     18 Si    c    0.660190 *  0.293910 *  0.726560 *   4.00000    1.000000    
     19 Si    c    0.160190 *  0.706090 *  0.273440 *   4.00000    1.000000    
     20 Si    c    0.339810 *  0.293910 *  0.273440 *   4.00000    1.000000    
     21 Si    c    0.839340 *  0.705910 *  0.017440 *   4.00000    1.000000    
     22 Si    c    0.160660 *  0.705910 *  0.982560 *   4.00000    1.000000    
     23 Si    c    0.339340 *  0.705910 *  0.982560 *   4.00000    1.000000    
     24 Si    c    0.660660 *  0.705910 *  0.017440 *   4.00000    1.000000    
     25 O3    c    0.106570 *  0.174340 *  0.366200 *   1.33043    1.000000    
     26 O1    c    0.393430 *  0.825660 *  0.366200 *   1.73396    1.000000    
     27 O3    c    0.893430 *  0.174340 *  0.633800 *   1.33043    1.000000    
     28 O3    c    0.606570 *  0.825660 *  0.633800 *   1.33043    1.000000    
     29 O3    c    0.893430 *  0.825660 *  0.633800 *   1.33043    1.000000    
     30 O2    c    0.606570 *  0.174340 *  0.633800 *   0.87073    1.000000    
     31 O3    c    0.106570 *  0.825660 *  0.366200 *   1.33043    1.000000    
     32 O3    c    0.393430 *  0.174340 *  0.366200 *   1.33043    1.000000    
     33 O1    c    0.000000 *  0.000000 *  0.500000 *   1.73396    1.000000    
     34 O3    c    0.500000 *  0.000000 *  0.500000 *   1.33043    1.000000    
     35 O3    c    0.994520 *  0.000000 *  0.250840 *   1.33043    1.000000    
     36 O3    c    0.505480 *  0.000000 *  0.250840 *   1.33043    1.000000    
     37 O3    c    0.005480 *  0.000000 *  0.749160 *   1.33043    1.000000    
     38 O2    c    0.494520 *  0.000000 *  0.749160 *   0.87073    1.000000    
     39 O3    c    0.610230 *  0.175520 *  0.115390 *   1.33043    1.000000    
     40 O2    c    0.889770 *  0.824480 *  0.115390 *   0.87073    1.000000    
     41 O3    c    0.389770 *  0.175520 *  0.884610 *   1.33043    1.000000    
     42 O2    c    0.110230 *  0.824480 *  0.884610 *   0.87073    1.000000    
     43 O2    c    0.389770 *  0.824480 *  0.884610 *   0.87073    1.000000    
     44 O3    c    0.110230 *  0.175520 *  0.884610 *   1.33043    1.000000    
     45 O2    c    0.610230 *  0.824480 *  0.115390 *   0.87073    1.000000    
     46 O3    c    0.889770 *  0.175520 *  0.115390 *   1.33043    1.000000    
     47 O2    c    0.500000 *  0.000000 *  0.000000 *   0.87073    1.000000    
     48 O2    c    0.000000 *  0.000000 *  0.000000 *   0.87073    1.000000    
     49 O2    c    0.151750 *  0.500000 *  0.313330 *   0.87073    1.000000    
     50 O3    c    0.348250 *  0.500000 *  0.313330 *   1.33043    1.000000    
     51 O2    c    0.848250 *  0.500000 *  0.686670 *   0.87073    1.000000    
     52 O3    c    0.651750 *  0.500000 *  0.686670 *   1.33043    1.000000    
     53 O2    c    0.250000 *  0.234950 *  0.285720 *   0.87073    1.000000    
     54 O3    c    0.250000 *  0.765050 *  0.285720 *   1.33043    1.000000    
     55 O2    c    0.750000 *  0.234950 *  0.714280 *   0.87073    1.000000    
     56 O3    c    0.750000 *  0.765050 *  0.714280 *   1.33043    1.000000    
     57 O3    c    0.131410 *  0.268650 *  0.127790 *   1.33043    1.000000    
     58 O3    c    0.368590 *  0.731350 *  0.127790 *   1.33043    1.000000    
     59 O3    c    0.868590 *  0.268650 *  0.872210 *   1.33043    1.000000    
     60 O3    c    0.631410 *  0.731350 *  0.872210 *   1.33043    1.000000    
     61 O2    c    0.868590 *  0.731350 *  0.872210 *   0.87073    1.000000    
     62 O3    c    0.631410 *  0.268650 *  0.872210 *   1.33043    1.000000    
     63 O2    c    0.131410 *  0.731350 *  0.127790 *   0.87073    1.000000    
     64 O3    c    0.368590 *  0.268650 *  0.127790 *   1.33043    1.000000    
     65 O3    c    0.653920 *  0.500000 *  0.058200 *   1.33043    1.000000    
     66 O3    c    0.846080 *  0.500000 *  0.058200 *   1.33043    1.000000    
     67 O3    c    0.346080 *  0.500000 *  0.941800 *   1.33043    1.000000    
     68 O3    c    0.153920 *  0.500000 *  0.941800 *   1.33043    1.000000    
     69 O1    c    0.750000 *  0.231060 *  0.027050 *   1.73396    1.000000    
     70 O2    c    0.750000 *  0.768940 *  0.027050 *   0.87073    1.000000    
     71 O1    c    0.250000 *  0.231060 *  0.972950 *   1.73396    1.000000    
     72 O2    c    0.250000 *  0.768940 *  0.972950 *   0.87073    1.000000    
     73 O3    s    0.106570 *  0.174340 *  0.366200 *  -3.33043    1.000000    
     74 O1    s    0.393430 *  0.825660 *  0.366200 *  -3.73396    1.000000    
     75 O3    s    0.893430 *  0.174340 *  0.633800 *  -3.33043    1.000000    
     76 O3    s    0.606570 *  0.825660 *  0.633800 *  -3.33043    1.000000    
     77 O3    s    0.893430 *  0.825660 *  0.633800 *  -3.33043    1.000000    
     78 O2    s    0.606570 *  0.174340 *  0.633800 *  -2.87073    1.000000    
     79 O3    s    0.106570 *  0.825660 *  0.366200 *  -3.33043    1.000000    
     80 O3    s    0.393430 *  0.174340 *  0.366200 *  -3.33043    1.000000    
     81 O1    s    0.000000 *  0.000000 *  0.500000 *  -3.73396    1.000000    
     82 O3    s    0.500000 *  0.000000 *  0.500000 *  -3.33043    1.000000    
     83 O3    s    0.994520 *  0.000000 *  0.250840 *  -3.33043    1.000000    
     84 O3    s    0.505480 *  0.000000 *  0.250840 *  -3.33043    1.000000    
     85 O3    s    0.005480 *  0.000000 *  0.749160 *  -3.33043    1.000000    
     86 O2    s    0.494520 *  0.000000 *  0.749160 *  -2.87073    1.000000    
     87 O3    s    0.610230 *  0.175520 *  0.115390 *  -3.33043    1.000000    
     88 O2    s    0.889770 *  0.824480 *  0.115390 *  -2.87073    1.000000    
     89 O3    s    0.389770 *  0.175520 *  0.884610 *  -3.33043    1.000000    
     90 O2    s    0.110230 *  0.824480 *  0.884610 *  -2.87073    1.000000    
     91 O2    s    0.389770 *  0.824480 *  0.884610 *  -2.87073    1.000000    
     92 O3    s    0.110230 *  0.175520 *  0.884610 *  -3.33043    1.000000    
     93 O2    s    0.610230 *  0.824480 *  0.115390 *  -2.87073    1.000000    
     94 O3    s    0.889770 *  0.175520 *  0.115390 *  -3.33043    1.000000    
     95 O2    s    0.500000 *  0.000000 *  0.000000 *  -2.87073    1.000000    
     96 O2    s    0.000000 *  0.000000 *  0.000000 *  -2.87073    1.000000    
     97 O2    s    0.151750 *  0.500000 *  0.313330 *  -2.87073    1.000000    
     98 O3    s    0.348250 *  0.500000 *  0.313330 *  -3.33043    1.000000    
     99 O2    s    0.848250 *  0.500000 *  0.686670 *  -2.87073    1.000000    
    100 O3    s    0.651750 *  0.500000 *  0.686670 *  -3.33043    1.000000    
    101 O2    s    0.250000 *  0.234950 *  0.285720 *  -2.87073    1.000000    
    102 O3    s    0.250000 *  0.765050 *  0.285720 *  -3.33043    1.000000    
    103 O2    s    0.750000 *  0.234950 *  0.714280 *  -2.87073    1.000000    
    104 O3    s    0.750000 *  0.765050 *  0.714280 *  -3.33043    1.000000    
    105 O3    s    0.131410 *  0.268650 *  0.127790 *  -3.33043    1.000000    
    106 O3    s    0.368590 *  0.731350 *  0.127790 *  -3.33043    1.000000    
    107 O3    s    0.868590 *  0.268650 *  0.872210 *  -3.33043    1.000000    
    108 O3    s    0.631410 *  0.731350 *  0.872210 *  -3.33043    1.000000    
    109 O2    s    0.868590 *  0.731350 *  0.872210 *  -2.87073    1.000000    
    110 O3    s    0.631410 *  0.268650 *  0.872210 *  -3.33043    1.000000    
    111 O2    s    0.131410 *  0.731350 *  0.127790 *  -2.87073    1.000000    
    112 O3    s    0.368590 *  0.268650 *  0.127790 *  -3.33043    1.000000    
    113 O3    s    0.653920 *  0.500000 *  0.058200 *  -3.33043    1.000000    
    114 O3    s    0.846080 *  0.500000 *  0.058200 *  -3.33043    1.000000    
    115 O3    s    0.346080 *  0.500000 *  0.941800 *  -3.33043    1.000000    
    116 O3    s    0.153920 *  0.500000 *  0.941800 *  -3.33043    1.000000    
    117 O1    s    0.750000 *  0.231060 *  0.027050 *  -3.73396    1.000000    
    118 O2    s    0.750000 *  0.768940 *  0.027050 *  -2.87073    1.000000    
    119 O1    s    0.250000 *  0.231060 *  0.972950 *  -3.73396    1.000000    
    120 O2    s    0.250000 *  0.768940 *  0.972950 *  -2.87073    1.000000    
--------------------------------------------------------------------------------



********************************************************************************
*  General input information                                                   *
********************************************************************************

  Species output for all configurations : 

--------------------------------------------------------------------------------
  Species    Type    Atomic    Atomic    Charge       Radii (Angs)     Library
                     Number     Mass       (e)     Cova   Ionic  VDW   Symbol
--------------------------------------------------------------------------------
    Ge       Core       32      72.61   4.000000   1.170  0.000  1.750 Ge       
    Si       Core       14      28.09   4.000000   1.200  0.000  2.100 Si       
    O1       Core        8      16.00   1.733957   0.730  0.000  1.360 O1       
    O2       Core        8      16.00   0.870733   0.730  0.000  1.360 O2       
    O3       Core        8      16.00   1.330431   0.730  0.000  1.360 O3       
    O1       Shell       8       0.00  -3.733957   0.730  0.000  0.000 O1       
    O2       Shell       8       0.00  -2.870733   0.730  0.000  0.000 O2       
    O3       Shell       8       0.00  -3.330431   0.730  0.000  0.000 O3       
--------------------------------------------------------------------------------


  Lattice summation method               =    Ewald          (3-D)
                                         =    Parry          (2-D)
                                         =    Saunders et al (1-D)
  Accuracy factor for lattice sums       =   12.000


  Analytic derivatives to be used

  Time limit = Infinity

  Maximum range for interatomic potentials =    100000.000000 Angstroms

  General interatomic potentials :

--------------------------------------------------------------------------------
Atom  Types   Potential      Parameter       Value         Units   Cutoffs(Ang)
  1     2                                                            Min /  Max 
--------------------------------------------------------------------------------
Si   c O1   s Buckingham    Buckingham A     1315.2478    eV        0.000 16.000
                            Buckingham rho  0.31775900    Ang       
                            Buckingham C     10.141118    eV*Ang^6  
--------------------------------------------------------------------------------
Si   c O2   s Buckingham    Buckingham A     1315.2478    eV        0.000 16.000
                            Buckingham rho  0.31775900    Ang       
                            Buckingham C     10.141118    eV*Ang^6  
--------------------------------------------------------------------------------
Si   c O3   s Buckingham    Buckingham A     1315.2478    eV        0.000 16.000
                            Buckingham rho  0.31775900    Ang       
                            Buckingham C     10.141118    eV*Ang^6  
--------------------------------------------------------------------------------
Ge   c O1   s Buckingham    Buckingham A     1497.3996    eV        0.000 16.000
                            Buckingham rho  0.32564600    Ang       
                            Buckingham C     16.808599    eV*Ang^6  
--------------------------------------------------------------------------------
Ge   c O2   s Buckingham    Buckingham A     1497.3996    eV        0.000 16.000
                            Buckingham rho  0.32564600    Ang       
                            Buckingham C     16.808599    eV*Ang^6  
--------------------------------------------------------------------------------
Ge   c O3   s Buckingham    Buckingham A     1497.3996    eV        0.000 16.000
                            Buckingham rho  0.32564600    Ang       
                            Buckingham C     16.808599    eV*Ang^6  
--------------------------------------------------------------------------------
O1   s O1   s Buckingham    Buckingham A     22764.000    eV        0.000 16.000
                            Buckingham rho  0.14900000    Ang       
                            Buckingham C     10.937044    eV*Ang^6  
--------------------------------------------------------------------------------
O1   s O2   s Buckingham    Buckingham A     22764.000    eV        0.000 16.000
                            Buckingham rho  0.14900000    Ang       
                            Buckingham C     10.937044    eV*Ang^6  
--------------------------------------------------------------------------------
O1   s O3   s Buckingham    Buckingham A     22764.000    eV        0.000 16.000
                            Buckingham rho  0.14900000    Ang       
                            Buckingham C     10.937044    eV*Ang^6  
--------------------------------------------------------------------------------
O2   s O2   s Buckingham    Buckingham A     22764.000    eV        0.000 16.000
                            Buckingham rho  0.14900000    Ang       
                            Buckingham C     10.937044    eV*Ang^6  
--------------------------------------------------------------------------------
O2   s O3   s Buckingham    Buckingham A     22764.000    eV        0.000 16.000
                            Buckingham rho  0.14900000    Ang       
                            Buckingham C     10.937044    eV*Ang^6  
--------------------------------------------------------------------------------
O3   s O3   s Buckingham    Buckingham A     22764.000    eV        0.000 16.000
                            Buckingham rho  0.14900000    Ang       
                            Buckingham C     10.937044    eV*Ang^6  
--------------------------------------------------------------------------------
O1   c O1   s Spring (c-s)  Spring k 2       180.31577    eV*Ang^-2 0.000  0.800
                            Spring k 4       0.0000000    eV*Ang^-4 
--------------------------------------------------------------------------------
O2   c O2   s Spring (c-s)  Spring k 2       75.969800    eV*Ang^-2 0.000  0.800
                            Spring k 4       0.0000000    eV*Ang^-4 
--------------------------------------------------------------------------------
O3   c O3   s Spring (c-s)  Spring k 2       128.14270    eV*Ang^-2 0.000  0.800
                            Spring k 4       0.0000000    eV*Ang^-4 
--------------------------------------------------------------------------------

  General Three-body potentials :

--------------------------------------------------------------------------------
  Atoms       Potential      Parameter       Value         Units   Cutoffs(Ang)
  1 / 2 / 3                                                          Min /  Max 
--------------------------------------------------------------------------------
Si    core    Harmonic      Three-body cnst  1.2614000    eV*rad^-2 0.000  1.900
O1    shel                  Three-body angl  109.47000    degrees   0.000  1.900
O1    shel                  Three-body k4    0.0000000    eV*rad^-4 0.000  3.500
                            Three-body k3    0.0000000    eV*rad^-3 
--------------------------------------------------------------------------------
Si    core    Harmonic      Three-body cnst  1.2614000    eV*rad^-2 0.000  1.900
O1    shel                  Three-body angl  109.47000    degrees   0.000  1.900
õ(1   shel                  Three-body k4    0.0000000    eV*rad^-4 0.000  3.500
                            Three-body k3    0.0000000    eV*rad^-3 
--------------------------------------------------------------------------------
Si    core    Harmonic      Three-body cnst  1.2614000    eV*rad^-2 0.000  1.900
õ(1   shel                  Three-body angl  109.47000    degrees   0.000  1.900
õ(1   shel                  Three-body k4    0.0000000    eV*rad^-4 0.000  3.500
                            Three-body k3    0.0000000    eV*rad^-3 
--------------------------------------------------------------------------------
Si    core    Harmonic      Three-body cnst  1.2614000    eV*rad^-2 0.000  1.900
O1    shel                  Three-body angl  109.47000    degrees   0.000  1.900
O2    shel                  Three-body k4    0.0000000    eV*rad^-4 0.000  3.500
                            Three-body k3    0.0000000    eV*rad^-3 
--------------------------------------------------------------------------------
Si    core    Harmonic      Three-body cnst  1.2614000    eV*rad^-2 0.000  1.900
O1    shel                  Three-body angl  109.47000    degrees   0.000  1.900
õ(2   shel                  Three-body k4    0.0000000    eV*rad^-4 0.000  3.500
                            Three-body k3    0.0000000    eV*rad^-3 
--------------------------------------------------------------------------------
Si    core    Harmonic      Three-body cnst  1.2614000    eV*rad^-2 0.000  1.900
O2    shel                  Three-body angl  109.47000    degrees   0.000  1.900
õ(1   shel                  Three-body k4    0.0000000    eV*rad^-4 0.000  3.500
                            Three-body k3    0.0000000    eV*rad^-3 
--------------------------------------------------------------------------------
Si    core    Harmonic      Three-body cnst  1.2614000    eV*rad^-2 0.000  1.900
õ(1   shel                  Three-body angl  109.47000    degrees   0.000  1.900
õ(2   shel                  Three-body k4    0.0000000    eV*rad^-4 0.000  3.500
                            Three-body k3    0.0000000    eV*rad^-3 
--------------------------------------------------------------------------------
Si    core    Harmonic      Three-body cnst  1.2614000    eV*rad^-2 0.000  1.900
O2    shel                  Three-body angl  109.47000    degrees   0.000  1.900
O2    shel                  Three-body k4    0.0000000    eV*rad^-4 0.000  3.500
                            Three-body k3    0.0000000    eV*rad^-3 
--------------------------------------------------------------------------------
Si    core    Harmonic      Three-body cnst  1.2614000    eV*rad^-2 0.000  1.900
O2    shel                  Three-body angl  109.47000    degrees   0.000  1.900
õ(2   shel                  Three-body k4    0.0000000    eV*rad^-4 0.000  3.500
                            Three-body k3    0.0000000    eV*rad^-3 
--------------------------------------------------------------------------------
Si    core    Harmonic      Three-body cnst  1.2614000    eV*rad^-2 0.000  1.900
õ(2   shel                  Three-body angl  109.47000    degrees   0.000  1.900
õ(2   shel                  Three-body k4    0.0000000    eV*rad^-4 0.000  3.500
                            Three-body k3    0.0000000    eV*rad^-3 
--------------------------------------------------------------------------------

********************************************************************************
*  Output for configuration   1 : POSCAR_N0009.vasp                            *
********************************************************************************


  Components of energy : 

--------------------------------------------------------------------------------
  Interatomic potentials     =         808.38809004 eV    
  Three-body potentials      =           0.00474729 eV    
  Monopole - monopole (real) =       -2676.00317478 eV    
  Monopole - monopole (recip)=       -1115.35404472 eV    
  Monopole - monopole (total)=       -3791.35721950 eV    
--------------------------------------------------------------------------------
  Total lattice energy       =       -2982.96438218 eV    
--------------------------------------------------------------------------------
  Total lattice energy       =         -287810.4641 kJ/(mole unit cells)
--------------------------------------------------------------------------------


  Number of variables =      363

  Maximum number of calculations  =          1000
  Maximum Hessian update interval =            10
  Maximum step size               =   0.100000000
  Maximum parameter tolerance     =   0.000010000
  Maximum function  tolerance     =   0.000010000
  Maximum gradient  tolerance     =   0.001000000
  Maximum gradient  component     =   0.010000000

  Symmetry not applied to optimisation

  Cell parameters to be optimised using strains

  Newton-Raphson optimiser to be used

  BFGS hessian update to be used

  Lower half triangular hessian to be used

  Minimiser to switch to RFO
  When gradient norm is less than     0.050000

  Dumpfile to be written after every cycle

  Start of bulk optimisation :

  Cycle:      0 Energy:     -2982.964382  Gnorm:      4.956272  CPU:    0.079
  ** Hessian calculated **
  Cycle:      1 Energy:     -3017.067202  Gnorm:      1.166474  CPU:    0.168
  ** Hessian calculated **
  Cycle:      2 Energy:     -3020.350275  Gnorm:      0.693566  CPU:    0.309
  Cycle:      3 Energy:     -3021.706283  Gnorm:      0.485587  CPU:    0.380
  Cycle:      4 Energy:     -3023.298048  Gnorm:      0.391837  CPU:    0.464
  Cycle:      5 Energy:     -3024.777090  Gnorm:      0.291600  CPU:    0.547
  Cycle:      6 Energy:     -3025.448904  Gnorm:      0.221069  CPU:    0.618
  Cycle:      7 Energy:     -3025.762856  Gnorm:      0.149587  CPU:    0.689
  Cycle:      8 Energy:     -3025.893900  Gnorm:      0.095268  CPU:    0.760
  Cycle:      9 Energy:     -3025.945422  Gnorm:      0.067706  CPU:    0.831
  Cycle:     10 Energy:     -3025.988998  Gnorm:      0.059987  CPU:    0.915
  Cycle:     11 Energy:     -3026.035242  Gnorm:      0.067345  CPU:    0.999
  ** Hessian calculated **
  Cycle:     12 Energy:     -3026.048600  Gnorm:      0.067300  CPU:    1.152
  Cycle:     13 Energy:     -3026.071174  Gnorm:      0.067203  CPU:    1.249
  Cycle:     14 Energy:     -3026.106988  Gnorm:      0.066945  CPU:    1.345
  Cycle:     15 Energy:     -3026.156602  Gnorm:      0.066246  CPU:    1.431
  Cycle:     16 Energy:     -3026.249526  Gnorm:      0.064366  CPU:    1.531
  Cycle:     17 Energy:     -3026.308991  Gnorm:      0.065809  CPU:    1.617
  ** Hessian calculated **
  Cycle:     18 Energy:     -3026.439607  Gnorm:      0.058292  CPU:    1.773
  Cycle:     19 Energy:     -3026.647683  Gnorm:      0.047782  CPU:    1.858
  ** Hessian has wrong structure
  ** Imaginary eigenvectors =   3
  Cycle:     20 Energy:     -3026.662934  Gnorm:      0.071900  CPU:    2.040
  ** Hessian has wrong structure
  ** Imaginary eigenvectors =   2
  ** Hessian has wrong structure
  ** Imaginary eigenvectors =   2
  Cycle:     21 Energy:     -3026.674638  Gnorm:      0.095038  CPU:    2.384
  ** Hessian has wrong structure
  ** Imaginary eigenvectors =   1
  ** Hessian has required structure
  Cycle:     22 Energy:     -3026.750310  Gnorm:      0.093341  CPU:    2.662
  ** Hessian has required structure
  Cycle:     23 Energy:     -3026.920197  Gnorm:      0.031452  CPU:    2.779
  ** Hessian has required structure
  Cycle:     24 Energy:     -3026.937935  Gnorm:      0.020857  CPU:    2.909
  ** Hessian has required structure
  Cycle:     25 Energy:     -3026.945028  Gnorm:      0.019022  CPU:    3.038
  ** Hessian has required structure
  Cycle:     26 Energy:     -3026.963003  Gnorm:      0.017156  CPU:    3.168
  ** Hessian has required structure
  Cycle:     27 Energy:     -3026.970086  Gnorm:      0.011508  CPU:    3.285
  ** Hessian has required structure
  Cycle:     28 Energy:     -3026.978005  Gnorm:      0.016827  CPU:    3.420
  ** Hessian has required structure
  Cycle:     29 Energy:     -3026.986923  Gnorm:      0.016713  CPU:    3.556
  ** Hessian has required structure
  Cycle:     30 Energy:     -3026.998637  Gnorm:      0.022860  CPU:    3.693
  ** Hessian has required structure
  Cycle:     31 Energy:     -3027.011153  Gnorm:      0.028057  CPU:    3.817
  ** Hessian has wrong structure
  ** Imaginary eigenvectors =   1
  Cycle:     32 Energy:     -3027.034877  Gnorm:      0.037126  CPU:    4.092
  ** Hessian has required structure
  Cycle:     33 Energy:     -3027.091874  Gnorm:      0.031084  CPU:    4.283
  ** Hessian has required structure
  Cycle:     34 Energy:     -3027.125136  Gnorm:      0.026043  CPU:    4.409
  ** Hessian has required structure
  Cycle:     35 Energy:     -3027.151287  Gnorm:      0.022118  CPU:    4.534
  ** Hessian has required structure
  Cycle:     36 Energy:     -3027.162377  Gnorm:      0.015133  CPU:    4.660
  ** Hessian has required structure
  Cycle:     37 Energy:     -3027.168423  Gnorm:      0.020050  CPU:    4.783
  ** Hessian has required structure
  Cycle:     38 Energy:     -3027.174282  Gnorm:      0.012347  CPU:    4.892
  ** Hessian has required structure
  Cycle:     39 Energy:     -3027.178448  Gnorm:      0.009455  CPU:    5.015
  ** Hessian has required structure
  Cycle:     40 Energy:     -3027.181212  Gnorm:      0.008332  CPU:    5.129
  ** Hessian has required structure
  Cycle:     41 Energy:     -3027.184059  Gnorm:      0.007833  CPU:    5.259
  ** Hessian has required structure
  Cycle:     42 Energy:     -3027.185749  Gnorm:      0.007115  CPU:    5.377
  ** Hessian has required structure
  Cycle:     43 Energy:     -3027.188191  Gnorm:      0.003672  CPU:    5.573
  ** Hessian has required structure
  Cycle:     44 Energy:     -3027.188821  Gnorm:      0.001948  CPU:    5.704
  ** Hessian has required structure
  Cycle:     45 Energy:     -3027.188990  Gnorm:      0.001001  CPU:    5.834
  ** Hessian has required structure
  Cycle:     46 Energy:     -3027.189036  Gnorm:      0.000515  CPU:    5.960
  ** Hessian has required structure
  Cycle:     47 Energy:     -3027.189048  Gnorm:      0.000311  CPU:    6.075
  ** Hessian has required structure
  Cycle:     48 Energy:     -3027.189051  Gnorm:      0.000219  CPU:    6.177
  ** Hessian has required structure
  Cycle:     49 Energy:     -3027.189052  Gnorm:      0.000153  CPU:    6.279
  ** Hessian has required structure
  Cycle:     50 Energy:     -3027.189053  Gnorm:      0.000107  CPU:    6.382
  ** Hessian has required structure


  **** Optimisation achieved ****


  Final energy =   -3027.18905318 eV      
  Final Gnorm  =       0.00008593

  Components of energy : 

--------------------------------------------------------------------------------
  Interatomic potentials     =         806.97779597 eV    
  Three-body potentials      =           0.04289763 eV    
  Monopole - monopole (real) =       -1989.29372813 eV    
  Monopole - monopole (recip)=       -1844.91601866 eV    
  Monopole - monopole (total)=       -3834.20974679 eV    
--------------------------------------------------------------------------------
  Total lattice energy       =       -3027.18905318 eV    
--------------------------------------------------------------------------------
  Total lattice energy       =         -292077.4688 kJ/(mole unit cells)
--------------------------------------------------------------------------------

  Final fractional coordinates of atoms :

--------------------------------------------------------------------------------
   No.  Atomic        x           y          z          Radius
        Label       (Frac)      (Frac)     (Frac)       (Angs) 
--------------------------------------------------------------------------------
     1  Ge    c     0.052090    0.000000    0.372270    0.000000
     2  Ge    c     0.453751    0.986445    0.374907    0.000000
     3  Ge    c     0.951818    0.997736    0.642370    0.000000
     4  Ge    c     0.347195    0.678904    0.291044    0.000000
     5  Ge    c     0.659480    0.705890    0.697320    0.000000
     6  Ge    c     0.660674    0.343019    0.039242    0.000000
     7  Ge    c     0.339002    0.318115    0.950743    0.000000
     8  Ge    c     0.156443    0.343383    0.949319    0.000000
     9  Ge    c     0.846361    0.341205    0.034750    0.000000
    10  Si    c     0.550969    0.007247    0.635600    0.000000
    11  Si    c     0.561558    0.035062    0.128221    0.000000
    12  Si    c     0.943801    0.027980    0.129729    0.000000
    13  Si    c     0.448306    0.017799    0.886214    0.000000
    14  Si    c     0.057692    0.028435    0.896356    0.000000
    15  Si    c     0.158671    0.303116    0.258655    0.000000
    16  Si    c     0.840240    0.301119    0.727199    0.000000
    17  Si    c     0.839488    0.702876    0.697361    0.000000
    18  Si    c     0.661291    0.299456    0.729892    0.000000
    19  Si    c     0.166485    0.703895    0.286605    0.000000
    20  Si    c     0.334263    0.271337    0.258726    0.000000
    21  Si    c     0.841375    0.739103    0.999149    0.000000
    22  Si    c     0.168393    0.739929    0.985121    0.000000
    23  Si    c     0.348215    0.717387    0.986418    0.000000
    24  Si    c     0.662504    0.740862    0.004690    0.000000
    25  O3    c     0.100327    0.188408    0.337920    0.000000
    26  O1    c     0.411698    0.786233    0.386857    0.000000
    27  O3    c     0.891611    0.177488    0.639829    0.000000
    28  O3    c     0.597555    0.830690    0.604037    0.000000
    29  O3    c     0.896834    0.813885    0.611673    0.000000
    30  O2    c     0.612515    0.161983    0.647020    0.000000
    31  O3    c     0.111514    0.819413    0.374059    0.000000
    32  O3    c     0.380563    0.129282    0.338914    0.000000
    33  O1    c     0.020259    0.021990    0.528094    0.000000
    34  O3    c     0.490462    0.049101    0.523945    0.000000
    35  O3    c     0.972467    0.974325    0.272124    0.000000
    36  O3    c     0.528693    0.986560    0.267098    0.000000
    37  O3    c     0.997613    0.967348    0.790328    0.000000
    38  O2    c     0.506972    0.980914    0.771373    0.000000
    39  O3    c     0.601589    0.221604    0.136611    0.000000
    40  O2    c     0.878892    0.894913    0.079514    0.000000
    41  O3    c     0.398692    0.189243    0.857657    0.000000
    42  O2    c     0.131220    0.897527    0.903672    0.000000
    43  O2    c     0.391845    0.853158    0.895300    0.000000
    44  O3    c     0.090311    0.218423    0.864321    0.000000
    45  O2    c     0.625654    0.892126    0.091105    0.000000
    46  O3    c     0.906875    0.219274    0.132618    0.000000
    47  O2    c     0.492784    0.042829    0.022859    0.000000
    48  O2    c     0.017909    0.024887    0.037545    0.000000
    49  O2    c     0.137793    0.505357    0.283762    0.000000
    50  O3    c     0.369064    0.461069    0.286208    0.000000
    51  O2    c     0.863872    0.500757    0.700962    0.000000
    52  O3    c     0.631962    0.491622    0.694607    0.000000
    53  O2    c     0.246065    0.268551    0.307756    0.000000
    54  O3    c     0.253348    0.711864    0.339264    0.000000
    55  O2    c     0.750503    0.279545    0.690201    0.000000
    56  O3    c     0.752964    0.721843    0.644234    0.000000
    57  O3    c     0.154762    0.262795    0.106265    0.000000
    58  O3    c     0.359692    0.766632    0.136410    0.000000
    59  O3    c     0.853010    0.256892    0.878563    0.000000
    60  O3    c     0.652903    0.786602    0.854063    0.000000
    61  O2    c     0.844708    0.781051    0.844919    0.000000
    62  O3    c     0.653705    0.262511    0.882233    0.000000
    63  O2    c     0.162176    0.779926    0.139192    0.000000
    64  O3    c     0.336367    0.230887    0.105745    0.000000
    65  O3    c     0.626589    0.555146    0.038452    0.000000
    66  O3    c     0.879197    0.554213    0.032461    0.000000
    67  O3    c     0.377908    0.524123    0.957548    0.000000
    68  O3    c     0.128223    0.559546    0.947601    0.000000
    69  O1    c     0.754258    0.329261    0.090105    0.000000
    70  O2    c     0.752722    0.721878    0.040844    0.000000
    71  O1    c     0.247379    0.321427    0.888880    0.000000
    72  O2    c     0.257670    0.718369    0.948626    0.000000
    73  O3    s     0.102512    0.184797    0.332288    0.000000
    74  O1    s     0.409834    0.792902    0.378522    0.000000
    75  O3    s     0.891075    0.175963    0.649168    0.000000
    76  O3    s     0.598128    0.837206    0.614400    0.000000
    77  O3    s     0.895253    0.816704    0.622675    0.000000
    78  O2    s     0.611316    0.160653    0.655019    0.000000
    79  O3    s     0.112432    0.821984    0.364767    0.000000
    80  O3    s     0.381837    0.132319    0.333345    0.000000
    81  O1    s     0.017099    0.018207    0.525113    0.000000
    82  O3    s     0.493853    0.039464    0.523458    0.000000
    83  O3    s     0.975906    0.981758    0.265734    0.000000
    84  O3    s     0.525838    0.991610    0.261571    0.000000
    85  O3    s     0.000337    0.976469    0.789553    0.000000
    86  O2    s     0.505001    0.988000    0.769907    0.000000
    87  O3    s     0.602487    0.213310    0.127875    0.000000
    88  O2    s     0.881628    0.891630    0.075796    0.000000
    89  O3    s     0.398808    0.182689    0.867917    0.000000
    90  O2    s     0.127808    0.893670    0.911871    0.000000
    91  O2    s     0.393065    0.855761    0.904403    0.000000
    92  O3    s     0.092318    0.210139    0.873884    0.000000
    93  O2    s     0.622875    0.890605    0.085363    0.000000
    94  O3    s     0.905574    0.210562    0.124431    0.000000
    95  O2    s     0.495413    0.039296    0.019536    0.000000
    96  O2    s     0.014158    0.025540    0.032536    0.000000
    97  O2    s     0.143023    0.505404    0.281439    0.000000
    98  O3    s     0.363914    0.460734    0.283980    0.000000
    99  O2    s     0.858793    0.501497    0.703312    0.000000
   100  O3    s     0.637104    0.490292    0.698269    0.000000
   101  O2    s     0.246090    0.272419    0.297692    0.000000
   102  O3    s     0.252352    0.708450    0.330302    0.000000
   103  O2    s     0.750603    0.283962    0.698248    0.000000
   104  O3    s     0.753894    0.718698    0.653653    0.000000
   105  O3    s     0.155284    0.273294    0.108957    0.000000
   106  O3    s     0.357638    0.755146    0.133363    0.000000
   107  O3    s     0.851287    0.267734    0.876072    0.000000
   108  O3    s     0.654407    0.775541    0.856753    0.000000
   109  O2    s     0.843856    0.769083    0.846246    0.000000
   110  O3    s     0.655004    0.272622    0.879507    0.000000
   111  O2    s     0.163258    0.768059    0.138097    0.000000
   112  O3    s     0.336383    0.241801    0.108406    0.000000
   113  O3    s     0.632715    0.556635    0.035278    0.000000
   114  O3    s     0.872997    0.556048    0.029422    0.000000
   115  O3    s     0.371910    0.526815    0.959829    0.000000
   116  O3    s     0.134311    0.560036    0.951314    0.000000
   117  O1    s     0.754137    0.331267    0.081899    0.000000
   118  O2    s     0.752689    0.725509    0.032562    0.000000
   119  O1    s     0.247454    0.322839    0.898142    0.000000
   120  O2    s     0.257483    0.720417    0.956525    0.000000
--------------------------------------------------------------------------------

  Final Cartesian lattice vectors (Angstroms) :

       17.402922    0.057763   -0.078460
        0.025461    7.695565   -0.003302
       -0.045945   -0.002614   10.256191


  Final cell parameters and derivatives :

--------------------------------------------------------------------------------
       a           17.403195 Angstrom     dE/de1(xx)     0.004942 eV/strain
       b            7.695608 Angstrom     dE/de2(yy)     0.003081 eV/strain
       c           10.256294 Angstrom     dE/de3(zz)     0.005916 eV/strain
       alpha       90.040042 Degrees      dE/de4(yz)    -0.000646 eV/strain
       beta        90.515023 Degrees      dE/de5(xz)    -0.000725 eV/strain
       gamma       89.620156 Degrees      dE/de6(xy)    -0.000774 eV/strain
--------------------------------------------------------------------------------

  Primitive cell volume =          1373.520708 Angs**3

  Density of cell =      2.227965 g/cm**3

  Non-primitive cell volume =          1373.520708 Angs**3


  Final internal derivatives :

--------------------------------------------------------------------------------
   No.  Atomic          a             b             c           Radius
        Label          (eV)          (eV)          (eV)        (eV/Angs)
--------------------------------------------------------------------------------
      1 Ge    c       0.000000      0.000000      0.000000      0.000000
      2 Ge    c       0.000410     -0.000067     -0.000160      0.000000
      3 Ge    c      -0.001021     -0.000049      0.000479      0.000000
      4 Ge    c      -0.002472     -0.002008     -0.001270      0.000000
      5 Ge    c       0.000783      0.001022     -0.001237      0.000000
      6 Ge    c       0.002090     -0.000305      0.004106      0.000000
      7 Ge    c       0.002249      0.000313     -0.001354      0.000000
      8 Ge    c      -0.001927     -0.000086     -0.000746      0.000000
      9 Ge    c       0.001478      0.001262     -0.000270      0.000000
     10 Si    c       0.000775      0.000012      0.000821      0.000000
     11 Si    c      -0.003106      0.000494     -0.000254      0.000000
     12 Si    c      -0.000981     -0.001099      0.000359      0.000000
     13 Si    c       0.000399     -0.000418      0.000082      0.000000
     14 Si    c       0.000662     -0.000372     -0.000443      0.000000
     15 Si    c       0.001436      0.001096      0.001672      0.000000
     16 Si    c       0.002331      0.000486     -0.000543      0.000000
     17 Si    c       0.000482     -0.000285      0.001084      0.000000
     18 Si    c      -0.001907     -0.002989     -0.004984      0.000000
     19 Si    c       0.003418     -0.000440     -0.000765      0.000000
     20 Si    c       0.000316      0.000036      0.003219      0.000000
     21 Si    c       0.000005     -0.000036     -0.000138      0.000000
     22 Si    c      -0.000231     -0.000477      0.000464      0.000000
     23 Si    c       0.000977     -0.001001      0.001472      0.000000
     24 Si    c       0.004207     -0.001494      0.001326      0.000000
     25 O3    c      -0.000793     -0.000754      0.000616      0.000000
     26 O1    c       0.000420      0.000378      0.000276      0.000000
     27 O3    c      -0.001558      0.000661      0.000150      0.000000
     28 O3    c       0.000196     -0.000065      0.000045      0.000000
     29 O3    c      -0.000278     -0.000392     -0.000483      0.000000
     30 O2    c       0.000743      0.000538      0.000317      0.000000
     31 O3    c       0.000193     -0.000095      0.000374      0.000000
     32 O3    c      -0.002898      0.000880     -0.001370      0.000000
     33 O1    c       0.002163      0.000223     -0.000980      0.000000
     34 O3    c      -0.000315      0.000171     -0.000175      0.000000
     35 O3    c      -0.000567     -0.000091      0.000127      0.000000
     36 O3    c      -0.001874     -0.000248      0.002037      0.000000
     37 O3    c      -0.000881     -0.000291      0.000119      0.000000
     38 O2    c       0.001069     -0.000088     -0.000327      0.000000
     39 O3    c       0.002066      0.001443      0.000125      0.000000
     40 O2    c      -0.001537     -0.000514     -0.000932      0.000000
     41 O3    c      -0.001272      0.000300     -0.000230      0.000000
     42 O2    c      -0.000207      0.000134     -0.000148      0.000000
     43 O2    c      -0.000578      0.000003     -0.000248      0.000000
     44 O3    c       0.000346      0.000516     -0.000222      0.000000
     45 O2    c       0.002124      0.001236      0.001701      0.000000
     46 O3    c      -0.000755      0.001221      0.000720      0.000000
     47 O2    c       0.000105     -0.000219     -0.000418      0.000000
     48 O2    c       0.001588     -0.000021     -0.000137      0.000000
     49 O2    c       0.000949     -0.000229     -0.001456      0.000000
     50 O3    c      -0.002498      0.003130     -0.003274      0.000000
     51 O2    c       0.000203      0.000464     -0.000027      0.000000
     52 O3    c      -0.006662      0.004839     -0.003826      0.000000
     53 O2    c      -0.000738      0.000560     -0.000475      0.000000
     54 O3    c      -0.000353     -0.000947     -0.001503      0.000000
     55 O2    c       0.008519     -0.000880     -0.001157      0.000000
     56 O3    c      -0.000479      0.000182     -0.000873      0.000000
     57 O3    c      -0.001948     -0.000558     -0.000562      0.000000
     58 O3    c      -0.004475     -0.001674     -0.000358      0.000000
     59 O3    c       0.002482     -0.000661      0.000862      0.000000
     60 O3    c      -0.002675      0.002702     -0.005135      0.000000
     61 O2    c       0.000020     -0.000467     -0.000152      0.000000
     62 O3    c      -0.008445     -0.002769      0.007164      0.000000
     63 O2    c       0.001263     -0.000630      0.001166      0.000000
     64 O3    c       0.001661     -0.000927      0.000467      0.000000
     65 O3    c      -0.005865     -0.000524      0.001470      0.000000
     66 O3    c      -0.000538     -0.000737     -0.000127      0.000000
     67 O3    c      -0.003200      0.002834      0.001914      0.000000
     68 O3    c       0.001242      0.002026      0.000880      0.000000
     69 O1    c      -0.002627      0.000041      0.001032      0.000000
     70 O2    c       0.000261     -0.000285      0.000052      0.000000
     71 O1    c       0.000433     -0.000585     -0.001070      0.000000
     72 O2    c       0.000730      0.000578      0.001045      0.000000
     73 O3    s       0.000541      0.000992      0.000078      0.000000
     74 O1    s      -0.000668     -0.000810     -0.000900      0.000000
     75 O3    s       0.000918     -0.000304     -0.000741      0.000000
     76 O3    s      -0.000775      0.000121     -0.000832      0.000000
     77 O3    s       0.000579     -0.000021     -0.000006      0.000000
     78 O2    s      -0.002433     -0.001551     -0.002217      0.000000
     79 O3    s       0.000443     -0.000329     -0.000726      0.000000
     80 O3    s       0.002513      0.000354      0.000185      0.000000
     81 O1    s      -0.000240      0.000033      0.000427      0.000000
     82 O3    s      -0.000152     -0.000088     -0.000261      0.000000
     83 O3    s       0.000838      0.000063      0.000356      0.000000
     84 O3    s      -0.000839     -0.000178     -0.000121      0.000000
     85 O3    s       0.001060     -0.000081      0.000044      0.000000
     86 O2    s      -0.001032      0.000070      0.000306      0.000000
     87 O3    s      -0.001601      0.000265      0.000698      0.000000
     88 O2    s      -0.000619     -0.000146      0.000298      0.000000
     89 O3    s       0.001134      0.000519      0.000301      0.000000
     90 O2    s       0.000605     -0.000226      0.000449      0.000000
     91 O2    s      -0.000189     -0.000809      0.001326      0.000000
     92 O3    s       0.000047     -0.000084      0.000438      0.000000
     93 O2    s       0.000243      0.000381      0.001417      0.000000
     94 O3    s       0.000378     -0.000148      0.000429      0.000000
     95 O2    s      -0.002458      0.000606     -0.000057      0.000000
     96 O2    s       0.001314      0.000372     -0.000060      0.000000
     97 O2    s       0.001262     -0.000047     -0.000875      0.000000
     98 O3    s      -0.000057     -0.001503      0.000358      0.000000
     99 O2    s       0.001671     -0.000005     -0.001011      0.000000
    100 O3    s      -0.003721     -0.000178     -0.002520      0.000000
    101 O2    s      -0.000626      0.001573      0.000056      0.000000
    102 O3    s       0.000162     -0.000894     -0.000699      0.000000
    103 O2    s       0.004457     -0.002057     -0.002858      0.000000
    104 O3    s       0.001780      0.000616     -0.001411      0.000000
    105 O3    s       0.002031      0.000866      0.000447      0.000000
    106 O3    s       0.001528     -0.000592     -0.000485      0.000000
    107 O3    s       0.000207     -0.000445      0.000521      0.000000
    108 O3    s      -0.000491      0.001211      0.000183      0.000000
    109 O2    s       0.001435      0.000637      0.000028      0.000000
    110 O3    s      -0.001843     -0.000215      0.001192      0.000000
    111 O2    s       0.000268     -0.000692      0.000035      0.000000
    112 O3    s      -0.000729      0.001445      0.000495      0.000000
    113 O3    s      -0.001236     -0.001508      0.001425      0.000000
    114 O3    s       0.001607      0.000472      0.000707      0.000000
    115 O3    s      -0.000896     -0.000434     -0.000326      0.000000
    116 O3    s       0.001033     -0.000712     -0.000119      0.000000
    117 O1    s       0.002759     -0.000773      0.001001      0.000000
    118 O2    s       0.004512      0.000716      0.001974      0.000000
    119 O1    s      -0.000288      0.000552      0.000715      0.000000
    120 O2    s       0.000730     -0.001083      0.000412      0.000000
--------------------------------------------------------------------------------
  Maximum abs         0.008519      0.004839      0.007164      0.000000
--------------------------------------------------------------------------------


  Born effective charge tensors : 

-------------------------------------------------------------------------------
  Atom             x           y             z
-------------------------------------------------------------------------------
    1 Ge    x       4.1092     -0.0102     -0.4321
            y      -0.1199      3.9214     -0.1162
            z      -0.3158      0.1303      4.7123
-------------------------------------------------------------------------------
    2 Ge    x       4.2013      0.3019      0.3433
            y      -0.0212      3.8787     -0.1325
            z       0.3381      0.2751      4.5495
-------------------------------------------------------------------------------
    3 Ge    x       4.2711      0.0363     -0.0518
            y       0.0108      3.8833      0.0598
            z      -0.8651     -0.1986      4.4583
-------------------------------------------------------------------------------
    4 Ge    x       3.9717      0.3374      0.1587
            y       0.3601      4.1399      0.3404
            z       0.2503      0.0488      3.4745
-------------------------------------------------------------------------------
    5 Ge    x       3.8999     -0.3677      0.0779
            y      -0.3035      4.1663     -0.2578
            z       0.1496      0.0048      3.3688
-------------------------------------------------------------------------------
    6 Ge    x       4.0275      0.3593     -0.1230
            y       0.2218      4.1840     -0.3325
            z      -0.1401     -0.0205      3.3291
-------------------------------------------------------------------------------
    7 Ge    x       4.0813     -0.4325     -0.1140
            y      -0.2078      4.1533      0.3120
            z      -0.1778     -0.0100      3.2714
-------------------------------------------------------------------------------
    8 Ge    x       4.0369      0.3845      0.0218
            y       0.3014      4.2169      0.2909
            z       0.1061      0.0003      3.2520
-------------------------------------------------------------------------------
    9 Ge    x       4.0117     -0.3568      0.1032
            y      -0.2385      4.2002     -0.3733
            z       0.1138     -0.0346      3.3177
-------------------------------------------------------------------------------
   10 Si    x       3.7207     -0.2551      0.1417
            y      -0.1126      3.4623      0.0993
            z       0.8010     -0.2647      3.9781
-------------------------------------------------------------------------------
   11 Si    x       3.6716      0.3462     -0.3897
            y       0.1036      3.5465      0.0223
            z      -0.4955     -0.2864      3.5512
-------------------------------------------------------------------------------
   12 Si    x       3.6709     -0.3590      0.4885
            y      -0.0395      3.5586      0.0487
            z       0.4751     -0.2786      3.4747
-------------------------------------------------------------------------------
   13 Si    x       3.6231     -0.1993     -0.0245
            y      -0.1345      3.4651     -0.1251
            z      -0.5446      0.0990      3.0296
-------------------------------------------------------------------------------
   14 Si    x       3.8006      0.4225      0.1847
            y       0.0338      3.5579     -0.0493
            z       0.7510      0.2380      3.1901
-------------------------------------------------------------------------------
   15 Si    x       3.4232      0.4084     -0.1420
            y       0.3939      3.6053     -0.2320
            z      -0.2818     -0.0956      3.2454
-------------------------------------------------------------------------------
   16 Si    x       3.3910     -0.4278     -0.1443
            y      -0.3278      3.6405      0.2675
            z      -0.1764      0.1094      3.2464
-------------------------------------------------------------------------------
   17 Si    x       3.7045      0.4052     -0.0750
            y       0.3471      3.5723     -0.3528
            z      -0.1562     -0.1094      2.9959
-------------------------------------------------------------------------------
   18 Si    x       3.2738      0.2589      0.0570
            y       0.0803      3.8034     -0.0146
            z       0.1083     -0.0824      3.1481
-------------------------------------------------------------------------------
   19 Si    x       3.6721     -0.4070     -0.1148
            y      -0.3299      3.5818      0.3622
            z      -0.1745      0.1424      3.0174
-------------------------------------------------------------------------------
   20 Si    x       3.4148     -0.4351      0.1480
            y      -0.1572      3.9809     -0.1888
            z       0.2690     -0.1156      3.2925
-------------------------------------------------------------------------------
   21 Si    x       3.2467      0.3166      0.1466
            y      -0.0662      3.7179      0.1014
            z       0.1727      0.0200      2.7940
-------------------------------------------------------------------------------
   22 Si    x       3.2733     -0.3237      0.1733
            y       0.0864      3.6715     -0.0685
            z       0.1552      0.0308      2.7471
-------------------------------------------------------------------------------
   23 Si    x       3.3731      0.3041     -0.1837
            y       0.0534      3.7844     -0.0516
            z      -0.1699      0.0967      3.0583
-------------------------------------------------------------------------------
   24 Si    x       3.3155     -0.3364     -0.1395
            y       0.0216      3.7553     -0.0090
            z      -0.1567     -0.0708      3.1056
-------------------------------------------------------------------------------
   25 O3    x      -2.0477     -0.9629      0.5286
            y      -0.9314     -2.3665      0.5786
            z       0.5256      0.5324     -1.5807
-------------------------------------------------------------------------------
   26 O1    x      -2.0960     -0.9466     -0.4675
            y      -0.9258     -2.5352     -0.3653
            z      -0.5183     -0.3844     -1.7071
-------------------------------------------------------------------------------
   27 O3    x      -2.0198      0.9548      0.4064
            y       0.9478     -2.3667     -0.4856
            z       0.5015     -0.4604     -1.5471
-------------------------------------------------------------------------------
   28 O3    x      -1.9542      0.9091     -0.2181
            y       0.9027     -2.4162      0.1721
            z      -0.3435      0.2000     -1.5480
-------------------------------------------------------------------------------
   29 O3    x      -2.0256     -0.9273      0.3538
            y      -0.9261     -2.2707      0.3309
            z       0.4866      0.3595     -1.5967
-------------------------------------------------------------------------------
   30 O2    x      -1.7313     -0.6867     -0.2602
            y      -0.6955     -1.9177     -0.3099
            z      -0.3446     -0.2686     -1.3239
-------------------------------------------------------------------------------
   31 O3    x      -2.0252      0.9390      0.4848
            y       0.9541     -2.2992     -0.4571
            z       0.5191     -0.4763     -1.6076
-------------------------------------------------------------------------------
   32 O3    x      -2.1251      0.9344     -0.5472
            y       0.9517     -2.2791      0.5917
            z      -0.5705      0.5409     -1.6098
-------------------------------------------------------------------------------
   33 O1    x      -2.1164     -0.0350      1.1594
            y       0.0008     -1.2950     -0.0147
            z       1.4007     -0.0074     -3.5745
-------------------------------------------------------------------------------
   34 O3    x      -1.9428     -0.0040     -1.0272
            y       0.0343     -1.2273     -0.0107
            z      -1.2807     -0.0659     -3.2074
-------------------------------------------------------------------------------
   35 O3    x      -1.9857      0.0812     -0.8434
            y       0.0289     -1.2565      0.1373
            z      -0.8357      0.2153     -2.6872
-------------------------------------------------------------------------------
   36 O3    x      -1.9776     -0.1626      0.8914
            y      -0.0670     -1.2318      0.1690
            z       0.9351      0.2559     -2.7950
-------------------------------------------------------------------------------
   37 O3    x      -2.0987     -0.1930     -0.9907
            y      -0.1180     -1.2929     -0.1241
            z      -0.9659     -0.1608     -2.5401
-------------------------------------------------------------------------------
   38 O2    x      -1.7218      0.0301      0.7012
            y       0.0087     -1.1474      0.0166
            z       0.6764      0.0192     -2.1299
-------------------------------------------------------------------------------
   39 O3    x      -1.9085     -0.9127      0.3558
            y      -0.8422     -2.5345      0.3299
            z       0.3606      0.3166     -1.4205
-------------------------------------------------------------------------------
   40 O2    x      -1.7187     -0.6550     -0.4354
            y      -0.6148     -1.9048     -0.4694
            z      -0.3867     -0.3767     -1.3108
-------------------------------------------------------------------------------
   41 O3    x      -2.0379      0.9681      0.2418
            y       0.9226     -2.4179     -0.2146
            z       0.3400     -0.2240     -1.3761
-------------------------------------------------------------------------------
   42 O2    x      -1.7780      0.6635     -0.2539
            y       0.6368     -1.8871      0.3233
            z      -0.3188      0.2690     -1.2118
-------------------------------------------------------------------------------
   43 O2    x      -1.7276     -0.7048      0.3178
            y      -0.6480     -1.9264      0.3575
            z       0.3639      0.3108     -1.2460
-------------------------------------------------------------------------------
   44 O3    x      -1.8992     -0.8822     -0.2071
            y      -0.7880     -2.5552     -0.1322
            z      -0.3266     -0.1683     -1.3485
-------------------------------------------------------------------------------
   45 O2    x      -1.7006      0.6495      0.3750
            y       0.6020     -1.9032     -0.4077
            z       0.3687     -0.3629     -1.3077
-------------------------------------------------------------------------------
   46 O3    x      -1.8923      0.8973     -0.3940
            y       0.8053     -2.5665      0.3618
            z      -0.3643      0.3313     -1.4081
-------------------------------------------------------------------------------
   47 O2    x      -1.8233     -0.0325     -0.5829
            y      -0.0061     -1.1767     -0.0482
            z      -0.3501     -0.0480     -1.7384
-------------------------------------------------------------------------------
   48 O2    x      -1.8609     -0.0116      0.5225
            y       0.0025     -1.1733     -0.0167
            z       0.3202     -0.0057     -1.6664
-------------------------------------------------------------------------------
   49 O2    x      -1.1976     -0.0282      0.0316
            y      -0.0393     -2.4841     -0.0926
            z       0.0652     -0.0577     -1.0802
-------------------------------------------------------------------------------
   50 O3    x      -1.3787     -0.1358     -0.0561
            y      -0.1978     -3.0733     -0.1975
            z      -0.0971     -0.1238     -1.1875
-------------------------------------------------------------------------------
   51 O2    x      -1.1984     -0.0188      0.0388
            y      -0.0251     -2.4828      0.0995
            z       0.0673      0.0585     -1.0833
-------------------------------------------------------------------------------
   52 O3    x      -1.3467      0.0697     -0.0698
            y       0.0901     -3.1647      0.2234
            z      -0.1008      0.1487     -1.1801
-------------------------------------------------------------------------------
   53 O2    x      -2.3136      0.1160      0.0128
            y       0.0835     -1.2731      0.0569
            z      -0.0135      0.0398     -1.1191
-------------------------------------------------------------------------------
   54 O3    x      -2.9311      0.0709     -0.1173
            y       0.0287     -1.3453     -0.0821
            z      -0.1240     -0.0246     -1.2790
-------------------------------------------------------------------------------
   55 O2    x      -2.3889     -0.0552      0.0042
            y      -0.0525     -1.2637     -0.0509
            z       0.0070     -0.0283     -1.0771
-------------------------------------------------------------------------------
   56 O3    x      -2.9367      0.0380     -0.1015
            y       0.0584     -1.3412      0.0878
            z      -0.1077      0.0285     -1.2838
-------------------------------------------------------------------------------
   57 O3    x      -1.3110     -0.1345     -0.1428
            y      -0.1029     -1.4681     -0.0281
            z      -0.0653      0.0347     -2.5686
-------------------------------------------------------------------------------
   58 O3    x      -1.3382     -0.1723      0.0173
            y      -0.1299     -1.4586      0.0414
            z       0.0056      0.0637     -2.5454
-------------------------------------------------------------------------------
   59 O3    x      -1.3150      0.1461     -0.1822
            y       0.1103     -1.4844      0.0215
            z      -0.1159     -0.0422     -2.5541
-------------------------------------------------------------------------------
   60 O3    x      -1.3290      0.1700     -0.0515
            y       0.1096     -1.4336     -0.0145
            z      -0.0336     -0.0512     -2.5806
-------------------------------------------------------------------------------
   61 O2    x      -1.2049     -0.1419      0.0021
            y      -0.0805     -1.3324     -0.0961
            z      -0.0013     -0.1166     -2.0322
-------------------------------------------------------------------------------
   62 O3    x      -1.3032     -0.1435      0.1113
            y      -0.1047     -1.4461     -0.0464
            z       0.0663     -0.0864     -2.6056
-------------------------------------------------------------------------------
   63 O2    x      -1.1915      0.1289      0.0195
            y       0.0666     -1.3227      0.1112
            z       0.0186      0.1203     -2.0120
-------------------------------------------------------------------------------
   64 O3    x      -1.3250      0.1259      0.1549
            y       0.0661     -1.4583      0.0252
            z       0.0989      0.0719     -2.5631
-------------------------------------------------------------------------------
   65 O3    x      -1.4508     -0.1549      0.1146
            y      -0.1269     -3.0740      0.2286
            z       0.1343      0.1482     -1.1407
-------------------------------------------------------------------------------
   66 O3    x      -1.4459      0.1763     -0.1163
            y       0.1562     -3.0751      0.2496
            z      -0.1323      0.1700     -1.1484
-------------------------------------------------------------------------------
   67 O3    x      -1.4361      0.0946      0.0991
            y       0.0182     -3.1035     -0.2195
            z       0.1233     -0.1519     -1.1217
-------------------------------------------------------------------------------
   68 O3    x      -1.4528     -0.2043     -0.1288
            y      -0.2269     -3.0361     -0.2483
            z      -0.1479     -0.1778     -1.1531
-------------------------------------------------------------------------------
   69 O1    x      -3.1764      0.0012      0.0349
            y       0.0031     -1.4327      0.1033
            z       0.0199      0.0293     -1.3203
-------------------------------------------------------------------------------
   70 O2    x      -2.4191     -0.0066      0.0632
            y       0.0086     -1.2621     -0.0263
            z       0.0417     -0.0029     -1.0671
-------------------------------------------------------------------------------
   71 O1    x      -3.1244      0.1011      0.0036
            y       0.0733     -1.4272     -0.0946
            z       0.0157     -0.0176     -1.3615
-------------------------------------------------------------------------------
   72 O2    x      -2.4554      0.0764      0.0374
            y       0.0227     -1.2569      0.0352
            z       0.0467     -0.0026     -1.0541
-------------------------------------------------------------------------------




  Elastic Constant Matrix: (Units=GPa)

-------------------------------------------------------------------------------
  Indices      1         2         3         4         5         6    
-------------------------------------------------------------------------------
       1     48.2166   29.6456   15.6278    1.1569   -5.3226    7.2378
       2     29.6456   63.2935   12.6405    0.9977   -6.5457    6.7411
       3     15.6278   12.6405   19.9993    0.9393   -1.1070    4.1321
       4      1.1569    0.9977    0.9393    8.0651    0.2214    0.1552
       5     -5.3226   -6.5457   -1.1070    0.2214   11.1540    0.3944
       6      7.2378    6.7411    4.1321    0.1552    0.3944   12.5722
-------------------------------------------------------------------------------


  Elastic Compliance Matrix: (Units=1/GPa)

-------------------------------------------------------------------------------
  Indices      1         2         3         4         5         6    
-------------------------------------------------------------------------------
       1    0.036093 -0.011264 -0.018669 -0.001689  0.009108 -0.008868
       2   -0.011264  0.023324 -0.004462 -0.000879  0.008057 -0.004797
       3   -0.018669 -0.004462  0.069345 -0.004548 -0.004220 -0.009463
       4   -0.001689 -0.000879 -0.004548  0.124960 -0.004308  0.001532
       5    0.009108  0.008057 -0.004220 -0.004308  0.098792 -0.011222
       6   -0.008868 -0.004797 -0.009463  0.001532 -0.011222  0.090661
-------------------------------------------------------------------------------

  Mechanical properties :

-------------------------------------------------------------------------------
  Convention :                    Reuss         Voigt         Hill
-------------------------------------------------------------------------------
  Bulk  Modulus (GPa)     =      16.67402      27.48190      22.07796
  Shear Modulus (GPa)     =       9.39926      11.26463      10.33195
-------------------------------------------------------------------------------
  Velocity S-wave (km/s)  =       2.05396       2.24856       2.15346
  Velocity P-wave (km/s)  =       3.62063       4.36765       4.01157
-------------------------------------------------------------------------------
  Compressibility (1/GPa) =    0.05997353
-------------------------------------------------------------------------------
  Stress axis :                     x             y             z
-------------------------------------------------------------------------------
  Youngs Moduli (GPa)     =      27.70592      42.87346      14.42062
-------------------------------------------------------------------------------
  Poissons Ratio (x)      =                     0.48293       0.26921
  Poissons Ratio (y)      =       0.31208                     0.06434
  Poissons Ratio (z)      =       0.51723       0.19130
-------------------------------------------------------------------------------


  Piezoelectric Strain Matrix: (Units=C/m**2)

-------------------------------------------------------------------------------
  Indices      1         2         3         4         5         6    
-------------------------------------------------------------------------------
       x    -0.26891  -0.10524  -0.17003   0.30253  -0.30363   0.24943
       y    -1.19053   0.13314   0.46804  -0.15493   0.26458  -0.25050
       z    -0.81104  -1.19039   1.01206   0.33001  -0.02750  -0.01725
-------------------------------------------------------------------------------


  Piezoelectric Stress Matrix: (Units=10**-11 C/N)

-------------------------------------------------------------------------------
  Indices      1         2         3         4         5         6    
-------------------------------------------------------------------------------
       x    -1.08346  -0.25756  -0.87562   4.08145  -3.66778   3.09829
       y    -4.83146   1.78967   5.60467  -2.11182   1.78722  -2.04267
       z    -3.54136  -2.35741   8.94127   3.91430  -2.51939   0.25761
-------------------------------------------------------------------------------


  Static dielectric constant tensor : 

-------------------------------------------------------------------------------
              x         y         z
-------------------------------------------------------------------------------
       x     4.87976   0.08038  -0.06926
       y     0.08038   4.94305  -0.02517
       z    -0.06926  -0.02517   3.96267
--------------------------------------------------------------------------------

  High frequency dielectric constant tensor : 

-------------------------------------------------------------------------------
              x         y         z
-------------------------------------------------------------------------------
       x     1.62380   0.00071  -0.00015
       y     0.00071   1.63250  -0.00089
       z    -0.00015  -0.00089   1.56988
-------------------------------------------------------------------------------

  Static refractive indices : 

-------------------------------------------------------------------------------
    1 =    1.98925      2 =    2.19707      3 =    2.23635
-------------------------------------------------------------------------------

  High frequency refractive indices : 

-------------------------------------------------------------------------------
    1 =    1.25294      2 =    1.27426      3 =    1.27772
-------------------------------------------------------------------------------


  Time to end of optimisation =       6.6234 seconds


  Peak dynamic memory used =       5.01 MB 


  Timing analysis for GULP :

--------------------------------------------------------------------------------
  Task / Subroutine                                          Time (Seconds)
--------------------------------------------------------------------------------
  Calculation of reciprocal space energy and derivatives          0.4207
  Calculation of real space energy and derivatives                4.4323
  Calculation of three-body energy and derivatives                0.1689
  Calculation and manipulation of Hessian matrix                  1.7954
  Calculation of matrix inversion                                 0.0223
  Global summation overhead                                       0.0001
--------------------------------------------------------------------------------
  Total CPU time                                                  6.6235
--------------------------------------------------------------------------------


  Dump file written as POSCAR_N0009.vasp.grs
  CIF file written as POSCAR_N0009.vasp.cif


  Job Finished at 11:29.12 31st October    2025                               

