********************************************************************************
*                       GENERAL UTILITY LATTICE PROGRAM                        *
*                                 Julian Gale                                  *
*                       Curtin Institute for Computation                       *
*                    School of Molecular and Life Sciences                     *
*                    Curtin University, Western Australia                      *
********************************************************************************
* Version = 6.1.2 * Last modified =   3rd November 2022                        *
********************************************************************************
*  optimise     - perform optimisation run                                     *
*  conp         - constant pressure calculation                                *
*  property     - calculate properties for final geometry                      *
********************************************************************************

  Job Started  at 11:29.59 31st October    2025                               

  Number of CPUs =     1


  Total number of configurations input =      1

********************************************************************************
*  Input for Configuration =   1 : POSCAR_N0014.vasp                           *
********************************************************************************

  Formula = Ge14Si10O48                                                 

  Number of irreducible atoms/shells =     120


  Total number atoms/shells =     120

  Dimensionality = 3               :  Bulk   



  Cartesian lattice vectors (Angstroms) :

       17.182800    0.000000    0.000000
        0.000000    7.513760    0.000000
        0.000000    0.000000   10.447700

  Cell parameters (Angstroms/Degrees):

  a =      17.1828    alpha =  90.0000
  b =       7.5138    beta  =  90.0000
  c =      10.4477    gamma =  90.0000

  Initial cell volume =        1348.875752 Angs**3

  Temperature of configuration =   0.00     K 

  Pressure of configuration =         0.000 GPa 

  Fractional coordinates of asymmetric unit :

--------------------------------------------------------------------------------
   No.  Atomic       x           y          z         Charge      Occupancy
        Label      (Frac)      (Frac)     (Frac)        (e)         (Frac)  
--------------------------------------------------------------------------------
      1 Ge    c    0.052090    0.000000    0.372270     4.00000    1.000000    
      2 Ge    c    0.447910 *  0.000000 *  0.372270 *   4.00000    1.000000    
      3 Ge    c    0.947910 *  0.000000 *  0.627730 *   4.00000    1.000000    
      4 Ge    c    0.552090 *  0.000000 *  0.627730 *   4.00000    1.000000    
      5 Ge    c    0.556730 *  0.000000 *  0.122130 *   4.00000    1.000000    
      6 Ge    c    0.943270 *  0.000000 *  0.122130 *   4.00000    1.000000    
      7 Ge    c    0.443270 *  0.000000 *  0.877870 *   4.00000    1.000000    
      8 Ge    c    0.056730 *  0.000000 *  0.877870 *   4.00000    1.000000    
      9 Ge    c    0.839810 *  0.706090 *  0.726560 *   4.00000    1.000000    
     10 Ge    c    0.660190 *  0.293910 *  0.726560 *   4.00000    1.000000    
     11 Ge    c    0.160190 *  0.706090 *  0.273440 *   4.00000    1.000000    
     12 Ge    c    0.339810 *  0.293910 *  0.273440 *   4.00000    1.000000    
     13 Ge    c    0.160660 *  0.294090 *  0.982560 *   4.00000    1.000000    
     14 Ge    c    0.839340 *  0.294090 *  0.017440 *   4.00000    1.000000    
     15 Si    c    0.160190 *  0.293910 *  0.273440 *   4.00000    1.000000    
     16 Si    c    0.339810 *  0.706090 *  0.273440 *   4.00000    1.000000    
     17 Si    c    0.839810 *  0.293910 *  0.726560 *   4.00000    1.000000    
     18 Si    c    0.660190 *  0.706090 *  0.726560 *   4.00000    1.000000    
     19 Si    c    0.660660 *  0.294090 *  0.017440 *   4.00000    1.000000    
     20 Si    c    0.839340 *  0.705910 *  0.017440 *   4.00000    1.000000    
     21 Si    c    0.339340 *  0.294090 *  0.982560 *   4.00000    1.000000    
     22 Si    c    0.160660 *  0.705910 *  0.982560 *   4.00000    1.000000    
     23 Si    c    0.339340 *  0.705910 *  0.982560 *   4.00000    1.000000    
     24 Si    c    0.660660 *  0.705910 *  0.017440 *   4.00000    1.000000    
     25 O3    c    0.106570 *  0.174340 *  0.366200 *   1.33043    1.000000    
     26 O3    c    0.393430 *  0.825660 *  0.366200 *   1.33043    1.000000    
     27 O3    c    0.893430 *  0.174340 *  0.633800 *   1.33043    1.000000    
     28 O3    c    0.606570 *  0.825660 *  0.633800 *   1.33043    1.000000    
     29 O1    c    0.893430 *  0.825660 *  0.633800 *   1.73396    1.000000    
     30 O1    c    0.606570 *  0.174340 *  0.633800 *   1.73396    1.000000    
     31 O1    c    0.106570 *  0.825660 *  0.366200 *   1.73396    1.000000    
     32 O1    c    0.393430 *  0.174340 *  0.366200 *   1.73396    1.000000    
     33 O1    c    0.000000 *  0.000000 *  0.500000 *   1.73396    1.000000    
     34 O1    c    0.500000 *  0.000000 *  0.500000 *   1.73396    1.000000    
     35 O1    c    0.994520 *  0.000000 *  0.250840 *   1.73396    1.000000    
     36 O1    c    0.505480 *  0.000000 *  0.250840 *   1.73396    1.000000    
     37 O1    c    0.005480 *  0.000000 *  0.749160 *   1.73396    1.000000    
     38 O1    c    0.494520 *  0.000000 *  0.749160 *   1.73396    1.000000    
     39 O3    c    0.610230 *  0.175520 *  0.115390 *   1.33043    1.000000    
     40 O3    c    0.889770 *  0.824480 *  0.115390 *   1.33043    1.000000    
     41 O3    c    0.389770 *  0.175520 *  0.884610 *   1.33043    1.000000    
     42 O3    c    0.110230 *  0.824480 *  0.884610 *   1.33043    1.000000    
     43 O3    c    0.389770 *  0.824480 *  0.884610 *   1.33043    1.000000    
     44 O1    c    0.110230 *  0.175520 *  0.884610 *   1.73396    1.000000    
     45 O3    c    0.610230 *  0.824480 *  0.115390 *   1.33043    1.000000    
     46 O1    c    0.889770 *  0.175520 *  0.115390 *   1.73396    1.000000    
     47 O1    c    0.500000 *  0.000000 *  0.000000 *   1.73396    1.000000    
     48 O1    c    0.000000 *  0.000000 *  0.000000 *   1.73396    1.000000    
     49 O3    c    0.151750 *  0.500000 *  0.313330 *   1.33043    1.000000    
     50 O3    c    0.348250 *  0.500000 *  0.313330 *   1.33043    1.000000    
     51 O3    c    0.848250 *  0.500000 *  0.686670 *   1.33043    1.000000    
     52 O3    c    0.651750 *  0.500000 *  0.686670 *   1.33043    1.000000    
     53 O3    c    0.250000 *  0.234950 *  0.285720 *   1.33043    1.000000    
     54 O3    c    0.250000 *  0.765050 *  0.285720 *   1.33043    1.000000    
     55 O3    c    0.750000 *  0.234950 *  0.714280 *   1.33043    1.000000    
     56 O3    c    0.750000 *  0.765050 *  0.714280 *   1.33043    1.000000    
     57 O3    c    0.131410 *  0.268650 *  0.127790 *   1.33043    1.000000    
     58 O2    c    0.368590 *  0.731350 *  0.127790 *   0.87073    1.000000    
     59 O3    c    0.868590 *  0.268650 *  0.872210 *   1.33043    1.000000    
     60 O2    c    0.631410 *  0.731350 *  0.872210 *   0.87073    1.000000    
     61 O3    c    0.868590 *  0.731350 *  0.872210 *   1.33043    1.000000    
     62 O3    c    0.631410 *  0.268650 *  0.872210 *   1.33043    1.000000    
     63 O3    c    0.131410 *  0.731350 *  0.127790 *   1.33043    1.000000    
     64 O3    c    0.368590 *  0.268650 *  0.127790 *   1.33043    1.000000    
     65 O2    c    0.653920 *  0.500000 *  0.058200 *   0.87073    1.000000    
     66 O3    c    0.846080 *  0.500000 *  0.058200 *   1.33043    1.000000    
     67 O2    c    0.346080 *  0.500000 *  0.941800 *   0.87073    1.000000    
     68 O3    c    0.153920 *  0.500000 *  0.941800 *   1.33043    1.000000    
     69 O3    c    0.750000 *  0.231060 *  0.027050 *   1.33043    1.000000    
     70 O2    c    0.750000 *  0.768940 *  0.027050 *   0.87073    1.000000    
     71 O3    c    0.250000 *  0.231060 *  0.972950 *   1.33043    1.000000    
     72 O2    c    0.250000 *  0.768940 *  0.972950 *   0.87073    1.000000    
     73 O3    s    0.106570 *  0.174340 *  0.366200 *  -3.33043    1.000000    
     74 O3    s    0.393430 *  0.825660 *  0.366200 *  -3.33043    1.000000    
     75 O3    s    0.893430 *  0.174340 *  0.633800 *  -3.33043    1.000000    
     76 O3    s    0.606570 *  0.825660 *  0.633800 *  -3.33043    1.000000    
     77 O1    s    0.893430 *  0.825660 *  0.633800 *  -3.73396    1.000000    
     78 O1    s    0.606570 *  0.174340 *  0.633800 *  -3.73396    1.000000    
     79 O1    s    0.106570 *  0.825660 *  0.366200 *  -3.73396    1.000000    
     80 O1    s    0.393430 *  0.174340 *  0.366200 *  -3.73396    1.000000    
     81 O1    s    0.000000 *  0.000000 *  0.500000 *  -3.73396    1.000000    
     82 O1    s    0.500000 *  0.000000 *  0.500000 *  -3.73396    1.000000    
     83 O1    s    0.994520 *  0.000000 *  0.250840 *  -3.73396    1.000000    
     84 O1    s    0.505480 *  0.000000 *  0.250840 *  -3.73396    1.000000    
     85 O1    s    0.005480 *  0.000000 *  0.749160 *  -3.73396    1.000000    
     86 O1    s    0.494520 *  0.000000 *  0.749160 *  -3.73396    1.000000    
     87 O3    s    0.610230 *  0.175520 *  0.115390 *  -3.33043    1.000000    
     88 O3    s    0.889770 *  0.824480 *  0.115390 *  -3.33043    1.000000    
     89 O3    s    0.389770 *  0.175520 *  0.884610 *  -3.33043    1.000000    
     90 O3    s    0.110230 *  0.824480 *  0.884610 *  -3.33043    1.000000    
     91 O3    s    0.389770 *  0.824480 *  0.884610 *  -3.33043    1.000000    
     92 O1    s    0.110230 *  0.175520 *  0.884610 *  -3.73396    1.000000    
     93 O3    s    0.610230 *  0.824480 *  0.115390 *  -3.33043    1.000000    
     94 O1    s    0.889770 *  0.175520 *  0.115390 *  -3.73396    1.000000    
     95 O1    s    0.500000 *  0.000000 *  0.000000 *  -3.73396    1.000000    
     96 O1    s    0.000000 *  0.000000 *  0.000000 *  -3.73396    1.000000    
     97 O3    s    0.151750 *  0.500000 *  0.313330 *  -3.33043    1.000000    
     98 O3    s    0.348250 *  0.500000 *  0.313330 *  -3.33043    1.000000    
     99 O3    s    0.848250 *  0.500000 *  0.686670 *  -3.33043    1.000000    
    100 O3    s    0.651750 *  0.500000 *  0.686670 *  -3.33043    1.000000    
    101 O3    s    0.250000 *  0.234950 *  0.285720 *  -3.33043    1.000000    
    102 O3    s    0.250000 *  0.765050 *  0.285720 *  -3.33043    1.000000    
    103 O3    s    0.750000 *  0.234950 *  0.714280 *  -3.33043    1.000000    
    104 O3    s    0.750000 *  0.765050 *  0.714280 *  -3.33043    1.000000    
    105 O3    s    0.131410 *  0.268650 *  0.127790 *  -3.33043    1.000000    
    106 O2    s    0.368590 *  0.731350 *  0.127790 *  -2.87073    1.000000    
    107 O3    s    0.868590 *  0.268650 *  0.872210 *  -3.33043    1.000000    
    108 O2    s    0.631410 *  0.731350 *  0.872210 *  -2.87073    1.000000    
    109 O3    s    0.868590 *  0.731350 *  0.872210 *  -3.33043    1.000000    
    110 O3    s    0.631410 *  0.268650 *  0.872210 *  -3.33043    1.000000    
    111 O3    s    0.131410 *  0.731350 *  0.127790 *  -3.33043    1.000000    
    112 O3    s    0.368590 *  0.268650 *  0.127790 *  -3.33043    1.000000    
    113 O2    s    0.653920 *  0.500000 *  0.058200 *  -2.87073    1.000000    
    114 O3    s    0.846080 *  0.500000 *  0.058200 *  -3.33043    1.000000    
    115 O2    s    0.346080 *  0.500000 *  0.941800 *  -2.87073    1.000000    
    116 O3    s    0.153920 *  0.500000 *  0.941800 *  -3.33043    1.000000    
    117 O3    s    0.750000 *  0.231060 *  0.027050 *  -3.33043    1.000000    
    118 O2    s    0.750000 *  0.768940 *  0.027050 *  -2.87073    1.000000    
    119 O3    s    0.250000 *  0.231060 *  0.972950 *  -3.33043    1.000000    
    120 O2    s    0.250000 *  0.768940 *  0.972950 *  -2.87073    1.000000    
--------------------------------------------------------------------------------



********************************************************************************
*  General input information                                                   *
********************************************************************************

  Species output for all configurations : 

--------------------------------------------------------------------------------
  Species    Type    Atomic    Atomic    Charge       Radii (Angs)     Library
                     Number     Mass       (e)     Cova   Ionic  VDW   Symbol
--------------------------------------------------------------------------------
    Ge       Core       32      72.61   4.000000   1.170  0.000  1.750 Ge       
    Si       Core       14      28.09   4.000000   1.200  0.000  2.100 Si       
    O1       Core        8      16.00   1.733957   0.730  0.000  1.360 O1       
    O2       Core        8      16.00   0.870733   0.730  0.000  1.360 O2       
    O3       Core        8      16.00   1.330431   0.730  0.000  1.360 O3       
    O1       Shell       8       0.00  -3.733957   0.730  0.000  0.000 O1       
    O2       Shell       8       0.00  -2.870733   0.730  0.000  0.000 O2       
    O3       Shell       8       0.00  -3.330431   0.730  0.000  0.000 O3       
--------------------------------------------------------------------------------


  Lattice summation method               =    Ewald          (3-D)
                                         =    Parry          (2-D)
                                         =    Saunders et al (1-D)
  Accuracy factor for lattice sums       =   12.000


  Analytic derivatives to be used

  Time limit = Infinity

  Maximum range for interatomic potentials =    100000.000000 Angstroms

  General interatomic potentials :

--------------------------------------------------------------------------------
Atom  Types   Potential      Parameter       Value         Units   Cutoffs(Ang)
  1     2                                                            Min /  Max 
--------------------------------------------------------------------------------
Si   c O1   s Buckingham    Buckingham A     1315.2478    eV        0.000 16.000
                            Buckingham rho  0.31775900    Ang       
                            Buckingham C     10.141118    eV*Ang^6  
--------------------------------------------------------------------------------
Si   c O2   s Buckingham    Buckingham A     1315.2478    eV        0.000 16.000
                            Buckingham rho  0.31775900    Ang       
                            Buckingham C     10.141118    eV*Ang^6  
--------------------------------------------------------------------------------
Si   c O3   s Buckingham    Buckingham A     1315.2478    eV        0.000 16.000
                            Buckingham rho  0.31775900    Ang       
                            Buckingham C     10.141118    eV*Ang^6  
--------------------------------------------------------------------------------
Ge   c O1   s Buckingham    Buckingham A     1497.3996    eV        0.000 16.000
                            Buckingham rho  0.32564600    Ang       
                            Buckingham C     16.808599    eV*Ang^6  
--------------------------------------------------------------------------------
Ge   c O2   s Buckingham    Buckingham A     1497.3996    eV        0.000 16.000
                            Buckingham rho  0.32564600    Ang       
                            Buckingham C     16.808599    eV*Ang^6  
--------------------------------------------------------------------------------
Ge   c O3   s Buckingham    Buckingham A     1497.3996    eV        0.000 16.000
                            Buckingham rho  0.32564600    Ang       
                            Buckingham C     16.808599    eV*Ang^6  
--------------------------------------------------------------------------------
O1   s O1   s Buckingham    Buckingham A     22764.000    eV        0.000 16.000
                            Buckingham rho  0.14900000    Ang       
                            Buckingham C     10.937044    eV*Ang^6  
--------------------------------------------------------------------------------
O1   s O2   s Buckingham    Buckingham A     22764.000    eV        0.000 16.000
                            Buckingham rho  0.14900000    Ang       
                            Buckingham C     10.937044    eV*Ang^6  
--------------------------------------------------------------------------------
O1   s O3   s Buckingham    Buckingham A     22764.000    eV        0.000 16.000
                            Buckingham rho  0.14900000    Ang       
                            Buckingham C     10.937044    eV*Ang^6  
--------------------------------------------------------------------------------
O2   s O2   s Buckingham    Buckingham A     22764.000    eV        0.000 16.000
                            Buckingham rho  0.14900000    Ang       
                            Buckingham C     10.937044    eV*Ang^6  
--------------------------------------------------------------------------------
O2   s O3   s Buckingham    Buckingham A     22764.000    eV        0.000 16.000
                            Buckingham rho  0.14900000    Ang       
                            Buckingham C     10.937044    eV*Ang^6  
--------------------------------------------------------------------------------
O3   s O3   s Buckingham    Buckingham A     22764.000    eV        0.000 16.000
                            Buckingham rho  0.14900000    Ang       
                            Buckingham C     10.937044    eV*Ang^6  
--------------------------------------------------------------------------------
O1   c O1   s Spring (c-s)  Spring k 2       180.31577    eV*Ang^-2 0.000  0.800
                            Spring k 4       0.0000000    eV*Ang^-4 
--------------------------------------------------------------------------------
O2   c O2   s Spring (c-s)  Spring k 2       75.969800    eV*Ang^-2 0.000  0.800
                            Spring k 4       0.0000000    eV*Ang^-4 
--------------------------------------------------------------------------------
O3   c O3   s Spring (c-s)  Spring k 2       128.14270    eV*Ang^-2 0.000  0.800
                            Spring k 4       0.0000000    eV*Ang^-4 
--------------------------------------------------------------------------------

  General Three-body potentials :

--------------------------------------------------------------------------------
  Atoms       Potential      Parameter       Value         Units   Cutoffs(Ang)
  1 / 2 / 3                                                          Min /  Max 
--------------------------------------------------------------------------------
Si    core    Harmonic      Three-body cnst  1.2614000    eV*rad^-2 0.000  1.900
O1    shel                  Three-body angl  109.47000    degrees   0.000  1.900
O1    shel                  Three-body k4    0.0000000    eV*rad^-4 0.000  3.500
                            Three-body k3    0.0000000    eV*rad^-3 
--------------------------------------------------------------------------------
Si    core    Harmonic      Three-body cnst  1.2614000    eV*rad^-2 0.000  1.900
O1    shel                  Three-body angl  109.47000    degrees   0.000  1.900
õ(1   shel                  Three-body k4    0.0000000    eV*rad^-4 0.000  3.500
                            Three-body k3    0.0000000    eV*rad^-3 
--------------------------------------------------------------------------------
Si    core    Harmonic      Three-body cnst  1.2614000    eV*rad^-2 0.000  1.900
õ(1   shel                  Three-body angl  109.47000    degrees   0.000  1.900
õ(1   shel                  Three-body k4    0.0000000    eV*rad^-4 0.000  3.500
                            Three-body k3    0.0000000    eV*rad^-3 
--------------------------------------------------------------------------------
Si    core    Harmonic      Three-body cnst  1.2614000    eV*rad^-2 0.000  1.900
O1    shel                  Three-body angl  109.47000    degrees   0.000  1.900
O2    shel                  Three-body k4    0.0000000    eV*rad^-4 0.000  3.500
                            Three-body k3    0.0000000    eV*rad^-3 
--------------------------------------------------------------------------------
Si    core    Harmonic      Three-body cnst  1.2614000    eV*rad^-2 0.000  1.900
O1    shel                  Three-body angl  109.47000    degrees   0.000  1.900
õ(2   shel                  Three-body k4    0.0000000    eV*rad^-4 0.000  3.500
                            Three-body k3    0.0000000    eV*rad^-3 
--------------------------------------------------------------------------------
Si    core    Harmonic      Three-body cnst  1.2614000    eV*rad^-2 0.000  1.900
O2    shel                  Three-body angl  109.47000    degrees   0.000  1.900
õ(1   shel                  Three-body k4    0.0000000    eV*rad^-4 0.000  3.500
                            Three-body k3    0.0000000    eV*rad^-3 
--------------------------------------------------------------------------------
Si    core    Harmonic      Three-body cnst  1.2614000    eV*rad^-2 0.000  1.900
õ(1   shel                  Three-body angl  109.47000    degrees   0.000  1.900
õ(2   shel                  Three-body k4    0.0000000    eV*rad^-4 0.000  3.500
                            Three-body k3    0.0000000    eV*rad^-3 
--------------------------------------------------------------------------------
Si    core    Harmonic      Three-body cnst  1.2614000    eV*rad^-2 0.000  1.900
O2    shel                  Three-body angl  109.47000    degrees   0.000  1.900
O2    shel                  Three-body k4    0.0000000    eV*rad^-4 0.000  3.500
                            Three-body k3    0.0000000    eV*rad^-3 
--------------------------------------------------------------------------------
Si    core    Harmonic      Three-body cnst  1.2614000    eV*rad^-2 0.000  1.900
O2    shel                  Three-body angl  109.47000    degrees   0.000  1.900
õ(2   shel                  Three-body k4    0.0000000    eV*rad^-4 0.000  3.500
                            Three-body k3    0.0000000    eV*rad^-3 
--------------------------------------------------------------------------------
Si    core    Harmonic      Three-body cnst  1.2614000    eV*rad^-2 0.000  1.900
õ(2   shel                  Three-body angl  109.47000    degrees   0.000  1.900
õ(2   shel                  Three-body k4    0.0000000    eV*rad^-4 0.000  3.500
                            Three-body k3    0.0000000    eV*rad^-3 
--------------------------------------------------------------------------------

********************************************************************************
*  Output for configuration   1 : POSCAR_N0014.vasp                            *
********************************************************************************


  Components of energy : 

--------------------------------------------------------------------------------
  Interatomic potentials     =         848.55395222 eV    
  Three-body potentials      =           0.00028630 eV    
  Monopole - monopole (real) =       -2676.00317478 eV    
  Monopole - monopole (recip)=       -1115.35404472 eV    
  Monopole - monopole (total)=       -3791.35721950 eV    
--------------------------------------------------------------------------------
  Total lattice energy       =       -2942.80298099 eV    
--------------------------------------------------------------------------------
  Total lattice energy       =         -283935.5028 kJ/(mole unit cells)
--------------------------------------------------------------------------------


  Number of variables =      363

  Maximum number of calculations  =          1000
  Maximum Hessian update interval =            10
  Maximum step size               =   0.100000000
  Maximum parameter tolerance     =   0.000010000
  Maximum function  tolerance     =   0.000010000
  Maximum gradient  tolerance     =   0.001000000
  Maximum gradient  component     =   0.010000000

  Symmetry not applied to optimisation

  Cell parameters to be optimised using strains

  Newton-Raphson optimiser to be used

  BFGS hessian update to be used

  Lower half triangular hessian to be used

  Minimiser to switch to RFO
  When gradient norm is less than     0.050000

  Dumpfile to be written after every cycle

  Start of bulk optimisation :

  Cycle:      0 Energy:     -2942.802981  Gnorm:      5.206800  CPU:    0.085
  ** Hessian calculated **
  Cycle:      1 Energy:     -2980.542924  Gnorm:      1.261521  CPU:    0.181
  ** Hessian calculated **
  Cycle:      2 Energy:     -2986.365160  Gnorm:      0.764902  CPU:    0.387
  ** Hessian calculated **
  Cycle:      3 Energy:     -2987.666290  Gnorm:      0.418737  CPU:    0.535
  Cycle:      4 Energy:     -2988.120597  Gnorm:      0.304265  CPU:    0.611
  Cycle:      5 Energy:     -2988.690020  Gnorm:      0.257178  CPU:    0.701
  Cycle:      6 Energy:     -2989.319701  Gnorm:      0.196428  CPU:    0.790
  Cycle:      7 Energy:     -2989.639173  Gnorm:      0.164668  CPU:    0.866
  Cycle:      8 Energy:     -2989.796478  Gnorm:      0.120254  CPU:    0.941
  Cycle:      9 Energy:     -2989.868347  Gnorm:      0.099338  CPU:    1.006
  Cycle:     10 Energy:     -2989.924669  Gnorm:      0.091082  CPU:    1.087
  Cycle:     11 Energy:     -2989.981271  Gnorm:      0.089199  CPU:    1.170
  Cycle:     12 Energy:     -2990.047054  Gnorm:      0.092344  CPU:    1.252
  ** Hessian calculated **
  Cycle:     13 Energy:     -2990.107942  Gnorm:      0.089765  CPU:    1.404
  Cycle:     14 Energy:     -2990.207197  Gnorm:      0.085244  CPU:    1.500
  Cycle:     15 Energy:     -2990.320054  Gnorm:      0.079267  CPU:    1.584
  Cycle:     16 Energy:     -2990.480301  Gnorm:      0.069937  CPU:    1.681
  Cycle:     17 Energy:     -2990.549824  Gnorm:      0.062306  CPU:    1.764
  Cycle:     18 Energy:     -2990.606042  Gnorm:      0.063530  CPU:    1.834
  ** Hessian calculated **
  Cycle:     19 Energy:     -2990.789214  Gnorm:      0.064806  CPU:    1.974
  Cycle:     20 Energy:     -2990.932707  Gnorm:      0.088758  CPU:    2.044
  Cycle:     21 Energy:     -2991.014369  Gnorm:      0.057160  CPU:    2.115
  Cycle:     22 Energy:     -2991.029284  Gnorm:      0.062338  CPU:    2.185
  ** Hessian calculated **
  Cycle:     23 Energy:     -2991.045631  Gnorm:      0.030529  CPU:    2.324
  ** Hessian has required structure
  Cycle:     24 Energy:     -2991.048582  Gnorm:      0.053478  CPU:    2.427
  ** Hessian has required structure
  Cycle:     25 Energy:     -2991.051768  Gnorm:      0.050042  CPU:    2.529
  ** Hessian has required structure
  Cycle:     26 Energy:     -2991.053152  Gnorm:      0.040727  CPU:    2.630
  ** Hessian has required structure
  Cycle:     27 Energy:     -2991.054483  Gnorm:      0.037761  CPU:    2.731
  ** Hessian has required structure
  Cycle:     28 Energy:     -2991.055545  Gnorm:      0.035009  CPU:    2.833
  ** Hessian has required structure
  Cycle:     29 Energy:     -2991.056403  Gnorm:      0.031664  CPU:    2.935
  ** Hessian has required structure
  Cycle:     30 Energy:     -2991.057033  Gnorm:      0.029938  CPU:    3.037
  ** Hessian has required structure
  Cycle:     31 Energy:     -2991.057775  Gnorm:      0.029137  CPU:    3.139
  ** Hessian has required structure
  Cycle:     32 Energy:     -2991.059022  Gnorm:      0.030314  CPU:    3.240
  ** Hessian has wrong structure
  ** Imaginary eigenvectors =   6
  ** Hessian has wrong structure
  ** Imaginary eigenvectors =   4
  Cycle:     33 Energy:     -2991.097974  Gnorm:      0.051705  CPU:    3.611
  ** Hessian has wrong structure
  ** Imaginary eigenvectors =   3
  ** Hessian has wrong structure
  ** Imaginary eigenvectors =   2
  Cycle:     34 Energy:     -2991.108693  Gnorm:      0.060477  CPU:    3.979
  ** Hessian has wrong structure
  ** Imaginary eigenvectors =   1
  ** Hessian has required structure
  Cycle:     35 Energy:     -2991.198816  Gnorm:      0.081833  CPU:    4.360
  ** Hessian has required structure
  Cycle:     36 Energy:     -2991.263060  Gnorm:      0.071964  CPU:    4.465
  ** Hessian has required structure
  Cycle:     37 Energy:     -2991.315659  Gnorm:      0.068296  CPU:    4.570
  ** Hessian has required structure
  Cycle:     38 Energy:     -2991.365789  Gnorm:      0.046958  CPU:    4.686
  ** Hessian has required structure
  Cycle:     39 Energy:     -2991.409766  Gnorm:      0.053436  CPU:    4.802
  ** Hessian has required structure
  Cycle:     40 Energy:     -2991.447651  Gnorm:      0.045896  CPU:    4.918
  ** Hessian has required structure
  Cycle:     41 Energy:     -2991.469634  Gnorm:      0.043020  CPU:    5.034
  ** Hessian has required structure
  Cycle:     42 Energy:     -2991.487254  Gnorm:      0.033241  CPU:    5.151
  ** Hessian has required structure
  Cycle:     43 Energy:     -2991.500375  Gnorm:      0.022331  CPU:    5.272
  ** Hessian has required structure
  Cycle:     44 Energy:     -2991.508575  Gnorm:      0.023158  CPU:    5.411
  ** Hessian has required structure
  Cycle:     45 Energy:     -2991.520264  Gnorm:      0.012405  CPU:    5.617
  ** Hessian has required structure
  Cycle:     46 Energy:     -2991.523834  Gnorm:      0.006558  CPU:    5.757
  ** Hessian has required structure
  Cycle:     47 Energy:     -2991.524996  Gnorm:      0.004451  CPU:    5.881
  ** Hessian has required structure
  Cycle:     48 Energy:     -2991.525692  Gnorm:      0.002696  CPU:    6.020
  ** Hessian has required structure
  Cycle:     49 Energy:     -2991.525935  Gnorm:      0.001417  CPU:    6.150
  ** Hessian has required structure
  Cycle:     50 Energy:     -2991.526042  Gnorm:      0.001329  CPU:    6.279
  ** Hessian has required structure
  Cycle:     51 Energy:     -2991.526103  Gnorm:      0.001015  CPU:    6.397
  ** Hessian has required structure
  Cycle:     52 Energy:     -2991.526175  Gnorm:      0.001227  CPU:    6.527
  ** Hessian has required structure
  Cycle:     53 Energy:     -2991.526291  Gnorm:      0.001700  CPU:    6.671
  ** Hessian has required structure
  Cycle:     54 Energy:     -2991.526451  Gnorm:      0.002864  CPU:    6.803
  ** Hessian has wrong structure
  ** Imaginary eigenvectors =   1
  Cycle:     55 Energy:     -2991.527472  Gnorm:      0.006909  CPU:    7.100
  ** Hessian has required structure
  Cycle:     56 Energy:     -2991.529136  Gnorm:      0.008825  CPU:    7.300
  ** Hessian has required structure
  Cycle:     57 Energy:     -2991.530639  Gnorm:      0.015243  CPU:    7.419
  ** Hessian has required structure
  Cycle:     58 Energy:     -2991.533043  Gnorm:      0.015831  CPU:    7.550
  ** Hessian has required structure
  Cycle:     59 Energy:     -2991.538865  Gnorm:      0.012733  CPU:    7.682
  ** Hessian has required structure
  Cycle:     60 Energy:     -2991.542893  Gnorm:      0.018289  CPU:    7.800
  ** Hessian has required structure
  Cycle:     61 Energy:     -2991.549003  Gnorm:      0.015353  CPU:    7.918
  ** Hessian has required structure
  Cycle:     62 Energy:     -2991.551651  Gnorm:      0.013422  CPU:    8.024
  ** Hessian has required structure
  Cycle:     63 Energy:     -2991.553842  Gnorm:      0.016295  CPU:    8.144
  ** Hessian has required structure
  Cycle:     64 Energy:     -2991.557389  Gnorm:      0.012403  CPU:    8.274
  ** Hessian has required structure
  Cycle:     65 Energy:     -2991.560548  Gnorm:      0.011980  CPU:    8.393
  ** Hessian has required structure
  Cycle:     66 Energy:     -2991.569248  Gnorm:      0.014610  CPU:    8.590
  ** Hessian has required structure
  Cycle:     67 Energy:     -2991.577299  Gnorm:      0.023530  CPU:    8.708
  ** Hessian has required structure
  Cycle:     68 Energy:     -2991.587185  Gnorm:      0.023824  CPU:    8.838
  ** Hessian has required structure
  Cycle:     69 Energy:     -2991.599978  Gnorm:      0.020725  CPU:    8.968
  ** Hessian has required structure
  Cycle:     70 Energy:     -2991.616919  Gnorm:      0.023413  CPU:    9.099
  ** Hessian has required structure
  Cycle:     71 Energy:     -2991.630365  Gnorm:      0.027477  CPU:    9.218
  ** Hessian has required structure
  Cycle:     72 Energy:     -2991.645227  Gnorm:      0.029680  CPU:    9.325
  ** Hessian has required structure
  Cycle:     73 Energy:     -2991.656220  Gnorm:      0.035019  CPU:    9.458
  ** Hessian has required structure
  Cycle:     74 Energy:     -2991.665150  Gnorm:      0.021252  CPU:    9.589
  ** Hessian has required structure
  Cycle:     75 Energy:     -2991.671377  Gnorm:      0.016377  CPU:    9.706
  ** Hessian has required structure
  Cycle:     76 Energy:     -2991.693119  Gnorm:      0.018907  CPU:    9.898
  ** Hessian has required structure
  Cycle:     77 Energy:     -2991.706453  Gnorm:      0.019781  CPU:   10.014
  ** Hessian has required structure
  Cycle:     78 Energy:     -2991.714733  Gnorm:      0.010166  CPU:   10.131
  ** Hessian has required structure
  Cycle:     79 Energy:     -2991.718530  Gnorm:      0.012712  CPU:   10.259
  ** Hessian has required structure
  Cycle:     80 Energy:     -2991.722004  Gnorm:      0.009398  CPU:   10.376
  ** Hessian has required structure
  Cycle:     81 Energy:     -2991.724145  Gnorm:      0.005682  CPU:   10.506
  ** Hessian has required structure
  Cycle:     82 Energy:     -2991.725451  Gnorm:      0.005163  CPU:   10.635
  ** Hessian has required structure
  Cycle:     83 Energy:     -2991.726221  Gnorm:      0.002626  CPU:   10.751
  ** Hessian has required structure
  Cycle:     84 Energy:     -2991.726650  Gnorm:      0.003640  CPU:   10.881
  ** Hessian has required structure
  Cycle:     85 Energy:     -2991.726860  Gnorm:      0.002714  CPU:   10.997
  ** Hessian has required structure
  Cycle:     86 Energy:     -2991.727129  Gnorm:      0.001506  CPU:   11.189
  ** Hessian has required structure
  Cycle:     87 Energy:     -2991.727195  Gnorm:      0.001004  CPU:   11.305
  ** Hessian has required structure
  Cycle:     88 Energy:     -2991.727225  Gnorm:      0.000632  CPU:   11.422
  ** Hessian has required structure
  Cycle:     89 Energy:     -2991.727243  Gnorm:      0.000340  CPU:   11.551
  ** Hessian has required structure
  Cycle:     90 Energy:     -2991.727249  Gnorm:      0.000152  CPU:   11.695
  ** Hessian has required structure
  Cycle:     91 Energy:     -2991.727249  Gnorm:      0.000123  CPU:   11.799
  ** Hessian has required structure
  Cycle:     92 Energy:     -2991.727249  Gnorm:      0.000115  CPU:   11.903
  ** Hessian has required structure
  Cycle:     93 Energy:     -2991.722510  Gnorm:      0.026586  CPU:   12.062
  ** Hessian has required structure
  Cycle:     94 Energy:     -2991.724322  Gnorm:      0.020898  CPU:   12.256
  ** Hessian has required structure
  Cycle:     95 Energy:     -2991.726201  Gnorm:      0.012503  CPU:   12.386
  ** Hessian has required structure
  Cycle:     96 Energy:     -2991.726987  Gnorm:      0.006256  CPU:   12.515
  ** Hessian has required structure
  Cycle:     97 Energy:     -2991.727182  Gnorm:      0.003130  CPU:   12.644
  ** Hessian has required structure
  Cycle:     98 Energy:     -2991.727225  Gnorm:      0.001878  CPU:   12.762
  ** Hessian has required structure
  Cycle:     99 Energy:     -2991.727244  Gnorm:      0.000939  CPU:   12.891
  ** Hessian has required structure
  Cycle:    100 Energy:     -2991.727247  Gnorm:      0.000657  CPU:   12.995
  ** Hessian has required structure
  Cycle:    101 Energy:     -2991.727248  Gnorm:      0.000460  CPU:   13.098
  ** Hessian has required structure
  Cycle:    102 Energy:     -2991.727249  Gnorm:      0.000322  CPU:   13.200
  ** Hessian has required structure
  Cycle:    103 Energy:     -2991.727249  Gnorm:      0.000226  CPU:   13.301
  ** Hessian has required structure
  Cycle:    104 Energy:     -2991.727249  Gnorm:      0.000158  CPU:   13.472
  ** Hessian has required structure
  Cycle:    105 Energy:     -2991.727249  Gnorm:      0.000149  CPU:   13.622
  ** Hessian has required structure
  Cycle:    106 Energy:     -2991.727249  Gnorm:      0.000145  CPU:   13.730
  ** Hessian has required structure
  Cycle:    107 Energy:     -2991.727249  Gnorm:      0.000143  CPU:   13.837
  ** Hessian has required structure
  Cycle:    108 Energy:     -2991.727249  Gnorm:      0.000143  CPU:   13.944
  ** Hessian has required structure
  Cycle:    109 Energy:     -2991.727249  Gnorm:      0.000121  CPU:   14.108
  ** Hessian has required structure
  Cycle:    110 Energy:     -2991.727249  Gnorm:      0.000084  CPU:   14.284
  ** Hessian has required structure


  **** Optimisation achieved ****


  Final energy =   -2991.72724896 eV      
  Final Gnorm  =       0.00005909

  Components of energy : 

--------------------------------------------------------------------------------
  Interatomic potentials     =         797.24646363 eV    
  Three-body potentials      =           0.01733342 eV    
  Monopole - monopole (real) =       -1801.89683884 eV    
  Monopole - monopole (recip)=       -1987.09420717 eV    
  Monopole - monopole (total)=       -3788.99104601 eV    
--------------------------------------------------------------------------------
  Total lattice energy       =       -2991.72724896 eV    
--------------------------------------------------------------------------------
  Total lattice energy       =         -288655.9468 kJ/(mole unit cells)
--------------------------------------------------------------------------------

  Final fractional coordinates of atoms :

--------------------------------------------------------------------------------
   No.  Atomic        x           y          z          Radius
        Label       (Frac)      (Frac)     (Frac)       (Angs) 
--------------------------------------------------------------------------------
     1  Ge    c     0.052090    0.000000    0.372270    0.000000
     2  Ge    c     0.457222    0.945385    0.367800    0.000000
     3  Ge    c     0.960711    0.955292    0.639817    0.000000
     4  Ge    c     0.556146    0.923164    0.629776    0.000000
     5  Ge    c     0.563028    0.992772    0.109093    0.000000
     6  Ge    c     0.955650    0.993925    0.106950    0.000000
     7  Ge    c     0.447426    0.952658    0.876574    0.000000
     8  Ge    c     0.074844    0.989835    0.866742    0.000000
     9  Ge    c     0.842930    0.660945    0.720721    0.000000
    10  Ge    c     0.680787    0.208193    0.757822    0.000000
    11  Ge    c     0.179296    0.711439    0.299295    0.000000
    12  Ge    c     0.332524    0.227055    0.285569    0.000000
    13  Ge    c     0.156194    0.323897    0.976873    0.000000
    14  Ge    c     0.853287    0.332501    0.059028    0.000000
    15  Si    c     0.152098    0.301028    0.277185    0.000000
    16  Si    c     0.357211    0.633738    0.306946    0.000000
    17  Si    c     0.851650    0.263950    0.748759    0.000000
    18  Si    c     0.661703    0.628886    0.725588    0.000000
    19  Si    c     0.681306    0.267550    0.059069    0.000000
    20  Si    c     0.839613    0.720786    0.021902    0.000000
    21  Si    c     0.335552    0.247467    0.982541    0.000000
    22  Si    c     0.186669    0.725779    0.997825    0.000000
    23  Si    c     0.361232    0.642306    0.008537    0.000000
    24  Si    c     0.659318    0.667318    0.015905    0.000000
    25  O3    c     0.089410    0.205513    0.359861    0.000000
    26  O3    c     0.421325    0.737017    0.383868    0.000000
    27  O3    c     0.922539    0.131820    0.730933    0.000000
    28  O3    c     0.602814    0.720158    0.630855    0.000000
    29  O1    c     0.899865    0.785351    0.626851    0.000000
    30  O1    c     0.619106    0.080732    0.676623    0.000000
    31  O1    c     0.125291    0.849363    0.395864    0.000000
    32  O1    c     0.377782    0.084390    0.381652    0.000000
    33  O1    c     0.983155    0.012406    0.487724    0.000000
    34  O1    c     0.528310    0.968236    0.476634    0.000000
    35  O1    c     0.007179    0.931605    0.234162    0.000000
    36  O1    c     0.492287    0.996556    0.220482    0.000000
    37  O1    c     0.046338    0.922905    0.717409    0.000000
    38  O1    c     0.473823    0.926076    0.719826    0.000000
    39  O3    c     0.626719    0.156931    0.146923    0.000000
    40  O3    c     0.867848    0.890644    0.096490    0.000000
    41  O3    c     0.374775    0.109787    0.884518    0.000000
    42  O3    c     0.157947    0.875979    0.907165    0.000000
    43  O3    c     0.422001    0.750838    0.933713    0.000000
    44  O1    c     0.096303    0.209272    0.878954    0.000000
    45  O3    c     0.609157    0.788079    0.110391    0.000000
    46  O1    c     0.928162    0.212852    0.114322    0.000000
    47  O1    c     0.523087    0.028242    0.962714    0.000000
    48  O1    c     0.003439    0.937330    0.969534    0.000000
    49  O3    c     0.139872    0.507409    0.295505    0.000000
    50  O3    c     0.371478    0.429471    0.318064    0.000000
    51  O3    c     0.866085    0.444988    0.679109    0.000000
    52  O3    c     0.657897    0.422442    0.720483    0.000000
    53  O3    c     0.236039    0.239643    0.322037    0.000000
    54  O3    c     0.271991    0.691287    0.354021    0.000000
    55  O3    c     0.774336    0.171617    0.701862    0.000000
    56  O3    c     0.746555    0.694533    0.694400    0.000000
    57  O3    c     0.139302    0.246684    0.128566    0.000000
    58  O2    c     0.365141    0.693001    0.159142    0.000000
    59  O3    c     0.836188    0.323814    0.896060    0.000000
    60  O2    c     0.635788    0.703773    0.868618    0.000000
    61  O3    c     0.866638    0.726963    0.874476    0.000000
    62  O3    c     0.678888    0.169529    0.919443    0.000000
    63  O3    c     0.178390    0.789671    0.145332    0.000000
    64  O3    c     0.339538    0.170881    0.124203    0.000000
    65  O2    c     0.647192    0.464699    0.044683    0.000000
    66  O3    c     0.874254    0.549509    0.089122    0.000000
    67  O2    c     0.378411    0.434734    0.987193    0.000000
    68  O3    c     0.139857    0.547454    0.974353    0.000000
    69  O3    c     0.765105    0.274200    0.120204    0.000000
    70  O2    c     0.748210    0.709825    0.029612    0.000000
    71  O3    c     0.250031    0.280284    0.935211    0.000000
    72  O2    c     0.275381    0.685482    0.961053    0.000000
    73  O3    s     0.092652    0.198496    0.352645    0.000000
    74  O3    s     0.417687    0.742618    0.375038    0.000000
    75  O3    s     0.918209    0.132021    0.726071    0.000000
    76  O3    s     0.605069    0.726687    0.640152    0.000000
    77  O1    s     0.900346    0.789343    0.634968    0.000000
    78  O1    s     0.619380    0.079098    0.679854    0.000000
    79  O1    s     0.124107    0.849667    0.386723    0.000000
    80  O1    s     0.379865    0.085906    0.372944    0.000000
    81  O1    s     0.986866    0.007034    0.490437    0.000000
    82  O1    s     0.524714    0.962947    0.479514    0.000000
    83  O1    s     0.006287    0.941911    0.233966    0.000000
    84  O1    s     0.495337    0.992379    0.222744    0.000000
    85  O1    s     0.042259    0.930310    0.723022    0.000000
    86  O1    s     0.477964    0.927899    0.725179    0.000000
    87  O3    s     0.627210    0.155218    0.135313    0.000000
    88  O3    s     0.871547    0.881198    0.089632    0.000000
    89  O3    s     0.376608    0.111226    0.893915    0.000000
    90  O3    s     0.154410    0.869476    0.913370    0.000000
    91  O3    s     0.417601    0.755208    0.937164    0.000000
    92  O1    s     0.099333    0.202421    0.885532    0.000000
    93  O3    s     0.610897    0.790989    0.100459    0.000000
    94  O1    s     0.924170    0.206655    0.109423    0.000000
    95  O1    s     0.520300    0.019746    0.967165    0.000000
    96  O1    s     0.005212    0.945937    0.972491    0.000000
    97  O3    s     0.144347    0.503308    0.293985    0.000000
    98  O3    s     0.366910    0.434613    0.314333    0.000000
    99  O3    s     0.862936    0.444448    0.688881    0.000000
   100  O3    s     0.660130    0.427226    0.724023    0.000000
   101  O3    s     0.235638    0.244515    0.314782    0.000000
   102  O3    s     0.272599    0.687512    0.345247    0.000000
   103  O3    s     0.774683    0.182755    0.710294    0.000000
   104  O3    s     0.746321    0.685619    0.699467    0.000000
   105  O3    s     0.141711    0.257507    0.130723    0.000000
   106  O2    s     0.363955    0.681972    0.158054    0.000000
   107  O3    s     0.838855    0.319103    0.894916    0.000000
   108  O2    s     0.640471    0.693423    0.869805    0.000000
   109  O3    s     0.862223    0.721157    0.876127    0.000000
   110  O3    s     0.679226    0.181362    0.919345    0.000000
   111  O3    s     0.179218    0.777610    0.143296    0.000000
   112  O3    s     0.338643    0.182479    0.123399    0.000000
   113  O2    s     0.652019    0.466192    0.043068    0.000000
   114  O3    s     0.869421    0.548524    0.080557    0.000000
   115  O2    s     0.372447    0.437642    0.988909    0.000000
   116  O3    s     0.145386    0.546188    0.976636    0.000000
   117  O3    s     0.763767    0.278067    0.109664    0.000000
   118  O2    s     0.748425    0.706252    0.027204    0.000000
   119  O3    s     0.250907    0.280595    0.943444    0.000000
   120  O2    s     0.275197    0.685095    0.969900    0.000000
--------------------------------------------------------------------------------

  Final Cartesian lattice vectors (Angstroms) :

       17.474382    0.203264    0.043501
        0.092217    7.652048   -0.110867
        0.024017   -0.159669   10.451311


  Final cell parameters and derivatives :

--------------------------------------------------------------------------------
       a           17.475619 Angstrom     dE/de1(xx)     0.002375 eV/strain
       b            7.653407 Angstrom     dE/de2(yy)     0.003138 eV/strain
       c           10.452558 Angstrom     dE/de3(zz)    -0.008716 eV/strain
       alpha       91.703622 Degrees      dE/de4(yz)     0.000811 eV/strain
       beta        89.735934 Degrees      dE/de5(xz)    -0.000521 eV/strain
       gamma       88.645316 Degrees      dE/de6(xy)     0.000364 eV/strain
--------------------------------------------------------------------------------

  Primitive cell volume =          1396.980755 Angs**3

  Density of cell =      2.455151 g/cm**3

  Non-primitive cell volume =          1396.980755 Angs**3


  Final internal derivatives :

--------------------------------------------------------------------------------
   No.  Atomic          a             b             c           Radius
        Label          (eV)          (eV)          (eV)        (eV/Angs)
--------------------------------------------------------------------------------
      1 Ge    c       0.000000      0.000000      0.000000      0.000000
      2 Ge    c       0.003745      0.000552     -0.000199      0.000000
      3 Ge    c       0.003087      0.000688     -0.001626      0.000000
      4 Ge    c      -0.002595      0.000218     -0.002163      0.000000
      5 Ge    c      -0.003499      0.000025     -0.000942      0.000000
      6 Ge    c       0.003875     -0.000404      0.001023      0.000000
      7 Ge    c       0.002238     -0.000369     -0.001432      0.000000
      8 Ge    c      -0.002117     -0.000820     -0.001439      0.000000
      9 Ge    c       0.001303      0.000694      0.001547      0.000000
     10 Ge    c      -0.001000     -0.000252      0.002409      0.000000
     11 Ge    c       0.000116      0.000727     -0.002029      0.000000
     12 Ge    c       0.001437     -0.000948     -0.001495      0.000000
     13 Ge    c      -0.001344     -0.000601      0.001890      0.000000
     14 Ge    c       0.000234     -0.000363     -0.001882      0.000000
     15 Si    c      -0.000874     -0.000526     -0.001983      0.000000
     16 Si    c       0.000876      0.000353     -0.001883      0.000000
     17 Si    c       0.000454      0.000596      0.001654      0.000000
     18 Si    c      -0.002140      0.000704      0.000998      0.000000
     19 Si    c      -0.000384     -0.000472     -0.001204      0.000000
     20 Si    c       0.001449     -0.000257     -0.001995      0.000000
     21 Si    c       0.000105     -0.000784      0.002097      0.000000
     22 Si    c      -0.001356      0.001121      0.001491      0.000000
     23 Si    c       0.000717      0.000590      0.001971      0.000000
     24 Si    c      -0.001363      0.000133     -0.002269      0.000000
     25 O3    c       0.000744      0.000679      0.000119      0.000000
     26 O3    c      -0.000187     -0.000541      0.000646      0.000000
     27 O3    c       0.001417     -0.000353      0.000231      0.000000
     28 O3    c       0.002183     -0.000997      0.000639      0.000000
     29 O1    c      -0.002242     -0.001133     -0.000182      0.000000
     30 O1    c       0.000956      0.000498     -0.000069      0.000000
     31 O1    c       0.000640     -0.000236      0.000779      0.000000
     32 O1    c      -0.002970      0.001381     -0.000546      0.000000
     33 O1    c      -0.000725     -0.000702      0.002654      0.000000
     34 O1    c       0.000292     -0.000768      0.002742      0.000000
     35 O1    c      -0.000982      0.001133     -0.000424      0.000000
     36 O1    c      -0.001082     -0.000631      0.002218      0.000000
     37 O1    c       0.001223      0.000663      0.002227      0.000000
     38 O1    c      -0.002096      0.000206      0.002937      0.000000
     39 O3    c       0.001651      0.000707      0.000402      0.000000
     40 O3    c      -0.001422      0.000018      0.000445      0.000000
     41 O3    c      -0.001147      0.000492     -0.000327      0.000000
     42 O3    c       0.001264     -0.000953      0.000753      0.000000
     43 O3    c      -0.000020     -0.000094     -0.000069      0.000000
     44 O1    c       0.000774      0.001095     -0.000177      0.000000
     45 O3    c       0.000522     -0.000495      0.000511      0.000000
     46 O1    c      -0.000527      0.000810      0.000264      0.000000
     47 O1    c       0.002552     -0.000467      0.002959      0.000000
     48 O1    c      -0.000978      0.000396      0.000947      0.000000
     49 O3    c      -0.000964      0.000094      0.000196      0.000000
     50 O3    c       0.000876      0.000046      0.000504      0.000000
     51 O3    c       0.000252     -0.000883     -0.000452      0.000000
     52 O3    c      -0.000180     -0.000611     -0.000253      0.000000
     53 O3    c      -0.001110      0.000020      0.000628      0.000000
     54 O3    c      -0.001152      0.000084      0.000805      0.000000
     55 O3    c       0.000122     -0.000368     -0.000859      0.000000
     56 O3    c       0.000499      0.000295     -0.000579      0.000000
     57 O3    c       0.001465      0.001189      0.000193      0.000000
     58 O2    c      -0.000429     -0.000760      0.000108      0.000000
     59 O3    c       0.001664     -0.000456      0.000734      0.000000
     60 O2    c       0.001454     -0.000562      0.000976      0.000000
     61 O3    c      -0.002314     -0.000567      0.000560      0.000000
     62 O3    c       0.000181      0.001068     -0.001514      0.000000
     63 O3    c       0.000275     -0.001322      0.000335      0.000000
     64 O3    c      -0.000366      0.001319     -0.000559      0.000000
     65 O2    c      -0.000334     -0.000002      0.000091      0.000000
     66 O3    c       0.000021      0.001059      0.000273      0.000000
     67 O2    c       0.000780     -0.000017     -0.000128      0.000000
     68 O3    c      -0.001131     -0.000135     -0.000306      0.000000
     69 O3    c      -0.000690     -0.000136      0.000757      0.000000
     70 O2    c      -0.000071      0.000066      0.000181      0.000000
     71 O3    c       0.000994      0.000020     -0.000680      0.000000
     72 O2    c       0.000781     -0.000104     -0.000434      0.000000
     73 O3    s      -0.000369     -0.000263     -0.000583      0.000000
     74 O3    s       0.000012      0.000290     -0.001169      0.000000
     75 O3    s      -0.000724      0.000238     -0.000263      0.000000
     76 O3    s      -0.001162      0.000443      0.000292      0.000000
     77 O1    s       0.001299      0.000650      0.000646      0.000000
     78 O1    s      -0.000510     -0.000268      0.000348      0.000000
     79 O1    s      -0.000382      0.000175     -0.001132      0.000000
     80 O1    s       0.001681     -0.000854     -0.000274      0.000000
     81 O1    s       0.000559      0.000366     -0.001353      0.000000
     82 O1    s      -0.000243      0.000539     -0.001631      0.000000
     83 O1    s       0.000574     -0.000780      0.000025      0.000000
     84 O1    s       0.000577      0.000481     -0.001263      0.000000
     85 O1    s      -0.000874     -0.000525     -0.001099      0.000000
     86 O1    s       0.001459     -0.000128     -0.001418      0.000000
     87 O3    s      -0.000965     -0.000339     -0.001064      0.000000
     88 O3    s       0.000800     -0.000018     -0.000601      0.000000
     89 O3    s       0.000573     -0.000356      0.000724      0.000000
     90 O3    s      -0.000455      0.000557      0.000078      0.000000
     91 O3    s       0.000154     -0.000010      0.000316      0.000000
     92 O1    s      -0.000524     -0.000659      0.000649      0.000000
     93 O3    s      -0.000494      0.000315     -0.000986      0.000000
     94 O1    s       0.000555     -0.000370     -0.000465      0.000000
     95 O1    s      -0.001655      0.000334     -0.001489      0.000000
     96 O1    s       0.000682     -0.000363     -0.000327      0.000000
     97 O3    s       0.000234      0.000026     -0.000258      0.000000
     98 O3    s      -0.000047     -0.000051     -0.000651      0.000000
     99 O3    s      -0.000099      0.000412      0.001008      0.000000
    100 O3    s      -0.000158      0.000218      0.000378      0.000000
    101 O3    s       0.000486     -0.000226     -0.000766      0.000000
    102 O3    s       0.000685      0.000182     -0.001049      0.000000
    103 O3    s      -0.000164      0.000136      0.001030      0.000000
    104 O3    s      -0.000283      0.000073      0.000604      0.000000
    105 O3    s      -0.000785     -0.000709     -0.000089      0.000000
    106 O2    s      -0.000058      0.000313      0.000024      0.000000
    107 O3    s      -0.001204      0.000366     -0.000617      0.000000
    108 O2    s      -0.000627      0.000200     -0.000216      0.000000
    109 O3    s       0.001377      0.000292     -0.000282      0.000000
    110 O3    s      -0.000025     -0.000688      0.000902      0.000000
    111 O3    s       0.000004      0.000790     -0.000138      0.000000
    112 O3    s      -0.000006     -0.000726      0.000036      0.000000
    113 O2    s      -0.000274      0.000019     -0.000195      0.000000
    114 O3    s       0.000321     -0.000509     -0.000769      0.000000
    115 O2    s       0.000106     -0.000044      0.000182      0.000000
    116 O3    s      -0.000004      0.000088      0.000341      0.000000
    117 O3    s       0.000441      0.000013     -0.001130      0.000000
    118 O2    s      -0.000068      0.000068     -0.000244      0.000000
    119 O3    s      -0.000520     -0.000238      0.000827      0.000000
    120 O2    s      -0.000042      0.000209      0.000595      0.000000
--------------------------------------------------------------------------------
  Maximum abs         0.003875      0.001381      0.002959      0.000000
--------------------------------------------------------------------------------


  Born effective charge tensors : 

-------------------------------------------------------------------------------
  Atom             x           y             z
-------------------------------------------------------------------------------
    1 Ge    x       4.2485      0.1509     -0.0985
            y      -0.1570      3.8484     -0.1095
            z      -0.7552      0.1056      4.4571
-------------------------------------------------------------------------------
    2 Ge    x       4.2552      0.2733      0.0191
            y      -0.2105      3.8411     -0.1325
            z       0.8737     -0.0608      4.4622
-------------------------------------------------------------------------------
    3 Ge    x       4.1780      0.2330     -0.4965
            y       0.2889      3.8594      0.2309
            z      -0.1428     -0.3218      4.5580
-------------------------------------------------------------------------------
    4 Ge    x       4.2790     -0.1241      0.4677
            y       0.1111      3.8773      0.0891
            z       0.2921     -0.2609      4.6546
-------------------------------------------------------------------------------
    5 Ge    x       4.3614     -0.0783     -0.0288
            y       0.1608      3.9448      0.0805
            z      -0.7627      0.0043      3.6256
-------------------------------------------------------------------------------
    6 Ge    x       4.2747     -0.4352      0.2023
            y       0.2154      3.8979      0.0266
            z       0.6277     -0.1478      3.8114
-------------------------------------------------------------------------------
    7 Ge    x       4.2210      0.1824     -0.4286
            y      -0.2218      3.9514     -0.0811
            z      -0.3834      0.0917      3.9557
-------------------------------------------------------------------------------
    8 Ge    x       4.2793      0.4382      0.4122
            y      -0.1986      3.9124     -0.0910
            z       0.4681      0.2013      3.9307
-------------------------------------------------------------------------------
    9 Ge    x       3.9064      0.2895     -0.2893
            y       0.3436      4.1257     -0.1592
            z      -0.1824     -0.1491      3.4558
-------------------------------------------------------------------------------
   10 Ge    x       3.9544      0.3523      0.1223
            y       0.4101      4.1935      0.1750
            z       0.2843      0.0846      3.4740
-------------------------------------------------------------------------------
   11 Ge    x       3.9081     -0.4049     -0.1869
            y      -0.1849      4.1052      0.3212
            z      -0.2394      0.0659      3.4518
-------------------------------------------------------------------------------
   12 Ge    x       3.8423     -0.4031      0.1970
            y      -0.1368      4.1695     -0.3049
            z       0.1818     -0.1019      3.4741
-------------------------------------------------------------------------------
   13 Ge    x       3.9526      0.3809      0.1900
            y       0.3479      4.1662      0.3486
            z       0.2369      0.0526      3.3274
-------------------------------------------------------------------------------
   14 Ge    x       4.0688     -0.2943      0.1301
            y      -0.3882      4.1172     -0.1819
            z       0.4255     -0.2489      3.2212
-------------------------------------------------------------------------------
   15 Si    x       3.7192      0.2041     -0.0656
            y       0.3067      3.9109     -0.2538
            z      -0.1780     -0.0569      3.2961
-------------------------------------------------------------------------------
   16 Si    x       3.6732      0.2101      0.1022
            y       0.2906      3.8807      0.2814
            z       0.2320      0.1062      3.0296
-------------------------------------------------------------------------------
   17 Si    x       3.7413     -0.2046     -0.0332
            y      -0.3788      3.9471     -0.0693
            z      -0.3280      0.1983      3.0750
-------------------------------------------------------------------------------
   18 Si    x       3.6596     -0.1101      0.2438
            y      -0.3016      3.8845     -0.3917
            z       0.1881     -0.1719      3.0967
-------------------------------------------------------------------------------
   19 Si    x       3.7224      0.4637     -0.0834
            y       0.3213      3.6810     -0.2614
            z      -0.1575     -0.0124      3.0923
-------------------------------------------------------------------------------
   20 Si    x       3.3515      0.4608      0.2619
            y       0.1281      3.9598      0.0044
            z       0.0626      0.1253      3.1532
-------------------------------------------------------------------------------
   21 Si    x       3.5729     -0.5240     -0.1295
            y      -0.1928      3.7636      0.3022
            z      -0.1026      0.0711      3.1833
-------------------------------------------------------------------------------
   22 Si    x       3.3438     -0.3935      0.2471
            y       0.0619      3.9360     -0.2538
            z       0.2037     -0.1169      3.2108
-------------------------------------------------------------------------------
   23 Si    x       3.4065      0.4056     -0.2364
            y       0.3933      3.4876     -0.3116
            z      -0.3558     -0.1434      2.8322
-------------------------------------------------------------------------------
   24 Si    x       3.3577     -0.3585     -0.3593
            y      -0.3320      3.4954      0.3313
            z      -0.2296      0.1438      2.8266
-------------------------------------------------------------------------------
   25 O3    x      -1.9835     -0.8418      0.4791
            y      -0.8074     -2.2402      0.4914
            z       0.5527      0.4664     -1.5836
-------------------------------------------------------------------------------
   26 O3    x      -1.9605     -0.8529     -0.3899
            y      -0.8136     -2.2523     -0.3207
            z      -0.5554     -0.3751     -1.5569
-------------------------------------------------------------------------------
   27 O3    x      -2.1160      0.9083      0.3475
            y       0.8885     -2.2470     -0.4162
            z       0.3296     -0.3997     -1.4360
-------------------------------------------------------------------------------
   28 O3    x      -1.9591      0.8025     -0.5796
            y       0.7939     -2.1422      0.4657
            z      -0.5626      0.4702     -1.7112
-------------------------------------------------------------------------------
   29 O1    x      -2.1786     -0.9873      0.4706
            y      -1.0326     -2.4373      0.3565
            z       0.5153      0.4953     -1.6720
-------------------------------------------------------------------------------
   30 O1    x      -2.2921     -0.9593     -0.6253
            y      -1.1062     -2.4454     -0.6338
            z      -0.6386     -0.5328     -1.6991
-------------------------------------------------------------------------------
   31 O1    x      -2.2466      0.9252      0.3425
            y       1.0047     -2.3170     -0.3585
            z       0.4424     -0.3465     -1.6683
-------------------------------------------------------------------------------
   32 O1    x      -2.2159      0.8816     -0.3373
            y       0.9943     -2.3755      0.4816
            z      -0.4150      0.3958     -1.6520
-------------------------------------------------------------------------------
   33 O1    x      -1.9778     -0.1324      1.0538
            y      -0.0875     -1.3133      0.2173
            z       1.1828      0.3206     -3.3773
-------------------------------------------------------------------------------
   34 O1    x      -2.0479      0.0085     -1.0463
            y      -0.0041     -1.3074      0.0678
            z      -1.2706      0.1702     -3.3622
-------------------------------------------------------------------------------
   35 O1    x      -2.0248      0.0365     -0.9940
            y      -0.0081     -1.3996     -0.0033
            z      -0.9006      0.0116     -2.7770
-------------------------------------------------------------------------------
   36 O1    x      -2.2135     -0.1327      1.0184
            y      -0.0576     -1.3925      0.1608
            z       0.9577      0.2270     -2.7157
-------------------------------------------------------------------------------
   37 O1    x      -2.2601     -0.0417     -0.7973
            y       0.1053     -1.3384     -0.0993
            z      -0.8573     -0.1951     -2.6112
-------------------------------------------------------------------------------
   38 O1    x      -2.1919      0.0555      0.9081
            y       0.0810     -1.2937     -0.0857
            z       0.8761     -0.0898     -2.8038
-------------------------------------------------------------------------------
   39 O3    x      -2.0949     -0.8905      0.3316
            y      -0.9184     -2.2003      0.3169
            z       0.4662      0.3417     -1.4375
-------------------------------------------------------------------------------
   40 O3    x      -2.0622     -0.8035     -0.3729
            y      -0.8216     -2.3127     -0.4685
            z      -0.3830     -0.4477     -1.3629
-------------------------------------------------------------------------------
   41 O3    x      -1.9526      0.8815      0.4979
            y       0.8247     -2.3015     -0.5651
            z       0.4488     -0.5290     -1.5335
-------------------------------------------------------------------------------
   42 O3    x      -1.9926      0.7670     -0.5881
            y       0.7438     -2.2062      0.6937
            z      -0.5175      0.5756     -1.5918
-------------------------------------------------------------------------------
   43 O3    x      -1.9948     -0.8973      0.6163
            y      -0.7414     -2.3524      0.6921
            z       0.5567      0.6154     -1.5402
-------------------------------------------------------------------------------
   44 O1    x      -1.9603     -0.8432     -0.5211
            y      -0.6598     -2.6252     -0.5077
            z      -0.4888     -0.4693     -1.5954
-------------------------------------------------------------------------------
   45 O3    x      -1.9235      0.8956      0.4882
            y       0.7876     -2.3739     -0.5292
            z       0.4780     -0.4810     -1.4760
-------------------------------------------------------------------------------
   46 O1    x      -2.1730      0.9096     -0.3131
            y       0.8214     -2.6611      0.2495
            z      -0.4505      0.3239     -1.3258
-------------------------------------------------------------------------------
   47 O1    x      -2.3459     -0.1757     -0.8302
            y      -0.1253     -1.4635     -0.0525
            z      -0.4696     -0.0538     -2.0487
-------------------------------------------------------------------------------
   48 O1    x      -2.3189     -0.0525      0.8614
            y      -0.0590     -1.3835      0.0295
            z       0.5679     -0.0099     -2.1408
-------------------------------------------------------------------------------
   49 O3    x      -1.3374     -0.1710      0.0333
            y      -0.2376     -3.0974     -0.1108
            z       0.0665     -0.0715     -1.1743
-------------------------------------------------------------------------------
   50 O3    x      -1.2993     -0.1135     -0.0717
            y      -0.1938     -3.0789     -0.0577
            z      -0.0942     -0.0131     -1.2023
-------------------------------------------------------------------------------
   51 O3    x      -1.2772      0.0434      0.1143
            y       0.0524     -2.8978      0.2594
            z       0.1340      0.2387     -1.3454
-------------------------------------------------------------------------------
   52 O3    x      -1.2626      0.0967     -0.0637
            y       0.1473     -3.2155      0.2027
            z      -0.0697      0.0965     -1.2078
-------------------------------------------------------------------------------
   53 O3    x      -2.8792      0.2834     -0.0984
            y       0.1742     -1.4179      0.1021
            z      -0.0470      0.0510     -1.2203
-------------------------------------------------------------------------------
   54 O3    x      -2.8312      0.2957      0.0344
            y       0.2007     -1.3728     -0.0866
            z       0.0562     -0.0332     -1.2929
-------------------------------------------------------------------------------
   55 O3    x      -2.7154     -0.2710      0.0140
            y      -0.1961     -1.5029     -0.1220
            z      -0.0068     -0.1315     -1.2458
-------------------------------------------------------------------------------
   56 O3    x      -2.9076     -0.1905      0.0771
            y      -0.1442     -1.4075      0.0917
            z       0.0636      0.0657     -1.2143
-------------------------------------------------------------------------------
   57 O3    x      -1.3483     -0.1595     -0.0205
            y      -0.1484     -1.4617     -0.0031
            z      -0.0301      0.0294     -2.5230
-------------------------------------------------------------------------------
   58 O2    x      -1.2000     -0.1137     -0.0112
            y      -0.1020     -1.3032     -0.0034
            z       0.0186      0.0028     -2.0494
-------------------------------------------------------------------------------
   59 O3    x      -1.3595      0.0865      0.0566
            y       0.1153     -1.4552     -0.2379
            z       0.0163     -0.2330     -2.5211
-------------------------------------------------------------------------------
   60 O2    x      -1.2730      0.1485     -0.0278
            y       0.1528     -1.3179     -0.0275
            z       0.0119     -0.0454     -1.9770
-------------------------------------------------------------------------------
   61 O3    x      -1.3851     -0.1465      0.0886
            y      -0.1298     -1.4038     -0.0877
            z       0.0816     -0.1444     -2.5034
-------------------------------------------------------------------------------
   62 O3    x      -1.3041     -0.1189      0.0885
            y      -0.0979     -1.5820     -0.2296
            z       0.0339     -0.2002     -2.4342
-------------------------------------------------------------------------------
   63 O3    x      -1.3043      0.1302      0.0722
            y       0.0547     -1.4733     -0.0253
            z       0.0688     -0.0077     -2.5224
-------------------------------------------------------------------------------
   64 O3    x      -1.2759      0.1107      0.0705
            y       0.0422     -1.5325      0.1922
            z       0.0354      0.1558     -2.4982
-------------------------------------------------------------------------------
   65 O2    x      -1.2382      0.0665      0.0515
            y       0.1293     -2.4397      0.2290
            z       0.0611      0.1618     -1.0478
-------------------------------------------------------------------------------
   66 O3    x      -1.4242      0.1392     -0.1946
            y       0.1536     -2.8464      0.2910
            z      -0.2061      0.2062     -1.2699
-------------------------------------------------------------------------------
   67 O2    x      -1.2717     -0.1051      0.0404
            y      -0.1652     -2.4319     -0.1190
            z       0.0768     -0.0771     -1.0324
-------------------------------------------------------------------------------
   68 O3    x      -1.5089     -0.2756     -0.1042
            y      -0.3790     -2.9653     -0.0963
            z      -0.1302     -0.0629     -1.1272
-------------------------------------------------------------------------------
   69 O3    x      -2.7996     -0.2298     -0.1144
            y      -0.1312     -1.3731      0.0850
            z      -0.0901      0.0606     -1.2864
-------------------------------------------------------------------------------
   70 O2    x      -2.3854     -0.1992     -0.0365
            y      -0.1335     -1.2991     -0.0316
            z      -0.0274     -0.0330     -1.0168
-------------------------------------------------------------------------------
   71 O3    x      -2.9159      0.2773     -0.1198
            y       0.1877     -1.4075     -0.0605
            z      -0.0900      0.0011     -1.1822
-------------------------------------------------------------------------------
   72 O2    x      -2.2866      0.2412     -0.0589
            y       0.1691     -1.2908      0.0739
            z      -0.0569      0.0413     -1.0820
-------------------------------------------------------------------------------




  Elastic Constant Matrix: (Units=GPa)

-------------------------------------------------------------------------------
  Indices      1         2         3         4         5         6    
-------------------------------------------------------------------------------
       1     32.9442   14.3580   15.2063   -2.9166   -1.6839    5.7210
       2     14.3580   35.0891   11.7949   -2.7815   -2.4477    4.5532
       3     15.2063   11.7949   15.0379   -0.3874   -0.3242    4.1754
       4     -2.9166   -2.7815   -0.3874    8.0233    2.1061    0.2081
       5     -1.6839   -2.4477   -0.3242    2.1061   12.7332   -3.4249
       6      5.7210    4.5532    4.1754    0.2081   -3.4249   19.7989
-------------------------------------------------------------------------------


  Elastic Compliance Matrix: (Units=1/GPa)

-------------------------------------------------------------------------------
  Indices      1         2         3         4         5         6    
-------------------------------------------------------------------------------
       1    0.060490 -0.003624 -0.056552  0.017676  0.001699 -0.004611
       2   -0.003624  0.040498 -0.027220  0.010300  0.004405 -0.001872
       3   -0.056552 -0.027220  0.146994 -0.020507 -0.008157 -0.009595
       4    0.017676  0.010300 -0.020507  0.139509 -0.021523 -0.008341
       5    0.001699  0.004405 -0.008157 -0.021523  0.087132  0.015515
       6   -0.004611 -0.001872 -0.009595 -0.008341  0.015515  0.057066
-------------------------------------------------------------------------------

  Mechanical properties :

-------------------------------------------------------------------------------
  Convention :                    Reuss         Voigt         Hill
-------------------------------------------------------------------------------
  Bulk  Modulus (GPa)     =      13.66319      18.42105      16.04212
  Shear Modulus (GPa)     =       6.84110      10.89188       8.86649
-------------------------------------------------------------------------------
  Velocity S-wave (km/s)  =       1.66926       2.10626       1.90036
  Velocity P-wave (km/s)  =       3.04637       3.66308       3.36886
-------------------------------------------------------------------------------
  Compressibility (1/GPa) =    0.07318933
-------------------------------------------------------------------------------
  Stress axis :                     x             y             z
-------------------------------------------------------------------------------
  Youngs Moduli (GPa)     =      16.53179      24.69250       6.80302
-------------------------------------------------------------------------------
  Poissons Ratio (x)      =                     0.08949       0.38473
  Poissons Ratio (y)      =       0.05991                     0.18518
  Poissons Ratio (z)      =       0.93491       0.67212
-------------------------------------------------------------------------------


  Piezoelectric Strain Matrix: (Units=C/m**2)

-------------------------------------------------------------------------------
  Indices      1         2         3         4         5         6    
-------------------------------------------------------------------------------
       x     0.26318  -0.40404  -0.13180  -0.22582   0.72254  -0.14276
       y    -0.43965   1.57288   0.43676  -0.03043  -0.44364  -0.42545
       z     1.12686   0.70598  -1.01810   0.33861   0.01706   0.10742
-------------------------------------------------------------------------------


  Piezoelectric Stress Matrix: (Units=10**-11 C/N)

-------------------------------------------------------------------------------
  Indices      1         2         3         4         5         6    
-------------------------------------------------------------------------------
       x     2.27319  -1.26048  -2.31528  -4.26712   6.53438   0.57548
       y    -5.63240   5.19324   5.45754   0.83257  -4.19816  -3.60159
       z    12.86991   5.55812 -24.07102   9.40436   0.91948   0.68209
-------------------------------------------------------------------------------


  Static dielectric constant tensor : 

-------------------------------------------------------------------------------
              x         y         z
-------------------------------------------------------------------------------
       x     5.27684   0.09789  -0.03336
       y     0.09789   5.51876  -0.07995
       z    -0.03336  -0.07995   4.44811
--------------------------------------------------------------------------------

  High frequency dielectric constant tensor : 

-------------------------------------------------------------------------------
              x         y         z
-------------------------------------------------------------------------------
       x     1.58442   0.00310  -0.00009
       y     0.00310   1.59348  -0.00276
       z    -0.00009  -0.00276   1.53199
-------------------------------------------------------------------------------

  Static refractive indices : 

-------------------------------------------------------------------------------
    1 =    2.10745      2 =    2.28959      3 =    2.35799
-------------------------------------------------------------------------------

  High frequency refractive indices : 

-------------------------------------------------------------------------------
    1 =    1.23769      2 =    1.25836      3 =    1.26276
-------------------------------------------------------------------------------


  Time to end of optimisation =      14.5347 seconds


  Peak dynamic memory used =       5.01 MB 


  Timing analysis for GULP :

--------------------------------------------------------------------------------
  Task / Subroutine                                          Time (Seconds)
--------------------------------------------------------------------------------
  Calculation of reciprocal space energy and derivatives          0.8458
  Calculation of real space energy and derivatives                9.2835
  Calculation of three-body energy and derivatives                0.2065
  Calculation and manipulation of Hessian matrix                  4.4320
  Calculation of matrix inversion                                 0.0340
  Global summation overhead                                       0.0002
--------------------------------------------------------------------------------
  Total CPU time                                                 14.5347
--------------------------------------------------------------------------------


  Dump file written as POSCAR_N0014.vasp.grs
  CIF file written as POSCAR_N0014.vasp.cif


  Job Finished at 11:30.13 31st October    2025                               

