********************************************************************************
*                       GENERAL UTILITY LATTICE PROGRAM                        *
*                                 Julian Gale                                  *
*                       Curtin Institute for Computation                       *
*                    School of Molecular and Life Sciences                     *
*                    Curtin University, Western Australia                      *
********************************************************************************
* Version = 6.1.2 * Last modified =   3rd November 2022                        *
********************************************************************************
*  optimise     - perform optimisation run                                     *
*  conp         - constant pressure calculation                                *
*  property     - calculate properties for final geometry                      *
********************************************************************************

  Job Started  at 11:30.13 31st October    2025                               

  Number of CPUs =     1


  Total number of configurations input =      1

********************************************************************************
*  Input for Configuration =   1 : POSCAR_N0015.vasp                           *
********************************************************************************

  Formula = Ge15Si9O48                                                  

  Number of irreducible atoms/shells =     120


  Total number atoms/shells =     120

  Dimensionality = 3               :  Bulk   



  Cartesian lattice vectors (Angstroms) :

       17.182800    0.000000    0.000000
        0.000000    7.513760    0.000000
        0.000000    0.000000   10.447700

  Cell parameters (Angstroms/Degrees):

  a =      17.1828    alpha =  90.0000
  b =       7.5138    beta  =  90.0000
  c =      10.4477    gamma =  90.0000

  Initial cell volume =        1348.875752 Angs**3

  Temperature of configuration =   0.00     K 

  Pressure of configuration =         0.000 GPa 

  Fractional coordinates of asymmetric unit :

--------------------------------------------------------------------------------
   No.  Atomic       x           y          z         Charge      Occupancy
        Label      (Frac)      (Frac)     (Frac)        (e)         (Frac)  
--------------------------------------------------------------------------------
      1 Ge    c    0.052090    0.000000    0.372270     4.00000    1.000000    
      2 Ge    c    0.447910 *  0.000000 *  0.372270 *   4.00000    1.000000    
      3 Ge    c    0.947910 *  0.000000 *  0.627730 *   4.00000    1.000000    
      4 Ge    c    0.552090 *  0.000000 *  0.627730 *   4.00000    1.000000    
      5 Ge    c    0.556730 *  0.000000 *  0.122130 *   4.00000    1.000000    
      6 Ge    c    0.943270 *  0.000000 *  0.122130 *   4.00000    1.000000    
      7 Ge    c    0.443270 *  0.000000 *  0.877870 *   4.00000    1.000000    
      8 Ge    c    0.056730 *  0.000000 *  0.877870 *   4.00000    1.000000    
      9 Ge    c    0.839810 *  0.706090 *  0.726560 *   4.00000    1.000000    
     10 Ge    c    0.660190 *  0.293910 *  0.726560 *   4.00000    1.000000    
     11 Ge    c    0.160190 *  0.706090 *  0.273440 *   4.00000    1.000000    
     12 Ge    c    0.339810 *  0.293910 *  0.273440 *   4.00000    1.000000    
     13 Ge    c    0.339340 *  0.705910 *  0.982560 *   4.00000    1.000000    
     14 Ge    c    0.660660 *  0.705910 *  0.017440 *   4.00000    1.000000    
     15 Ge    c    0.839340 *  0.294090 *  0.017440 *   4.00000    1.000000    
     16 Si    c    0.160190 *  0.293910 *  0.273440 *   4.00000    1.000000    
     17 Si    c    0.339810 *  0.706090 *  0.273440 *   4.00000    1.000000    
     18 Si    c    0.839810 *  0.293910 *  0.726560 *   4.00000    1.000000    
     19 Si    c    0.660190 *  0.706090 *  0.726560 *   4.00000    1.000000    
     20 Si    c    0.660660 *  0.294090 *  0.017440 *   4.00000    1.000000    
     21 Si    c    0.839340 *  0.705910 *  0.017440 *   4.00000    1.000000    
     22 Si    c    0.339340 *  0.294090 *  0.982560 *   4.00000    1.000000    
     23 Si    c    0.160660 *  0.705910 *  0.982560 *   4.00000    1.000000    
     24 Si    c    0.160660 *  0.294090 *  0.982560 *   4.00000    1.000000    
     25 O3    c    0.106570 *  0.174340 *  0.366200 *   1.33043    1.000000    
     26 O3    c    0.393430 *  0.825660 *  0.366200 *   1.33043    1.000000    
     27 O3    c    0.893430 *  0.174340 *  0.633800 *   1.33043    1.000000    
     28 O3    c    0.606570 *  0.825660 *  0.633800 *   1.33043    1.000000    
     29 O1    c    0.893430 *  0.825660 *  0.633800 *   1.73396    1.000000    
     30 O1    c    0.606570 *  0.174340 *  0.633800 *   1.73396    1.000000    
     31 O1    c    0.106570 *  0.825660 *  0.366200 *   1.73396    1.000000    
     32 O1    c    0.393430 *  0.174340 *  0.366200 *   1.73396    1.000000    
     33 O1    c    0.000000 *  0.000000 *  0.500000 *   1.73396    1.000000    
     34 O1    c    0.500000 *  0.000000 *  0.500000 *   1.73396    1.000000    
     35 O1    c    0.994520 *  0.000000 *  0.250840 *   1.73396    1.000000    
     36 O1    c    0.505480 *  0.000000 *  0.250840 *   1.73396    1.000000    
     37 O1    c    0.005480 *  0.000000 *  0.749160 *   1.73396    1.000000    
     38 O1    c    0.494520 *  0.000000 *  0.749160 *   1.73396    1.000000    
     39 O3    c    0.610230 *  0.175520 *  0.115390 *   1.33043    1.000000    
     40 O3    c    0.889770 *  0.824480 *  0.115390 *   1.33043    1.000000    
     41 O3    c    0.389770 *  0.175520 *  0.884610 *   1.33043    1.000000    
     42 O3    c    0.110230 *  0.824480 *  0.884610 *   1.33043    1.000000    
     43 O1    c    0.389770 *  0.824480 *  0.884610 *   1.73396    1.000000    
     44 O3    c    0.110230 *  0.175520 *  0.884610 *   1.33043    1.000000    
     45 O1    c    0.610230 *  0.824480 *  0.115390 *   1.73396    1.000000    
     46 O1    c    0.889770 *  0.175520 *  0.115390 *   1.73396    1.000000    
     47 O1    c    0.500000 *  0.000000 *  0.000000 *   1.73396    1.000000    
     48 O1    c    0.000000 *  0.000000 *  0.000000 *   1.73396    1.000000    
     49 O3    c    0.151750 *  0.500000 *  0.313330 *   1.33043    1.000000    
     50 O3    c    0.348250 *  0.500000 *  0.313330 *   1.33043    1.000000    
     51 O3    c    0.848250 *  0.500000 *  0.686670 *   1.33043    1.000000    
     52 O3    c    0.651750 *  0.500000 *  0.686670 *   1.33043    1.000000    
     53 O3    c    0.250000 *  0.234950 *  0.285720 *   1.33043    1.000000    
     54 O3    c    0.250000 *  0.765050 *  0.285720 *   1.33043    1.000000    
     55 O3    c    0.750000 *  0.234950 *  0.714280 *   1.33043    1.000000    
     56 O3    c    0.750000 *  0.765050 *  0.714280 *   1.33043    1.000000    
     57 O2    c    0.131410 *  0.268650 *  0.127790 *   0.87073    1.000000    
     58 O3    c    0.368590 *  0.731350 *  0.127790 *   1.33043    1.000000    
     59 O3    c    0.868590 *  0.268650 *  0.872210 *   1.33043    1.000000    
     60 O3    c    0.631410 *  0.731350 *  0.872210 *   1.33043    1.000000    
     61 O3    c    0.868590 *  0.731350 *  0.872210 *   1.33043    1.000000    
     62 O3    c    0.631410 *  0.268650 *  0.872210 *   1.33043    1.000000    
     63 O3    c    0.131410 *  0.731350 *  0.127790 *   1.33043    1.000000    
     64 O3    c    0.368590 *  0.268650 *  0.127790 *   1.33043    1.000000    
     65 O3    c    0.653920 *  0.500000 *  0.058200 *   1.33043    1.000000    
     66 O3    c    0.846080 *  0.500000 *  0.058200 *   1.33043    1.000000    
     67 O3    c    0.346080 *  0.500000 *  0.941800 *   1.33043    1.000000    
     68 O2    c    0.153920 *  0.500000 *  0.941800 *   0.87073    1.000000    
     69 O3    c    0.750000 *  0.231060 *  0.027050 *   1.33043    1.000000    
     70 O3    c    0.750000 *  0.768940 *  0.027050 *   1.33043    1.000000    
     71 O2    c    0.250000 *  0.231060 *  0.972950 *   0.87073    1.000000    
     72 O3    c    0.250000 *  0.768940 *  0.972950 *   1.33043    1.000000    
     73 O3    s    0.106570 *  0.174340 *  0.366200 *  -3.33043    1.000000    
     74 O3    s    0.393430 *  0.825660 *  0.366200 *  -3.33043    1.000000    
     75 O3    s    0.893430 *  0.174340 *  0.633800 *  -3.33043    1.000000    
     76 O3    s    0.606570 *  0.825660 *  0.633800 *  -3.33043    1.000000    
     77 O1    s    0.893430 *  0.825660 *  0.633800 *  -3.73396    1.000000    
     78 O1    s    0.606570 *  0.174340 *  0.633800 *  -3.73396    1.000000    
     79 O1    s    0.106570 *  0.825660 *  0.366200 *  -3.73396    1.000000    
     80 O1    s    0.393430 *  0.174340 *  0.366200 *  -3.73396    1.000000    
     81 O1    s    0.000000 *  0.000000 *  0.500000 *  -3.73396    1.000000    
     82 O1    s    0.500000 *  0.000000 *  0.500000 *  -3.73396    1.000000    
     83 O1    s    0.994520 *  0.000000 *  0.250840 *  -3.73396    1.000000    
     84 O1    s    0.505480 *  0.000000 *  0.250840 *  -3.73396    1.000000    
     85 O1    s    0.005480 *  0.000000 *  0.749160 *  -3.73396    1.000000    
     86 O1    s    0.494520 *  0.000000 *  0.749160 *  -3.73396    1.000000    
     87 O3    s    0.610230 *  0.175520 *  0.115390 *  -3.33043    1.000000    
     88 O3    s    0.889770 *  0.824480 *  0.115390 *  -3.33043    1.000000    
     89 O3    s    0.389770 *  0.175520 *  0.884610 *  -3.33043    1.000000    
     90 O3    s    0.110230 *  0.824480 *  0.884610 *  -3.33043    1.000000    
     91 O1    s    0.389770 *  0.824480 *  0.884610 *  -3.73396    1.000000    
     92 O3    s    0.110230 *  0.175520 *  0.884610 *  -3.33043    1.000000    
     93 O1    s    0.610230 *  0.824480 *  0.115390 *  -3.73396    1.000000    
     94 O1    s    0.889770 *  0.175520 *  0.115390 *  -3.73396    1.000000    
     95 O1    s    0.500000 *  0.000000 *  0.000000 *  -3.73396    1.000000    
     96 O1    s    0.000000 *  0.000000 *  0.000000 *  -3.73396    1.000000    
     97 O3    s    0.151750 *  0.500000 *  0.313330 *  -3.33043    1.000000    
     98 O3    s    0.348250 *  0.500000 *  0.313330 *  -3.33043    1.000000    
     99 O3    s    0.848250 *  0.500000 *  0.686670 *  -3.33043    1.000000    
    100 O3    s    0.651750 *  0.500000 *  0.686670 *  -3.33043    1.000000    
    101 O3    s    0.250000 *  0.234950 *  0.285720 *  -3.33043    1.000000    
    102 O3    s    0.250000 *  0.765050 *  0.285720 *  -3.33043    1.000000    
    103 O3    s    0.750000 *  0.234950 *  0.714280 *  -3.33043    1.000000    
    104 O3    s    0.750000 *  0.765050 *  0.714280 *  -3.33043    1.000000    
    105 O2    s    0.131410 *  0.268650 *  0.127790 *  -2.87073    1.000000    
    106 O3    s    0.368590 *  0.731350 *  0.127790 *  -3.33043    1.000000    
    107 O3    s    0.868590 *  0.268650 *  0.872210 *  -3.33043    1.000000    
    108 O3    s    0.631410 *  0.731350 *  0.872210 *  -3.33043    1.000000    
    109 O3    s    0.868590 *  0.731350 *  0.872210 *  -3.33043    1.000000    
    110 O3    s    0.631410 *  0.268650 *  0.872210 *  -3.33043    1.000000    
    111 O3    s    0.131410 *  0.731350 *  0.127790 *  -3.33043    1.000000    
    112 O3    s    0.368590 *  0.268650 *  0.127790 *  -3.33043    1.000000    
    113 O3    s    0.653920 *  0.500000 *  0.058200 *  -3.33043    1.000000    
    114 O3    s    0.846080 *  0.500000 *  0.058200 *  -3.33043    1.000000    
    115 O3    s    0.346080 *  0.500000 *  0.941800 *  -3.33043    1.000000    
    116 O2    s    0.153920 *  0.500000 *  0.941800 *  -2.87073    1.000000    
    117 O3    s    0.750000 *  0.231060 *  0.027050 *  -3.33043    1.000000    
    118 O3    s    0.750000 *  0.768940 *  0.027050 *  -3.33043    1.000000    
    119 O2    s    0.250000 *  0.231060 *  0.972950 *  -2.87073    1.000000    
    120 O3    s    0.250000 *  0.768940 *  0.972950 *  -3.33043    1.000000    
--------------------------------------------------------------------------------



********************************************************************************
*  General input information                                                   *
********************************************************************************

  Species output for all configurations : 

--------------------------------------------------------------------------------
  Species    Type    Atomic    Atomic    Charge       Radii (Angs)     Library
                     Number     Mass       (e)     Cova   Ionic  VDW   Symbol
--------------------------------------------------------------------------------
    Ge       Core       32      72.61   4.000000   1.170  0.000  1.750 Ge       
    Si       Core       14      28.09   4.000000   1.200  0.000  2.100 Si       
    O1       Core        8      16.00   1.733957   0.730  0.000  1.360 O1       
    O2       Core        8      16.00   0.870733   0.730  0.000  1.360 O2       
    O3       Core        8      16.00   1.330431   0.730  0.000  1.360 O3       
    O1       Shell       8       0.00  -3.733957   0.730  0.000  0.000 O1       
    O2       Shell       8       0.00  -2.870733   0.730  0.000  0.000 O2       
    O3       Shell       8       0.00  -3.330431   0.730  0.000  0.000 O3       
--------------------------------------------------------------------------------


  Lattice summation method               =    Ewald          (3-D)
                                         =    Parry          (2-D)
                                         =    Saunders et al (1-D)
  Accuracy factor for lattice sums       =   12.000


  Analytic derivatives to be used

  Time limit = Infinity

  Maximum range for interatomic potentials =    100000.000000 Angstroms

  General interatomic potentials :

--------------------------------------------------------------------------------
Atom  Types   Potential      Parameter       Value         Units   Cutoffs(Ang)
  1     2                                                            Min /  Max 
--------------------------------------------------------------------------------
Si   c O1   s Buckingham    Buckingham A     1315.2478    eV        0.000 16.000
                            Buckingham rho  0.31775900    Ang       
                            Buckingham C     10.141118    eV*Ang^6  
--------------------------------------------------------------------------------
Si   c O2   s Buckingham    Buckingham A     1315.2478    eV        0.000 16.000
                            Buckingham rho  0.31775900    Ang       
                            Buckingham C     10.141118    eV*Ang^6  
--------------------------------------------------------------------------------
Si   c O3   s Buckingham    Buckingham A     1315.2478    eV        0.000 16.000
                            Buckingham rho  0.31775900    Ang       
                            Buckingham C     10.141118    eV*Ang^6  
--------------------------------------------------------------------------------
Ge   c O1   s Buckingham    Buckingham A     1497.3996    eV        0.000 16.000
                            Buckingham rho  0.32564600    Ang       
                            Buckingham C     16.808599    eV*Ang^6  
--------------------------------------------------------------------------------
Ge   c O2   s Buckingham    Buckingham A     1497.3996    eV        0.000 16.000
                            Buckingham rho  0.32564600    Ang       
                            Buckingham C     16.808599    eV*Ang^6  
--------------------------------------------------------------------------------
Ge   c O3   s Buckingham    Buckingham A     1497.3996    eV        0.000 16.000
                            Buckingham rho  0.32564600    Ang       
                            Buckingham C     16.808599    eV*Ang^6  
--------------------------------------------------------------------------------
O1   s O1   s Buckingham    Buckingham A     22764.000    eV        0.000 16.000
                            Buckingham rho  0.14900000    Ang       
                            Buckingham C     10.937044    eV*Ang^6  
--------------------------------------------------------------------------------
O1   s O2   s Buckingham    Buckingham A     22764.000    eV        0.000 16.000
                            Buckingham rho  0.14900000    Ang       
                            Buckingham C     10.937044    eV*Ang^6  
--------------------------------------------------------------------------------
O1   s O3   s Buckingham    Buckingham A     22764.000    eV        0.000 16.000
                            Buckingham rho  0.14900000    Ang       
                            Buckingham C     10.937044    eV*Ang^6  
--------------------------------------------------------------------------------
O2   s O2   s Buckingham    Buckingham A     22764.000    eV        0.000 16.000
                            Buckingham rho  0.14900000    Ang       
                            Buckingham C     10.937044    eV*Ang^6  
--------------------------------------------------------------------------------
O2   s O3   s Buckingham    Buckingham A     22764.000    eV        0.000 16.000
                            Buckingham rho  0.14900000    Ang       
                            Buckingham C     10.937044    eV*Ang^6  
--------------------------------------------------------------------------------
O3   s O3   s Buckingham    Buckingham A     22764.000    eV        0.000 16.000
                            Buckingham rho  0.14900000    Ang       
                            Buckingham C     10.937044    eV*Ang^6  
--------------------------------------------------------------------------------
O1   c O1   s Spring (c-s)  Spring k 2       180.31577    eV*Ang^-2 0.000  0.800
                            Spring k 4       0.0000000    eV*Ang^-4 
--------------------------------------------------------------------------------
O2   c O2   s Spring (c-s)  Spring k 2       75.969800    eV*Ang^-2 0.000  0.800
                            Spring k 4       0.0000000    eV*Ang^-4 
--------------------------------------------------------------------------------
O3   c O3   s Spring (c-s)  Spring k 2       128.14270    eV*Ang^-2 0.000  0.800
                            Spring k 4       0.0000000    eV*Ang^-4 
--------------------------------------------------------------------------------

  General Three-body potentials :

--------------------------------------------------------------------------------
  Atoms       Potential      Parameter       Value         Units   Cutoffs(Ang)
  1 / 2 / 3                                                          Min /  Max 
--------------------------------------------------------------------------------
Si    core    Harmonic      Three-body cnst  1.2614000    eV*rad^-2 0.000  1.900
O1    shel                  Three-body angl  109.47000    degrees   0.000  1.900
O1    shel                  Three-body k4    0.0000000    eV*rad^-4 0.000  3.500
                            Three-body k3    0.0000000    eV*rad^-3 
--------------------------------------------------------------------------------
Si    core    Harmonic      Three-body cnst  1.2614000    eV*rad^-2 0.000  1.900
O1    shel                  Three-body angl  109.47000    degrees   0.000  1.900
õ(1   shel                  Three-body k4    0.0000000    eV*rad^-4 0.000  3.500
                            Three-body k3    0.0000000    eV*rad^-3 
--------------------------------------------------------------------------------
Si    core    Harmonic      Three-body cnst  1.2614000    eV*rad^-2 0.000  1.900
õ(1   shel                  Three-body angl  109.47000    degrees   0.000  1.900
õ(1   shel                  Three-body k4    0.0000000    eV*rad^-4 0.000  3.500
                            Three-body k3    0.0000000    eV*rad^-3 
--------------------------------------------------------------------------------
Si    core    Harmonic      Three-body cnst  1.2614000    eV*rad^-2 0.000  1.900
O1    shel                  Three-body angl  109.47000    degrees   0.000  1.900
O2    shel                  Three-body k4    0.0000000    eV*rad^-4 0.000  3.500
                            Three-body k3    0.0000000    eV*rad^-3 
--------------------------------------------------------------------------------
Si    core    Harmonic      Three-body cnst  1.2614000    eV*rad^-2 0.000  1.900
O1    shel                  Three-body angl  109.47000    degrees   0.000  1.900
õ(2   shel                  Three-body k4    0.0000000    eV*rad^-4 0.000  3.500
                            Three-body k3    0.0000000    eV*rad^-3 
--------------------------------------------------------------------------------
Si    core    Harmonic      Three-body cnst  1.2614000    eV*rad^-2 0.000  1.900
O2    shel                  Three-body angl  109.47000    degrees   0.000  1.900
õ(1   shel                  Three-body k4    0.0000000    eV*rad^-4 0.000  3.500
                            Three-body k3    0.0000000    eV*rad^-3 
--------------------------------------------------------------------------------
Si    core    Harmonic      Three-body cnst  1.2614000    eV*rad^-2 0.000  1.900
õ(1   shel                  Three-body angl  109.47000    degrees   0.000  1.900
õ(2   shel                  Three-body k4    0.0000000    eV*rad^-4 0.000  3.500
                            Three-body k3    0.0000000    eV*rad^-3 
--------------------------------------------------------------------------------
Si    core    Harmonic      Three-body cnst  1.2614000    eV*rad^-2 0.000  1.900
O2    shel                  Three-body angl  109.47000    degrees   0.000  1.900
O2    shel                  Three-body k4    0.0000000    eV*rad^-4 0.000  3.500
                            Three-body k3    0.0000000    eV*rad^-3 
--------------------------------------------------------------------------------
Si    core    Harmonic      Three-body cnst  1.2614000    eV*rad^-2 0.000  1.900
O2    shel                  Three-body angl  109.47000    degrees   0.000  1.900
õ(2   shel                  Three-body k4    0.0000000    eV*rad^-4 0.000  3.500
                            Three-body k3    0.0000000    eV*rad^-3 
--------------------------------------------------------------------------------
Si    core    Harmonic      Three-body cnst  1.2614000    eV*rad^-2 0.000  1.900
õ(2   shel                  Three-body angl  109.47000    degrees   0.000  1.900
õ(2   shel                  Three-body k4    0.0000000    eV*rad^-4 0.000  3.500
                            Three-body k3    0.0000000    eV*rad^-3 
--------------------------------------------------------------------------------

********************************************************************************
*  Output for configuration   1 : POSCAR_N0015.vasp                            *
********************************************************************************


  Components of energy : 

--------------------------------------------------------------------------------
  Interatomic potentials     =         856.57476251 eV    
  Three-body potentials      =           0.00014315 eV    
  Monopole - monopole (real) =       -2676.00317478 eV    
  Monopole - monopole (recip)=       -1115.35404472 eV    
  Monopole - monopole (total)=       -3791.35721950 eV    
--------------------------------------------------------------------------------
  Total lattice energy       =       -2934.78231384 eV    
--------------------------------------------------------------------------------
  Total lattice energy       =         -283161.6310 kJ/(mole unit cells)
--------------------------------------------------------------------------------


  Number of variables =      363

  Maximum number of calculations  =          1000
  Maximum Hessian update interval =            10
  Maximum step size               =   0.100000000
  Maximum parameter tolerance     =   0.000010000
  Maximum function  tolerance     =   0.000010000
  Maximum gradient  tolerance     =   0.001000000
  Maximum gradient  component     =   0.010000000

  Symmetry not applied to optimisation

  Cell parameters to be optimised using strains

  Newton-Raphson optimiser to be used

  BFGS hessian update to be used

  Lower half triangular hessian to be used

  Minimiser to switch to RFO
  When gradient norm is less than     0.050000

  Dumpfile to be written after every cycle

  Start of bulk optimisation :

  Cycle:      0 Energy:     -2934.782314  Gnorm:      5.312747  CPU:    0.081
  ** Hessian calculated **
  Cycle:      1 Energy:     -2973.535192  Gnorm:      1.291507  CPU:    0.174
  ** Hessian calculated **
  Cycle:      2 Energy:     -2980.615785  Gnorm:      0.634573  CPU:    0.370
  ** Hessian calculated **
  Cycle:      3 Energy:     -2981.524214  Gnorm:      0.344363  CPU:    0.511
  Cycle:      4 Energy:     -2981.836437  Gnorm:      0.250347  CPU:    0.583
  Cycle:      5 Energy:     -2982.218222  Gnorm:      0.207363  CPU:    0.669
  Cycle:      6 Energy:     -2982.623550  Gnorm:      0.155110  CPU:    0.754
  Cycle:      7 Energy:     -2982.808671  Gnorm:      0.124259  CPU:    0.826
  Cycle:      8 Energy:     -2982.897687  Gnorm:      0.088077  CPU:    0.901
  Cycle:      9 Energy:     -2982.938296  Gnorm:      0.073615  CPU:    0.973
  Cycle:     10 Energy:     -2982.973201  Gnorm:      0.069912  CPU:    1.059
  Cycle:     11 Energy:     -2983.011381  Gnorm:      0.072090  CPU:    1.144
  Cycle:     12 Energy:     -2983.057257  Gnorm:      0.077264  CPU:    1.229
  ** Hessian calculated **
  Cycle:     13 Energy:     -2983.072968  Gnorm:      0.076285  CPU:    1.383
  Cycle:     14 Energy:     -2983.121564  Gnorm:      0.073325  CPU:    1.482
  Cycle:     15 Energy:     -2983.175467  Gnorm:      0.069429  CPU:    1.568
  Cycle:     16 Energy:     -2983.235167  Gnorm:      0.063795  CPU:    1.667
  ** Hessian calculated **
  Cycle:     17 Energy:     -2983.243901  Gnorm:      0.052464  CPU:    1.821
  Cycle:     18 Energy:     -2983.255228  Gnorm:      0.047075  CPU:    1.907
  ** Hessian has required structure
  Cycle:     19 Energy:     -2983.267029  Gnorm:      0.077804  CPU:    2.023
  ** Hessian has required structure
  Cycle:     20 Energy:     -2983.281527  Gnorm:      0.074745  CPU:    2.141
  ** Hessian has required structure
  Cycle:     21 Energy:     -2983.290397  Gnorm:      0.084391  CPU:    2.243
  ** Hessian has required structure
  Cycle:     22 Energy:     -2983.294806  Gnorm:      0.076678  CPU:    2.345
  ** Hessian has required structure
  Cycle:     23 Energy:     -2983.301950  Gnorm:      0.110269  CPU:    2.459
  ** Hessian has required structure
  Cycle:     24 Energy:     -2983.315748  Gnorm:      0.088749  CPU:    2.563
  ** Hessian has required structure
  Cycle:     25 Energy:     -2983.320323  Gnorm:      0.089254  CPU:    2.666
  ** Hessian has required structure
  Cycle:     26 Energy:     -2983.326413  Gnorm:      0.084598  CPU:    2.769
  ** Hessian has wrong structure
  ** Imaginary eigenvectors =   6
  Cycle:     27 Energy:     -2983.383174  Gnorm:      0.085945  CPU:    3.109
  ** Hessian has wrong structure
  ** Imaginary eigenvectors =   7
  ** Hessian has wrong structure
  ** Imaginary eigenvectors =   6
  Cycle:     28 Energy:     -2983.477586  Gnorm:      0.103651  CPU:    3.518
  ** Hessian has wrong structure
  ** Imaginary eigenvectors =   4
  ** Hessian has wrong structure
  ** Imaginary eigenvectors =   3
  Cycle:     29 Energy:     -2983.601447  Gnorm:      0.134943  CPU:    3.885
  ** Hessian has wrong structure
  ** Imaginary eigenvectors =   2
  ** Hessian has required structure
  Cycle:     30 Energy:     -2983.882397  Gnorm:      0.157893  CPU:    4.172
  ** Hessian has required structure
  Cycle:     31 Energy:     -2984.162040  Gnorm:      0.095710  CPU:    4.290
  ** Hessian has required structure
  Cycle:     32 Energy:     -2984.239672  Gnorm:      0.067255  CPU:    4.397
  ** Hessian has required structure
  Cycle:     33 Energy:     -2984.306837  Gnorm:      0.057989  CPU:    4.533
  ** Hessian has required structure
  Cycle:     34 Energy:     -2984.334627  Gnorm:      0.059396  CPU:    4.642
  ** Hessian has required structure
  Cycle:     35 Energy:     -2984.358089  Gnorm:      0.061695  CPU:    4.751
  ** Hessian has required structure
  Cycle:     36 Energy:     -2984.376062  Gnorm:      0.047088  CPU:    4.874
  ** Hessian has required structure
  Cycle:     37 Energy:     -2984.386662  Gnorm:      0.043134  CPU:    5.012
  ** Hessian has required structure
  Cycle:     38 Energy:     -2984.400314  Gnorm:      0.028144  CPU:    5.149
  ** Hessian has required structure
  Cycle:     39 Energy:     -2984.407852  Gnorm:      0.037118  CPU:    5.273
  ** Hessian has required structure
  Cycle:     40 Energy:     -2984.426861  Gnorm:      0.025902  CPU:    5.477
  ** Hessian has required structure
  Cycle:     41 Energy:     -2984.433897  Gnorm:      0.014779  CPU:    5.614
  ** Hessian has required structure
  Cycle:     42 Energy:     -2984.437016  Gnorm:      0.010574  CPU:    5.751
  ** Hessian has required structure
  Cycle:     43 Energy:     -2984.438345  Gnorm:      0.003151  CPU:    5.874
  ** Hessian has required structure
  Cycle:     44 Energy:     -2984.439001  Gnorm:      0.003394  CPU:    6.011
  ** Hessian has required structure
  Cycle:     45 Energy:     -2984.439118  Gnorm:      0.001713  CPU:    6.134
  ** Hessian has required structure
  Cycle:     46 Energy:     -2984.439172  Gnorm:      0.001091  CPU:    6.270
  ** Hessian has required structure
  Cycle:     47 Energy:     -2984.439181  Gnorm:      0.000595  CPU:    6.393
  ** Hessian has required structure
  Cycle:     48 Energy:     -2984.439182  Gnorm:      0.000539  CPU:    6.505
  ** Hessian has required structure
  Cycle:     49 Energy:     -2984.439182  Gnorm:      0.000538  CPU:    6.631
  ** Hessian has required structure
  Cycle:     50 Energy:     -2984.439182  Gnorm:      0.000538  CPU:    6.836
  ** Hessian calculated **
  Cycle:     51 Energy:     -2984.439183  Gnorm:      0.000272  CPU:    6.963
  ** Hessian has required structure
  Cycle:     52 Energy:     -2984.439183  Gnorm:      0.000499  CPU:    7.066
  ** Hessian has required structure
  Cycle:     53 Energy:     -2984.439183  Gnorm:      0.000542  CPU:    7.169
  ** Hessian has required structure
  Cycle:     54 Energy:     -2984.439183  Gnorm:      0.000477  CPU:    7.270
  ** Hessian has required structure
  Cycle:     55 Energy:     -2984.439183  Gnorm:      0.000404  CPU:    7.371
  ** Hessian has required structure
  Cycle:     56 Energy:     -2984.439183  Gnorm:      0.000420  CPU:    7.473
  ** Hessian has required structure
  Cycle:     57 Energy:     -2984.439183  Gnorm:      0.000399  CPU:    7.574
  ** Hessian has required structure
  Cycle:     58 Energy:     -2984.439183  Gnorm:      0.000356  CPU:    7.675
  ** Hessian has required structure
  Cycle:     59 Energy:     -2984.439183  Gnorm:      0.000299  CPU:    7.776
  ** Hessian has required structure
  Cycle:     60 Energy:     -2984.439183  Gnorm:      0.000302  CPU:    7.877
  ** Hessian has required structure
  Cycle:     61 Energy:     -2984.439185  Gnorm:      0.000242  CPU:    8.043
  ** Hessian has required structure
  Cycle:     62 Energy:     -2984.439185  Gnorm:      0.000241  CPU:    8.159
  ** Hessian has required structure
  Cycle:     63 Energy:     -2984.439185  Gnorm:      0.000241  CPU:    8.261
  ** Hessian has required structure
  Cycle:     64 Energy:     -2984.439185  Gnorm:      0.000240  CPU:    8.365
  ** Hessian has required structure
  Cycle:     65 Energy:     -2984.439185  Gnorm:      0.000240  CPU:    8.464
  ** Hessian has required structure
  Cycle:     66 Energy:     -2984.439185  Gnorm:      0.000240  CPU:    8.568
  ** Hessian has required structure
  Cycle:     67 Energy:     -2984.439185  Gnorm:      0.000239  CPU:    8.672
  ** Hessian has required structure
  Cycle:     68 Energy:     -2984.439185  Gnorm:      0.000239  CPU:    8.777
  ** Hessian has required structure
  Cycle:     69 Energy:     -2984.439185  Gnorm:      0.000239  CPU:    8.883
  ** Hessian has required structure
  Cycle:     70 Energy:     -2984.439184  Gnorm:      0.000349  CPU:    9.062
  ** Hessian has required structure
  Cycle:     71 Energy:     -2984.439184  Gnorm:      0.000349  CPU:    9.280
  ** Hessian calculated **
  Cycle:     72 Energy:     -2984.439185  Gnorm:      0.000165  CPU:    9.415
  ** Hessian has required structure
  Cycle:     73 Energy:     -2984.439185  Gnorm:      0.000182  CPU:    9.523
  ** Hessian has required structure
  Cycle:     74 Energy:     -2984.439185  Gnorm:      0.000210  CPU:    9.630
  ** Hessian has required structure
  Cycle:     75 Energy:     -2984.439185  Gnorm:      0.000212  CPU:    9.736
  ** Hessian has required structure
  Cycle:     76 Energy:     -2984.439185  Gnorm:      0.000208  CPU:    9.841
  ** Hessian has required structure
  Cycle:     77 Energy:     -2984.439185  Gnorm:      0.000237  CPU:    9.946
  ** Hessian has required structure
  Cycle:     78 Energy:     -2984.439185  Gnorm:      0.000260  CPU:   10.054
  ** Hessian has required structure
  Cycle:     79 Energy:     -2984.439185  Gnorm:      0.000222  CPU:   10.162
  ** Hessian has required structure
  Cycle:     80 Energy:     -2984.439185  Gnorm:      0.000215  CPU:   10.270
  ** Hessian has required structure
  Cycle:     81 Energy:     -2984.439185  Gnorm:      0.000228  CPU:   10.378
  ** Hessian has required structure
  Cycle:     82 Energy:     -2984.439185  Gnorm:      0.000204  CPU:   10.554
  ** Hessian has required structure
  Cycle:     83 Energy:     -2984.439185  Gnorm:      0.000193  CPU:   10.664
  ** Hessian has required structure
  Cycle:     84 Energy:     -2984.439185  Gnorm:      0.000189  CPU:   10.815
  ** Hessian has required structure
  Cycle:     85 Energy:     -2984.439185  Gnorm:      0.000182  CPU:   10.924
  ** Hessian has required structure
  Cycle:     86 Energy:     -2984.439185  Gnorm:      0.000178  CPU:   11.048
  ** Hessian has required structure
  Cycle:     87 Energy:     -2984.439185  Gnorm:      0.000174  CPU:   11.157
  ** Hessian has required structure
  Cycle:     88 Energy:     -2984.439185  Gnorm:      0.000173  CPU:   11.280
  ** Hessian has required structure
  Cycle:     89 Energy:     -2984.439185  Gnorm:      0.000172  CPU:   11.403
  ** Hessian has required structure
  Cycle:     90 Energy:     -2984.439185  Gnorm:      0.000172  CPU:   11.512
  ** Hessian has required structure
  Cycle:     91 Energy:     -2984.439185  Gnorm:      0.000172  CPU:   11.620
  ** Hessian has required structure
  Cycle:     92 Energy:     -2984.439185  Gnorm:      0.000170  CPU:   11.908
  ** Hessian has required structure
  Cycle:     93 Energy:     -2984.439185  Gnorm:      0.000170  CPU:   12.015
  ** Hessian has required structure
  Cycle:     94 Energy:     -2984.439185  Gnorm:      0.000169  CPU:   12.124
  ** Hessian has required structure


  **** Too many failed attempts to optimise ****

  Final energy =   -2984.43918538 eV      
  Final Gnorm  =       0.00016947

  Components of energy : 

--------------------------------------------------------------------------------
  Interatomic potentials     =         793.78370560 eV    
  Three-body potentials      =           0.00836531 eV    
  Monopole - monopole (real) =       -1761.32847468 eV    
  Monopole - monopole (recip)=       -2016.90278161 eV    
  Monopole - monopole (total)=       -3778.23125629 eV    
--------------------------------------------------------------------------------
  Total lattice energy       =       -2984.43918538 eV    
--------------------------------------------------------------------------------
  Total lattice energy       =         -287952.7601 kJ/(mole unit cells)
--------------------------------------------------------------------------------

  Final fractional coordinates of atoms :

--------------------------------------------------------------------------------
   No.  Atomic        x           y          z          Radius
        Label       (Frac)      (Frac)     (Frac)       (Angs) 
--------------------------------------------------------------------------------
     1  Ge    c     0.052090    0.000000    0.372270    0.000000
     2  Ge    c     0.445115    0.956077    0.368616    0.000000
     3  Ge    c     0.948926    0.968246    0.629359    0.000000
     4  Ge    c     0.550860    0.992849    0.623593    0.000000
     5  Ge    c     0.557019    0.000351    0.126637    0.000000
     6  Ge    c     0.939343    0.951988    0.132214    0.000000
     7  Ge    c     0.445995    0.950829    0.880608    0.000000
     8  Ge    c     0.053612    0.987644    0.890082    0.000000
     9  Ge    c     0.847790    0.651876    0.697346    0.000000
    10  Ge    c     0.651612    0.309155    0.689423    0.000000
    11  Ge    c     0.170896    0.705554    0.254320    0.000000
    12  Ge    c     0.326329    0.250007    0.258831    0.000000
    13  Ge    c     0.345240    0.634565    0.934652    0.000000
    14  Ge    c     0.671888    0.706075    0.005853    0.000000
    15  Ge    c     0.824581    0.245510    0.004590    0.000000
    16  Si    c     0.149704    0.302003    0.257073    0.000000
    17  Si    c     0.347342    0.650852    0.251669    0.000000
    18  Si    c     0.829017    0.251201    0.692655    0.000000
    19  Si    c     0.669567    0.709131    0.695720    0.000000
    20  Si    c     0.647898    0.306248    0.002015    0.000000
    21  Si    c     0.849006    0.645750    0.007547    0.000000
    22  Si    c     0.329269    0.239749    0.946964    0.000000
    23  Si    c     0.167851    0.693351    0.940847    0.000000
    24  Si    c     0.153496    0.299178    0.950857    0.000000
    25  O3    c     0.086661    0.201227    0.336142    0.000000
    26  O3    c     0.410936    0.756035    0.328290    0.000000
    27  O3    c     0.878584    0.122844    0.604296    0.000000
    28  O3    c     0.622548    0.839766    0.606084    0.000000
    29  O1    c     0.907583    0.770753    0.605317    0.000000
    30  O1    c     0.591100    0.190243    0.596825    0.000000
    31  O1    c     0.120068    0.843744    0.349706    0.000000
    32  O1    c     0.376490    0.112337    0.355055    0.000000
    33  O1    c     0.026971    0.999798    0.536083    0.000000
    34  O1    c     0.473403    0.950717    0.531145    0.000000
    35  O1    c     0.968240    0.959270    0.293404    0.000000
    36  O1    c     0.527190    0.003846    0.287214    0.000000
    37  O1    c     0.976728    0.976032    0.791825    0.000000
    38  O1    c     0.520874    0.996492    0.785184    0.000000
    39  O3    c     0.587247    0.203682    0.086033    0.000000
    40  O3    c     0.906892    0.747826    0.098725    0.000000
    41  O3    c     0.370834    0.096017    0.862168    0.000000
    42  O3    c     0.116347    0.819315    0.855047    0.000000
    43  O1    c     0.407523    0.752498    0.847607    0.000000
    44  O3    c     0.100197    0.181616    0.864973    0.000000
    45  O1    c     0.627659    0.849067    0.106877    0.000000
    46  O1    c     0.870306    0.103959    0.103819    0.000000
    47  O1    c     0.477414    0.948341    0.040251    0.000000
    48  O1    c     0.021563    0.988339    0.048585    0.000000
    49  O3    c     0.154138    0.497407    0.305229    0.000000
    50  O3    c     0.341756    0.459599    0.308517    0.000000
    51  O3    c     0.842472    0.443850    0.641583    0.000000
    52  O3    c     0.656287    0.518357    0.638155    0.000000
    53  O3    c     0.230899    0.208390    0.274642    0.000000
    54  O3    c     0.266392    0.747066    0.268388    0.000000
    55  O3    c     0.740342    0.212188    0.683541    0.000000
    56  O3    c     0.758470    0.746964    0.695117    0.000000
    57  O2    c     0.126745    0.298496    0.102634    0.000000
    58  O3    c     0.369052    0.640650    0.099136    0.000000
    59  O3    c     0.855744    0.229833    0.844192    0.000000
    60  O3    c     0.639305    0.726250    0.845794    0.000000
    61  O3    c     0.879468    0.647204    0.858592    0.000000
    62  O3    c     0.621325    0.312011    0.851107    0.000000
    63  O3    c     0.144723    0.730055    0.092007    0.000000
    64  O3    c     0.356583    0.223633    0.098077    0.000000
    65  O3    c     0.655076    0.498442    0.057730    0.000000
    66  O3    c     0.840950    0.453079    0.059105    0.000000
    67  O3    c     0.349601    0.423396    0.885691    0.000000
    68  O2    c     0.152172    0.494778    0.900351    0.000000
    69  O3    c     0.728692    0.207636    0.010440    0.000000
    70  O3    c     0.767735    0.742645    0.010219    0.000000
    71  O2    c     0.238459    0.221134    0.945510    0.000000
    72  O3    c     0.255847    0.725663    0.918363    0.000000
    73  O3    s     0.090315    0.195441    0.330971    0.000000
    74  O3    s     0.407359    0.761733    0.323896    0.000000
    75  O3    s     0.879073    0.123742    0.615009    0.000000
    76  O3    s     0.621667    0.838603    0.616367    0.000000
    77  O1    s     0.905909    0.775698    0.614221    0.000000
    78  O1    s     0.592836    0.185146    0.605867    0.000000
    79  O1    s     0.118947    0.844581    0.343629    0.000000
    80  O1    s     0.377743    0.111391    0.348290    0.000000
    81  O1    s     0.022616    0.997305    0.531471    0.000000
    82  O1    s     0.477525    0.954471    0.526681    0.000000
    83  O1    s     0.972300    0.961754    0.287342    0.000000
    84  O1    s     0.523346    0.000040    0.281353    0.000000
    85  O1    s     0.980931    0.976344    0.787861    0.000000
    86  O1    s     0.516916    0.992471    0.781248    0.000000
    87  O3    s     0.590911    0.197784    0.080851    0.000000
    88  O3    s     0.903682    0.753869    0.092273    0.000000
    89  O3    s     0.372259    0.099880    0.872367    0.000000
    90  O3    s     0.116716    0.819504    0.866308    0.000000
    91  O1    s     0.405410    0.757494    0.856791    0.000000
    92  O3    s     0.102263    0.179421    0.875758    0.000000
    93  O1    s     0.625835    0.849047    0.100199    0.000000
    94  O1    s     0.871935    0.103714    0.097930    0.000000
    95  O1    s     0.481089    0.952485    0.034926    0.000000
    96  O1    s     0.017814    0.985520    0.042879    0.000000
    97  O3    s     0.155013    0.494403    0.296475    0.000000
    98  O3    s     0.341088    0.461579    0.299118    0.000000
    99  O3    s     0.841630    0.442667    0.650991    0.000000
   100  O3    s     0.657153    0.519089    0.647761    0.000000
   101  O3    s     0.230743    0.220508    0.271735    0.000000
   102  O3    s     0.266409    0.734835    0.265721    0.000000
   103  O3    s     0.742045    0.223636    0.684906    0.000000
   104  O3    s     0.756735    0.735832    0.695364    0.000000
   105  O2    s     0.131884    0.298918    0.102547    0.000000
   106  O3    s     0.364957    0.641185    0.100963    0.000000
   107  O3    s     0.850819    0.232983    0.843027    0.000000
   108  O3    s     0.644535    0.723212    0.844551    0.000000
   109  O3    s     0.874099    0.647463    0.860213    0.000000
   110  O3    s     0.626293    0.311217    0.852933    0.000000
   111  O3    s     0.148969    0.724751    0.090794    0.000000
   112  O3    s     0.351695    0.227139    0.096558    0.000000
   113  O3    s     0.655690    0.496043    0.048280    0.000000
   114  O3    s     0.840461    0.455746    0.049786    0.000000
   115  O3    s     0.347303    0.423233    0.895536    0.000000
   116  O2    s     0.153889    0.494082    0.909782    0.000000
   117  O3    s     0.728787    0.219850    0.009177    0.000000
   118  O3    s     0.767638    0.730605    0.009606    0.000000
   119  O2    s     0.239112    0.231320    0.946271    0.000000
   120  O3    s     0.254092    0.715166    0.921915    0.000000
--------------------------------------------------------------------------------

  Final Cartesian lattice vectors (Angstroms) :

       17.655411    0.113412   -0.010434
        0.050370    7.787665   -0.021721
       -0.007332   -0.030217   10.165264


  Final cell parameters and derivatives :

--------------------------------------------------------------------------------
       a           17.655778 Angstrom     dE/de1(xx)    -0.002741 eV/strain
       b            7.787858 Angstrom     dE/de2(yy)    -0.000184 eV/strain
       c           10.165311 Angstrom     dE/de3(zz)     0.008176 eV/strain
       alpha       90.330384 Degrees      dE/de4(yz)    -0.001098 eV/strain
       beta        90.076280 Degrees      dE/de5(xz)     0.000368 eV/strain
       gamma       89.261288 Degrees      dE/de6(xy)     0.002958 eV/strain
--------------------------------------------------------------------------------

  Primitive cell volume =          1397.596887 Angs**3

  Density of cell =      2.506965 g/cm**3

  Non-primitive cell volume =          1397.596887 Angs**3


  Final internal derivatives :

--------------------------------------------------------------------------------
   No.  Atomic          a             b             c           Radius
        Label          (eV)          (eV)          (eV)        (eV/Angs)
--------------------------------------------------------------------------------
      1 Ge    c       0.000000      0.000000      0.000000      0.000000
      2 Ge    c      -0.006606      0.002007     -0.001343      0.000000
      3 Ge    c      -0.005937      0.002410     -0.002182      0.000000
      4 Ge    c       0.008210     -0.001808     -0.000915      0.000000
      5 Ge    c       0.010315     -0.001936      0.000841      0.000000
      6 Ge    c      -0.005304      0.000671     -0.001826      0.000000
      7 Ge    c      -0.007143      0.001135      0.001277      0.000000
      8 Ge    c       0.002840     -0.002272     -0.001375      0.000000
      9 Ge    c      -0.005590      0.000720     -0.003465      0.000000
     10 Ge    c       0.005387     -0.001316     -0.003312      0.000000
     11 Ge    c       0.001761      0.001040      0.003704      0.000000
     12 Ge    c      -0.001779     -0.000664      0.003642      0.000000
     13 Ge    c      -0.002354      0.000727     -0.003286      0.000000
     14 Ge    c       0.001882      0.002191      0.004222      0.000000
     15 Ge    c      -0.003066     -0.001697      0.002839      0.000000
     16 Si    c       0.004446     -0.000516      0.003627      0.000000
     17 Si    c      -0.002764      0.001690      0.004010      0.000000
     18 Si    c       0.001432     -0.002909     -0.004907      0.000000
     19 Si    c       0.000596      0.002362     -0.004343      0.000000
     20 Si    c       0.006165     -0.001722      0.005098      0.000000
     21 Si    c      -0.005060      0.002079      0.003351      0.000000
     22 Si    c       0.000828     -0.003221     -0.005206      0.000000
     23 Si    c      -0.000623      0.001474     -0.003829      0.000000
     24 Si    c       0.003285     -0.000067     -0.003020      0.000000
     25 O3    c      -0.002096      0.001120      0.001088      0.000000
     26 O3    c       0.000828     -0.000771     -0.000958      0.000000
     27 O3    c       0.003143     -0.000175      0.004150      0.000000
     28 O3    c      -0.006323      0.001164      0.001663      0.000000
     29 O1    c      -0.001655     -0.001134      0.000159      0.000000
     30 O1    c       0.001935      0.000945      0.000394      0.000000
     31 O1    c      -0.004455      0.000455     -0.002419      0.000000
     32 O1    c       0.012687     -0.004755     -0.000338      0.000000
     33 O1    c      -0.001969      0.000094      0.006645      0.000000
     34 O1    c       0.001222      0.000568      0.005130      0.000000
     35 O1    c       0.004728     -0.000860      0.005763      0.000000
     36 O1    c       0.004174      0.000896      0.003188      0.000000
     37 O1    c      -0.000723     -0.000049      0.008751      0.000000
     38 O1    c       0.006975     -0.000434      0.004796      0.000000
     39 O3    c       0.003762      0.003098      0.000586      0.000000
     40 O3    c      -0.002776     -0.002171     -0.001585      0.000000
     41 O3    c       0.003624      0.001116      0.003833      0.000000
     42 O3    c      -0.003754      0.001437      0.002618      0.000000
     43 O1    c       0.004150      0.000793      0.001637      0.000000
     44 O3    c      -0.000876      0.000995     -0.000727      0.000000
     45 O1    c      -0.007609      0.001926      0.000198      0.000000
     46 O1    c       0.004919     -0.001791      0.000577      0.000000
     47 O1    c      -0.010835      0.001770     -0.000463      0.000000
     48 O1    c      -0.001739     -0.002680      0.005841      0.000000
     49 O3    c      -0.001125     -0.000072      0.002432      0.000000
     50 O3    c       0.000176     -0.002134      0.003011      0.000000
     51 O3    c       0.001230      0.001851     -0.002302      0.000000
     52 O3    c      -0.000333     -0.000463     -0.002433      0.000000
     53 O3    c      -0.003357      0.000300      0.000593      0.000000
     54 O3    c       0.000468      0.000121      0.001234      0.000000
     55 O3    c      -0.006038     -0.001030     -0.000081      0.000000
     56 O3    c       0.006910      0.001180      0.000175      0.000000
     57 O2    c      -0.001827     -0.000304     -0.000536      0.000000
     58 O3    c       0.006703      0.000672     -0.001121      0.000000
     59 O3    c       0.007380     -0.002018      0.001137      0.000000
     60 O3    c      -0.008005      0.002076     -0.001110      0.000000
     61 O3    c       0.004887      0.000785      0.000655      0.000000
     62 O3    c      -0.005624     -0.000774     -0.001927      0.000000
     63 O3    c      -0.006360      0.001971     -0.001798      0.000000
     64 O3    c       0.010797     -0.001941      0.000775      0.000000
     65 O3    c      -0.000143     -0.002682      0.002188      0.000000
     66 O3    c      -0.000660      0.000788      0.002086      0.000000
     67 O3    c       0.004517      0.001410     -0.002632      0.000000
     68 O2    c      -0.003151      0.001040     -0.000210      0.000000
     69 O3    c      -0.003421     -0.001282     -0.000367      0.000000
     70 O3    c       0.007087      0.001644     -0.000085      0.000000
     71 O2    c      -0.000867      0.000303     -0.000331      0.000000
     72 O3    c       0.000548     -0.000209     -0.000530      0.000000
     73 O3    s       0.001219     -0.001137     -0.000800      0.000000
     74 O3    s      -0.000302      0.000567      0.000455      0.000000
     75 O3    s      -0.001586      0.000153     -0.003111      0.000000
     76 O3    s       0.003361     -0.001764     -0.001616      0.000000
     77 O1    s       0.002845      0.001156     -0.000184      0.000000
     78 O1    s      -0.003800     -0.000464     -0.000448      0.000000
     79 O1    s       0.004312     -0.000273      0.002825      0.000000
     80 O1    s      -0.010162      0.002667      0.001082      0.000000
     81 O1    s       0.002578     -0.000212     -0.005659      0.000000
     82 O1    s      -0.003929      0.000244     -0.003779      0.000000
     83 O1    s      -0.003105      0.000267     -0.004156      0.000000
     84 O1    s      -0.004137     -0.000803     -0.002404      0.000000
     85 O1    s       0.002036     -0.000880     -0.006826      0.000000
     86 O1    s      -0.005472      0.000355     -0.004527      0.000000
     87 O3    s      -0.005317     -0.001976     -0.001274      0.000000
     88 O3    s       0.004678      0.000307      0.001043      0.000000
     89 O3    s      -0.003856      0.000171     -0.004554      0.000000
     90 O3    s       0.002897     -0.000639     -0.002153      0.000000
     91 O1    s      -0.003348     -0.000572     -0.002441      0.000000
     92 O3    s       0.000377     -0.001140      0.000886      0.000000
     93 O1    s       0.003834     -0.003814     -0.000555      0.000000
     94 O1    s      -0.000797      0.003583      0.000442      0.000000
     95 O1    s       0.004340      0.001698      0.000233      0.000000
     96 O1    s       0.003533      0.001109     -0.004304      0.000000
     97 O3    s       0.000375      0.000024     -0.003528      0.000000
     98 O3    s       0.000262      0.001628     -0.004169      0.000000
     99 O3    s      -0.000810     -0.000749      0.003149      0.000000
    100 O3    s      -0.000296     -0.000141      0.003414      0.000000
    101 O3    s       0.002775      0.000219     -0.001349      0.000000
    102 O3    s      -0.000082     -0.000991     -0.001758      0.000000
    103 O3    s       0.002732      0.000668      0.000820      0.000000
    104 O3    s      -0.004709     -0.000889      0.000992      0.000000
    105 O2    s      -0.000064      0.000525      0.000575      0.000000
    106 O3    s      -0.007384     -0.001705      0.001008      0.000000
    107 O3    s      -0.006068      0.002168     -0.000201      0.000000
    108 O3    s       0.006071     -0.002420      0.001097      0.000000
    109 O3    s      -0.002903     -0.001889     -0.000740      0.000000
    110 O3    s       0.003454      0.001598      0.001288      0.000000
    111 O3    s       0.005757     -0.002268      0.002084      0.000000
    112 O3    s      -0.010532      0.002945     -0.000520      0.000000
    113 O3    s       0.000281      0.001060     -0.003455      0.000000
    114 O3    s       0.000717      0.000242     -0.002913      0.000000
    115 O3    s      -0.004283     -0.000243      0.003913      0.000000
    116 O2    s       0.002807     -0.000933      0.001125      0.000000
    117 O3    s       0.002786     -0.000362     -0.001208      0.000000
    118 O3    s      -0.005149      0.000553     -0.000859      0.000000
    119 O2    s      -0.000295      0.000623      0.001708      0.000000
    120 O3    s       0.000384     -0.000531      0.001326      0.000000
--------------------------------------------------------------------------------
  Maximum abs         0.012687      0.004755      0.008751      0.000000
--------------------------------------------------------------------------------


  Born effective charge tensors : 

-------------------------------------------------------------------------------
  Atom             x           y             z
-------------------------------------------------------------------------------
    1 Ge    x       4.2274      0.1691     -0.4967
            y      -0.1637      3.9370     -0.0381
            z      -0.2501      0.0224      4.5413
-------------------------------------------------------------------------------
    2 Ge    x       4.2595      0.1466      0.4719
            y      -0.1654      3.9297      0.0657
            z       0.2561     -0.0866      4.5004
-------------------------------------------------------------------------------
    3 Ge    x       4.2229      0.2307      0.1281
            y      -0.0341      3.9287     -0.0214
            z      -0.8376     -0.1329      4.2968
-------------------------------------------------------------------------------
    4 Ge    x       4.2357      0.2509     -0.0876
            y      -0.0353      3.9248     -0.0107
            z       0.8371      0.1801      4.2503
-------------------------------------------------------------------------------
    5 Ge    x       4.3678      0.1611     -0.4323
            y      -0.1915      3.9275     -0.0976
            z      -0.3656      0.0082      3.9505
-------------------------------------------------------------------------------
    6 Ge    x       4.3960      0.1532      0.4280
            y      -0.1675      3.9284      0.0539
            z       0.3680      0.0369      3.9434
-------------------------------------------------------------------------------
    7 Ge    x       4.3990      0.2616      0.0449
            y      -0.0668      3.9517      0.0558
            z      -0.7173     -0.1482      3.6305
-------------------------------------------------------------------------------
    8 Ge    x       4.3418      0.1247     -0.0500
            y      -0.0499      3.9515      0.0035
            z       0.7444      0.0823      3.6161
-------------------------------------------------------------------------------
    9 Ge    x       3.8682      0.1848     -0.2845
            y       0.4867      4.1064     -0.1677
            z      -0.0878     -0.2286      3.4605
-------------------------------------------------------------------------------
   10 Ge    x       3.8626      0.1731      0.2666
            y       0.4869      4.1131      0.1768
            z       0.0978      0.2307      3.4595
-------------------------------------------------------------------------------
   11 Ge    x       3.8457     -0.2613     -0.2709
            y      -0.3224      4.1768      0.1935
            z      -0.0895      0.2300      3.5201
-------------------------------------------------------------------------------
   12 Ge    x       3.8650     -0.2596      0.3083
            y      -0.3366      4.1280     -0.1858
            z       0.0946     -0.2325      3.5113
-------------------------------------------------------------------------------
   13 Ge    x       3.9591      0.2043     -0.2707
            y       0.4556      4.1256     -0.1661
            z      -0.1639     -0.2038      3.3250
-------------------------------------------------------------------------------
   14 Ge    x       3.8813     -0.2517     -0.3820
            y      -0.2878      4.1477      0.1963
            z      -0.0678      0.2443      3.4235
-------------------------------------------------------------------------------
   15 Ge    x       3.8997     -0.2488      0.3641
            y      -0.2938      4.1500     -0.1986
            z       0.0803     -0.2551      3.4386
-------------------------------------------------------------------------------
   16 Si    x       3.6514      0.1036     -0.2717
            y       0.4435      3.8835     -0.1159
            z      -0.2128     -0.1748      3.0767
-------------------------------------------------------------------------------
   17 Si    x       3.7103      0.1267      0.1708
            y       0.4633      3.9037      0.0988
            z       0.1405      0.1949      3.3302
-------------------------------------------------------------------------------
   18 Si    x       3.7414     -0.2583     -0.2625
            y      -0.2963      3.8971      0.0795
            z      -0.0568      0.1182      3.2847
-------------------------------------------------------------------------------
   19 Si    x       3.7253     -0.2561      0.2958
            y      -0.2842      3.8964     -0.0800
            z       0.0546     -0.1368      3.2936
-------------------------------------------------------------------------------
   20 Si    x       3.7593      0.1003     -0.2817
            y       0.4314      3.8943     -0.1091
            z      -0.1479     -0.1858      3.2491
-------------------------------------------------------------------------------
   21 Si    x       3.7434      0.0964      0.3184
            y       0.4264      3.8875      0.1161
            z       0.1357      0.1617      3.2435
-------------------------------------------------------------------------------
   22 Si    x       3.4138     -0.3668     -0.3179
            y      -0.2835      3.8810      0.0520
            z      -0.0925      0.1110      3.1650
-------------------------------------------------------------------------------
   23 Si    x       3.7319     -0.3270      0.1744
            y      -0.3677      3.6761     -0.2000
            z       0.0344     -0.1591      3.0995
-------------------------------------------------------------------------------
   24 Si    x       3.3225      0.2820      0.3507
            y       0.4466      3.5003      0.2348
            z       0.1683      0.2302      2.8053
-------------------------------------------------------------------------------
   25 O3    x      -1.9676     -0.8668      0.5810
            y      -0.8331     -2.2855      0.5520
            z       0.5451      0.5621     -1.6243
-------------------------------------------------------------------------------
   26 O3    x      -1.9861     -0.8716     -0.5492
            y      -0.8430     -2.3135     -0.5445
            z      -0.5223     -0.5451     -1.5801
-------------------------------------------------------------------------------
   27 O3    x      -2.0550      0.8697      0.3416
            y       0.9399     -2.1912     -0.3679
            z       0.4404     -0.3958     -1.5431
-------------------------------------------------------------------------------
   28 O3    x      -2.0323      0.8584     -0.3693
            y       0.9286     -2.2116      0.4172
            z      -0.4499      0.4303     -1.5470
-------------------------------------------------------------------------------
   29 O1    x      -2.0246     -0.9338      0.3505
            y      -0.9168     -2.5817      0.3290
            z       0.4332      0.3605     -1.6184
-------------------------------------------------------------------------------
   30 O1    x      -2.0214     -0.9226     -0.3420
            y      -0.9074     -2.5776     -0.2993
            z      -0.4333     -0.3432     -1.6207
-------------------------------------------------------------------------------
   31 O1    x      -2.1759      0.9494      0.5583
            y       1.0365     -2.4607     -0.5727
            z       0.5336     -0.5711     -1.7093
-------------------------------------------------------------------------------
   32 O1    x      -2.1947      0.9659     -0.5416
            y       1.0236     -2.4329      0.5281
            z      -0.5161      0.5589     -1.6958
-------------------------------------------------------------------------------
   33 O1    x      -2.1337     -0.1654      0.9619
            y      -0.0538     -1.2839      0.0858
            z       1.1969      0.1627     -3.1978
-------------------------------------------------------------------------------
   34 O1    x      -2.1606     -0.1870     -0.9785
            y      -0.0645     -1.2871     -0.0809
            z      -1.2199     -0.1551     -3.1550
-------------------------------------------------------------------------------
   35 O1    x      -2.2208     -0.2324     -0.7892
            y      -0.1298     -1.3131     -0.1386
            z      -0.8130     -0.1629     -2.7199
-------------------------------------------------------------------------------
   36 O1    x      -2.2183     -0.2318      0.8193
            y      -0.1287     -1.3195      0.1298
            z       0.8276      0.1434     -2.7265
-------------------------------------------------------------------------------
   37 O1    x      -2.2699     -0.0931     -0.9522
            y      -0.0062     -1.3397     -0.0318
            z      -0.9134     -0.0546     -2.6470
-------------------------------------------------------------------------------
   38 O1    x      -2.2337     -0.1928      0.9087
            y      -0.0640     -1.3431      0.0750
            z       0.8787      0.1306     -2.6047
-------------------------------------------------------------------------------
   39 O3    x      -1.9839     -0.8384      0.6013
            y      -0.7652     -2.3098      0.5902
            z       0.5154      0.5584     -1.5305
-------------------------------------------------------------------------------
   40 O3    x      -1.9494     -0.8263     -0.6041
            y      -0.7543     -2.3032     -0.5822
            z      -0.5095     -0.5547     -1.5509
-------------------------------------------------------------------------------
   41 O3    x      -2.0615      0.8812      0.3400
            y       0.9304     -2.2759     -0.4142
            z       0.4048     -0.4249     -1.4037
-------------------------------------------------------------------------------
   42 O3    x      -2.0168      0.8930     -0.3148
            y       0.9384     -2.3174      0.3331
            z      -0.4129      0.3787     -1.4120
-------------------------------------------------------------------------------
   43 O1    x      -2.1028     -0.9299      0.3268
            y      -0.9027     -2.6047      0.2444
            z       0.4177      0.3041     -1.4727
-------------------------------------------------------------------------------
   44 O3    x      -1.9831     -0.9389     -0.3912
            y      -0.8893     -2.3909     -0.3681
            z      -0.4402     -0.4138     -1.4146
-------------------------------------------------------------------------------
   45 O1    x      -2.1972      0.9484      0.5737
            y       0.9682     -2.4279     -0.5747
            z       0.4850     -0.5564     -1.6256
-------------------------------------------------------------------------------
   46 O1    x      -2.1977      0.9451     -0.6065
            y       0.9764     -2.4423      0.6184
            z      -0.5197      0.5815     -1.6425
-------------------------------------------------------------------------------
   47 O1    x      -2.2873     -0.2213     -0.7541
            y      -0.1136     -1.3766     -0.1038
            z      -0.4831     -0.0789     -2.2072
-------------------------------------------------------------------------------
   48 O1    x      -2.3295     -0.1890      0.7769
            y      -0.1188     -1.3687      0.1047
            z       0.4962      0.0616     -2.1847
-------------------------------------------------------------------------------
   49 O3    x      -1.2509     -0.1455      0.0671
            y      -0.2383     -3.0855     -0.0832
            z       0.0361     -0.0891     -1.2925
-------------------------------------------------------------------------------
   50 O3    x      -1.2712     -0.1668     -0.0642
            y      -0.2364     -3.0329      0.1270
            z      -0.0369      0.1055     -1.2970
-------------------------------------------------------------------------------
   51 O3    x      -1.2677     -0.1131      0.0885
            y      -0.1999     -3.0228      0.0529
            z       0.0459      0.0443     -1.2839
-------------------------------------------------------------------------------
   52 O3    x      -1.2645     -0.1026     -0.0946
            y      -0.1914     -3.0114     -0.1057
            z      -0.0496     -0.0739     -1.2959
-------------------------------------------------------------------------------
   53 O3    x      -2.8290      0.2457     -0.0317
            y       0.1953     -1.4783      0.0622
            z      -0.0330      0.0840     -1.1855
-------------------------------------------------------------------------------
   54 O3    x      -2.8258      0.2471      0.0159
            y       0.1915     -1.5088     -0.0525
            z      -0.0120     -0.0756     -1.1620
-------------------------------------------------------------------------------
   55 O3    x      -2.9063      0.1383     -0.0152
            y       0.0566     -1.4456     -0.0257
            z      -0.0211     -0.0523     -1.1522
-------------------------------------------------------------------------------
   56 O3    x      -2.9193      0.1369     -0.0233
            y       0.0642     -1.4457      0.0176
            z      -0.0110      0.0476     -1.1481
-------------------------------------------------------------------------------
   57 O2    x      -1.2367     -0.0676      0.0330
            y      -0.1151     -1.2488      0.0172
            z       0.0212      0.0025     -2.0293
-------------------------------------------------------------------------------
   58 O3    x      -1.3466     -0.0620      0.0533
            y      -0.1177     -1.3671     -0.0831
            z       0.0575     -0.0573     -2.6119
-------------------------------------------------------------------------------
   59 O3    x      -1.3949      0.1125     -0.0452
            y       0.1253     -1.3729     -0.0006
            z      -0.0354      0.0365     -2.5581
-------------------------------------------------------------------------------
   60 O3    x      -1.4200      0.1133      0.0778
            y       0.1317     -1.3690      0.0311
            z       0.0653      0.0046     -2.5347
-------------------------------------------------------------------------------
   61 O3    x      -1.4080     -0.0527      0.0381
            y      -0.1183     -1.3498     -0.0088
            z       0.0262      0.0221     -2.5358
-------------------------------------------------------------------------------
   62 O3    x      -1.3809     -0.0471     -0.0147
            y      -0.1127     -1.3557      0.0438
            z      -0.0055      0.0194     -2.5691
-------------------------------------------------------------------------------
   63 O3    x      -1.3460      0.1322     -0.0028
            y       0.1395     -1.4227     -0.0589
            z      -0.0109     -0.0630     -2.5381
-------------------------------------------------------------------------------
   64 O3    x      -1.4209      0.1248     -0.0696
            y       0.1322     -1.3541     -0.0239
            z      -0.0194     -0.0191     -2.5317
-------------------------------------------------------------------------------
   65 O3    x      -1.3117     -0.1864      0.0828
            y      -0.2592     -3.0312     -0.1034
            z       0.0362     -0.0813     -1.2512
-------------------------------------------------------------------------------
   66 O3    x      -1.3106     -0.1888     -0.0849
            y      -0.2678     -3.0407      0.0753
            z      -0.0357      0.0590     -1.2434
-------------------------------------------------------------------------------
   67 O3    x      -1.3345     -0.1509      0.1426
            y      -0.1994     -2.9518      0.1508
            z       0.1010      0.1070     -1.2491
-------------------------------------------------------------------------------
   68 O2    x      -1.1767     -0.0538     -0.0811
            y      -0.0869     -2.4322      0.0743
            z      -0.0500      0.0662     -1.0987
-------------------------------------------------------------------------------
   69 O3    x      -2.8762      0.2741     -0.0027
            y       0.2071     -1.5093      0.0378
            z       0.0176      0.0620     -1.1328
-------------------------------------------------------------------------------
   70 O3    x      -2.8800      0.2742     -0.0263
            y       0.2065     -1.4991     -0.0276
            z      -0.0388     -0.0480     -1.1328
-------------------------------------------------------------------------------
   71 O2    x      -2.3219      0.1937      0.0331
            y       0.1206     -1.3033     -0.0269
            z       0.0282     -0.0454     -1.0257
-------------------------------------------------------------------------------
   72 O3    x      -2.9271      0.1350      0.0632
            y       0.0279     -1.4493      0.0458
            z       0.0601      0.0620     -1.1216
-------------------------------------------------------------------------------




  Elastic Constant Matrix: (Units=GPa)

-------------------------------------------------------------------------------
  Indices      1         2         3         4         5         6    
-------------------------------------------------------------------------------
       1     29.0677   12.9523    8.6859    0.3692    0.5489    8.0145
       2     12.9523   39.9933    6.5867   -0.3420   -0.0316   10.1580
       3      8.6859    6.5867   13.1518   -0.1331   -0.1632    2.2892
       4      0.3692   -0.3420   -0.1331    7.7454    0.8259   -0.4180
       5      0.5489   -0.0316   -0.1632    0.8259   17.8596   -0.8146
       6      8.0145   10.1580    2.2892   -0.4180   -0.8146   22.7534
-------------------------------------------------------------------------------


  Elastic Compliance Matrix: (Units=1/GPa)

-------------------------------------------------------------------------------
  Indices      1         2         3         4         5         6    
-------------------------------------------------------------------------------
       1    0.049310 -0.008909 -0.026271 -0.003559 -0.002103 -0.010889
       2   -0.008909  0.031865 -0.008283  0.001165 -0.000267 -0.010242
       3   -0.026271 -0.008283  0.097007  0.002550  0.001712  0.003300
       4   -0.003559  0.001165  0.002550  0.130132 -0.005762  0.002661
       5   -0.002103 -0.000267  0.001712 -0.005762  0.056457  0.002603
       6   -0.010889 -0.010242  0.003300  0.002661  0.002603  0.052168
-------------------------------------------------------------------------------

  Mechanical properties :

-------------------------------------------------------------------------------
  Convention :                    Reuss         Voigt         Hill
-------------------------------------------------------------------------------
  Bulk  Modulus (GPa)     =      10.95838      15.40696      13.18267
  Shear Modulus (GPa)     =       9.35832      13.27086      11.31459
-------------------------------------------------------------------------------
  Velocity S-wave (km/s)  =       1.93208       2.30078       2.12444
  Velocity P-wave (km/s)  =       3.05752       3.63370       3.35799
-------------------------------------------------------------------------------
  Compressibility (1/GPa) =    0.09125439
-------------------------------------------------------------------------------
  Stress axis :                     x             y             z
-------------------------------------------------------------------------------
  Youngs Moduli (GPa)     =      20.28004      31.38236      10.30855
-------------------------------------------------------------------------------
  Poissons Ratio (x)      =                     0.27959       0.27081
  Poissons Ratio (y)      =       0.18068                     0.08539
  Poissons Ratio (z)      =       0.53277       0.25995
-------------------------------------------------------------------------------


  Piezoelectric Strain Matrix: (Units=C/m**2)

-------------------------------------------------------------------------------
  Indices      1         2         3         4         5         6    
-------------------------------------------------------------------------------
       x    -0.17703  -0.03185  -0.08372   0.02043  -0.58313   0.13689
       y     0.24484  -0.16804  -0.15339  -0.86793  -0.44704  -0.23958
       z    -0.06430   0.57742   0.99148  -0.01389   0.07995  -0.41287
-------------------------------------------------------------------------------


  Piezoelectric Stress Matrix: (Units=10**-11 C/N)

-------------------------------------------------------------------------------
  Indices      1         2         3         4         5         6    
-------------------------------------------------------------------------------
       x    -0.65829   0.00330  -0.37010   0.67619  -3.24461   0.76554
       y     2.42375  -0.47033  -2.36890 -11.24660  -2.15945  -1.74227
       z    -2.99853   1.49509   9.18257   0.00622   0.51974  -2.33096
-------------------------------------------------------------------------------


  Static dielectric constant tensor : 

-------------------------------------------------------------------------------
              x         y         z
-------------------------------------------------------------------------------
       x     5.06776   0.08367   0.00699
       y     0.08367   5.71858  -0.03182
       z     0.00699  -0.03182   4.24171
--------------------------------------------------------------------------------

  High frequency dielectric constant tensor : 

-------------------------------------------------------------------------------
              x         y         z
-------------------------------------------------------------------------------
       x     1.57790   0.00277   0.00006
       y     0.00277   1.58653  -0.00019
       z     0.00006  -0.00019   1.52907
-------------------------------------------------------------------------------

  Static refractive indices : 

-------------------------------------------------------------------------------
    1 =    2.05935      2 =    2.24885      3 =    2.39370
-------------------------------------------------------------------------------

  High frequency refractive indices : 

-------------------------------------------------------------------------------
    1 =    1.23656      2 =    1.25582      3 =    1.25990
-------------------------------------------------------------------------------


  Time to end of optimisation =      12.3786 seconds


  Peak dynamic memory used =       5.01 MB 


  Timing analysis for GULP :

--------------------------------------------------------------------------------
  Task / Subroutine                                          Time (Seconds)
--------------------------------------------------------------------------------
  Calculation of reciprocal space energy and derivatives          0.7209
  Calculation of real space energy and derivatives                7.9542
  Calculation of three-body energy and derivatives                0.1405
  Calculation and manipulation of Hessian matrix                  3.8362
  Calculation of matrix inversion                                 0.0387
  Global summation overhead                                       0.0001
--------------------------------------------------------------------------------
  Total CPU time                                                 12.3786
--------------------------------------------------------------------------------


  Dump file written as POSCAR_N0015.vasp.grs
  CIF file written as POSCAR_N0015.vasp.cif


  Job Finished at 11:30.26 31st October    2025                               

