********************************************************************************
*                       GENERAL UTILITY LATTICE PROGRAM                        *
*                                 Julian Gale                                  *
*                       Curtin Institute for Computation                       *
*                    School of Molecular and Life Sciences                     *
*                    Curtin University, Western Australia                      *
********************************************************************************
* Version = 6.1.2 * Last modified =   3rd November 2022                        *
********************************************************************************
*  optimise     - perform optimisation run                                     *
*  conp         - constant pressure calculation                                *
*  property     - calculate properties for final geometry                      *
********************************************************************************

  Job Started  at 11:30.45 31st October    2025                               

  Number of CPUs =     1


  Total number of configurations input =      1

********************************************************************************
*  Input for Configuration =   1 : POSCAR_N0018.vasp                           *
********************************************************************************

  Formula = Ge18Si6O48                                                  

  Number of irreducible atoms/shells =     120


  Total number atoms/shells =     120

  Dimensionality = 3               :  Bulk   



  Cartesian lattice vectors (Angstroms) :

       17.182800    0.000000    0.000000
        0.000000    7.513760    0.000000
        0.000000    0.000000   10.447700

  Cell parameters (Angstroms/Degrees):

  a =      17.1828    alpha =  90.0000
  b =       7.5138    beta  =  90.0000
  c =      10.4477    gamma =  90.0000

  Initial cell volume =        1348.875752 Angs**3

  Temperature of configuration =   0.00     K 

  Pressure of configuration =         0.000 GPa 

  Fractional coordinates of asymmetric unit :

--------------------------------------------------------------------------------
   No.  Atomic       x           y          z         Charge      Occupancy
        Label      (Frac)      (Frac)     (Frac)        (e)         (Frac)  
--------------------------------------------------------------------------------
      1 Ge    c    0.052090    0.000000    0.372270     4.00000    1.000000    
      2 Ge    c    0.447910 *  0.000000 *  0.372270 *   4.00000    1.000000    
      3 Ge    c    0.947910 *  0.000000 *  0.627730 *   4.00000    1.000000    
      4 Ge    c    0.552090 *  0.000000 *  0.627730 *   4.00000    1.000000    
      5 Ge    c    0.556730 *  0.000000 *  0.122130 *   4.00000    1.000000    
      6 Ge    c    0.943270 *  0.000000 *  0.122130 *   4.00000    1.000000    
      7 Ge    c    0.443270 *  0.000000 *  0.877870 *   4.00000    1.000000    
      8 Ge    c    0.056730 *  0.000000 *  0.877870 *   4.00000    1.000000    
      9 Ge    c    0.160190 *  0.293910 *  0.273440 *   4.00000    1.000000    
     10 Ge    c    0.339810 *  0.706090 *  0.273440 *   4.00000    1.000000    
     11 Ge    c    0.839810 *  0.293910 *  0.726560 *   4.00000    1.000000    
     12 Ge    c    0.660190 *  0.706090 *  0.726560 *   4.00000    1.000000    
     13 Ge    c    0.839810 *  0.706090 *  0.726560 *   4.00000    1.000000    
     14 Ge    c    0.660660 *  0.294090 *  0.017440 *   4.00000    1.000000    
     15 Ge    c    0.839340 *  0.705910 *  0.017440 *   4.00000    1.000000    
     16 Ge    c    0.339340 *  0.294090 *  0.982560 *   4.00000    1.000000    
     17 Ge    c    0.160660 *  0.705910 *  0.982560 *   4.00000    1.000000    
     18 Ge    c    0.160660 *  0.294090 *  0.982560 *   4.00000    1.000000    
     19 Si    c    0.660190 *  0.293910 *  0.726560 *   4.00000    1.000000    
     20 Si    c    0.160190 *  0.706090 *  0.273440 *   4.00000    1.000000    
     21 Si    c    0.339810 *  0.293910 *  0.273440 *   4.00000    1.000000    
     22 Si    c    0.339340 *  0.705910 *  0.982560 *   4.00000    1.000000    
     23 Si    c    0.660660 *  0.705910 *  0.017440 *   4.00000    1.000000    
     24 Si    c    0.839340 *  0.294090 *  0.017440 *   4.00000    1.000000    
     25 O1    c    0.106570 *  0.174340 *  0.366200 *   1.73396    1.000000    
     26 O1    c    0.393430 *  0.825660 *  0.366200 *   1.73396    1.000000    
     27 O1    c    0.893430 *  0.174340 *  0.633800 *   1.73396    1.000000    
     28 O1    c    0.606570 *  0.825660 *  0.633800 *   1.73396    1.000000    
     29 O1    c    0.893430 *  0.825660 *  0.633800 *   1.73396    1.000000    
     30 O3    c    0.606570 *  0.174340 *  0.633800 *   1.33043    1.000000    
     31 O3    c    0.106570 *  0.825660 *  0.366200 *   1.33043    1.000000    
     32 O3    c    0.393430 *  0.174340 *  0.366200 *   1.33043    1.000000    
     33 O1    c    0.000000 *  0.000000 *  0.500000 *   1.73396    1.000000    
     34 O1    c    0.500000 *  0.000000 *  0.500000 *   1.73396    1.000000    
     35 O1    c    0.994520 *  0.000000 *  0.250840 *   1.73396    1.000000    
     36 O1    c    0.505480 *  0.000000 *  0.250840 *   1.73396    1.000000    
     37 O1    c    0.005480 *  0.000000 *  0.749160 *   1.73396    1.000000    
     38 O1    c    0.494520 *  0.000000 *  0.749160 *   1.73396    1.000000    
     39 O1    c    0.610230 *  0.175520 *  0.115390 *   1.73396    1.000000    
     40 O1    c    0.889770 *  0.824480 *  0.115390 *   1.73396    1.000000    
     41 O1    c    0.389770 *  0.175520 *  0.884610 *   1.73396    1.000000    
     42 O1    c    0.110230 *  0.824480 *  0.884610 *   1.73396    1.000000    
     43 O3    c    0.389770 *  0.824480 *  0.884610 *   1.33043    1.000000    
     44 O1    c    0.110230 *  0.175520 *  0.884610 *   1.73396    1.000000    
     45 O3    c    0.610230 *  0.824480 *  0.115390 *   1.33043    1.000000    
     46 O3    c    0.889770 *  0.175520 *  0.115390 *   1.33043    1.000000    
     47 O1    c    0.500000 *  0.000000 *  0.000000 *   1.73396    1.000000    
     48 O1    c    0.000000 *  0.000000 *  0.000000 *   1.73396    1.000000    
     49 O3    c    0.151750 *  0.500000 *  0.313330 *   1.33043    1.000000    
     50 O3    c    0.348250 *  0.500000 *  0.313330 *   1.33043    1.000000    
     51 O1    c    0.848250 *  0.500000 *  0.686670 *   1.73396    1.000000    
     52 O3    c    0.651750 *  0.500000 *  0.686670 *   1.33043    1.000000    
     53 O3    c    0.250000 *  0.234950 *  0.285720 *   1.33043    1.000000    
     54 O3    c    0.250000 *  0.765050 *  0.285720 *   1.33043    1.000000    
     55 O3    c    0.750000 *  0.234950 *  0.714280 *   1.33043    1.000000    
     56 O1    c    0.750000 *  0.765050 *  0.714280 *   1.73396    1.000000    
     57 O1    c    0.131410 *  0.268650 *  0.127790 *   1.73396    1.000000    
     58 O3    c    0.368590 *  0.731350 *  0.127790 *   1.33043    1.000000    
     59 O3    c    0.868590 *  0.268650 *  0.872210 *   1.33043    1.000000    
     60 O3    c    0.631410 *  0.731350 *  0.872210 *   1.33043    1.000000    
     61 O1    c    0.868590 *  0.731350 *  0.872210 *   1.73396    1.000000    
     62 O3    c    0.631410 *  0.268650 *  0.872210 *   1.33043    1.000000    
     63 O3    c    0.131410 *  0.731350 *  0.127790 *   1.33043    1.000000    
     64 O3    c    0.368590 *  0.268650 *  0.127790 *   1.33043    1.000000    
     65 O3    c    0.653920 *  0.500000 *  0.058200 *   1.33043    1.000000    
     66 O3    c    0.846080 *  0.500000 *  0.058200 *   1.33043    1.000000    
     67 O3    c    0.346080 *  0.500000 *  0.941800 *   1.33043    1.000000    
     68 O1    c    0.153920 *  0.500000 *  0.941800 *   1.73396    1.000000    
     69 O3    c    0.750000 *  0.231060 *  0.027050 *   1.33043    1.000000    
     70 O3    c    0.750000 *  0.768940 *  0.027050 *   1.33043    1.000000    
     71 O1    c    0.250000 *  0.231060 *  0.972950 *   1.73396    1.000000    
     72 O3    c    0.250000 *  0.768940 *  0.972950 *   1.33043    1.000000    
     73 O1    s    0.106570 *  0.174340 *  0.366200 *  -3.73396    1.000000    
     74 O1    s    0.393430 *  0.825660 *  0.366200 *  -3.73396    1.000000    
     75 O1    s    0.893430 *  0.174340 *  0.633800 *  -3.73396    1.000000    
     76 O1    s    0.606570 *  0.825660 *  0.633800 *  -3.73396    1.000000    
     77 O1    s    0.893430 *  0.825660 *  0.633800 *  -3.73396    1.000000    
     78 O3    s    0.606570 *  0.174340 *  0.633800 *  -3.33043    1.000000    
     79 O3    s    0.106570 *  0.825660 *  0.366200 *  -3.33043    1.000000    
     80 O3    s    0.393430 *  0.174340 *  0.366200 *  -3.33043    1.000000    
     81 O1    s    0.000000 *  0.000000 *  0.500000 *  -3.73396    1.000000    
     82 O1    s    0.500000 *  0.000000 *  0.500000 *  -3.73396    1.000000    
     83 O1    s    0.994520 *  0.000000 *  0.250840 *  -3.73396    1.000000    
     84 O1    s    0.505480 *  0.000000 *  0.250840 *  -3.73396    1.000000    
     85 O1    s    0.005480 *  0.000000 *  0.749160 *  -3.73396    1.000000    
     86 O1    s    0.494520 *  0.000000 *  0.749160 *  -3.73396    1.000000    
     87 O1    s    0.610230 *  0.175520 *  0.115390 *  -3.73396    1.000000    
     88 O1    s    0.889770 *  0.824480 *  0.115390 *  -3.73396    1.000000    
     89 O1    s    0.389770 *  0.175520 *  0.884610 *  -3.73396    1.000000    
     90 O1    s    0.110230 *  0.824480 *  0.884610 *  -3.73396    1.000000    
     91 O3    s    0.389770 *  0.824480 *  0.884610 *  -3.33043    1.000000    
     92 O1    s    0.110230 *  0.175520 *  0.884610 *  -3.73396    1.000000    
     93 O3    s    0.610230 *  0.824480 *  0.115390 *  -3.33043    1.000000    
     94 O3    s    0.889770 *  0.175520 *  0.115390 *  -3.33043    1.000000    
     95 O1    s    0.500000 *  0.000000 *  0.000000 *  -3.73396    1.000000    
     96 O1    s    0.000000 *  0.000000 *  0.000000 *  -3.73396    1.000000    
     97 O3    s    0.151750 *  0.500000 *  0.313330 *  -3.33043    1.000000    
     98 O3    s    0.348250 *  0.500000 *  0.313330 *  -3.33043    1.000000    
     99 O1    s    0.848250 *  0.500000 *  0.686670 *  -3.73396    1.000000    
    100 O3    s    0.651750 *  0.500000 *  0.686670 *  -3.33043    1.000000    
    101 O3    s    0.250000 *  0.234950 *  0.285720 *  -3.33043    1.000000    
    102 O3    s    0.250000 *  0.765050 *  0.285720 *  -3.33043    1.000000    
    103 O3    s    0.750000 *  0.234950 *  0.714280 *  -3.33043    1.000000    
    104 O1    s    0.750000 *  0.765050 *  0.714280 *  -3.73396    1.000000    
    105 O1    s    0.131410 *  0.268650 *  0.127790 *  -3.73396    1.000000    
    106 O3    s    0.368590 *  0.731350 *  0.127790 *  -3.33043    1.000000    
    107 O3    s    0.868590 *  0.268650 *  0.872210 *  -3.33043    1.000000    
    108 O3    s    0.631410 *  0.731350 *  0.872210 *  -3.33043    1.000000    
    109 O1    s    0.868590 *  0.731350 *  0.872210 *  -3.73396    1.000000    
    110 O3    s    0.631410 *  0.268650 *  0.872210 *  -3.33043    1.000000    
    111 O3    s    0.131410 *  0.731350 *  0.127790 *  -3.33043    1.000000    
    112 O3    s    0.368590 *  0.268650 *  0.127790 *  -3.33043    1.000000    
    113 O3    s    0.653920 *  0.500000 *  0.058200 *  -3.33043    1.000000    
    114 O3    s    0.846080 *  0.500000 *  0.058200 *  -3.33043    1.000000    
    115 O3    s    0.346080 *  0.500000 *  0.941800 *  -3.33043    1.000000    
    116 O1    s    0.153920 *  0.500000 *  0.941800 *  -3.73396    1.000000    
    117 O3    s    0.750000 *  0.231060 *  0.027050 *  -3.33043    1.000000    
    118 O3    s    0.750000 *  0.768940 *  0.027050 *  -3.33043    1.000000    
    119 O1    s    0.250000 *  0.231060 *  0.972950 *  -3.73396    1.000000    
    120 O3    s    0.250000 *  0.768940 *  0.972950 *  -3.33043    1.000000    
--------------------------------------------------------------------------------



********************************************************************************
*  General input information                                                   *
********************************************************************************

  Species output for all configurations : 

--------------------------------------------------------------------------------
  Species    Type    Atomic    Atomic    Charge       Radii (Angs)     Library
                     Number     Mass       (e)     Cova   Ionic  VDW   Symbol
--------------------------------------------------------------------------------
    Ge       Core       32      72.61   4.000000   1.170  0.000  1.750 Ge       
    Si       Core       14      28.09   4.000000   1.200  0.000  2.100 Si       
    O1       Core        8      16.00   1.733957   0.730  0.000  1.360 O1       
    O2       Core        8      16.00   0.870733   0.730  0.000  0.000 O2       
    O3       Core        8      16.00   1.330431   0.730  0.000  1.360 O3       
    O1       Shell       8       0.00  -3.733957   0.730  0.000  0.000 O1       
    O2       Shell       8       0.00  -2.870733   0.730  0.000  0.000 O2       
    O3       Shell       8       0.00  -3.330431   0.730  0.000  0.000 O3       
--------------------------------------------------------------------------------


  Lattice summation method               =    Ewald          (3-D)
                                         =    Parry          (2-D)
                                         =    Saunders et al (1-D)
  Accuracy factor for lattice sums       =   12.000


  Analytic derivatives to be used

  Time limit = Infinity

  Maximum range for interatomic potentials =    100000.000000 Angstroms

  General interatomic potentials :

--------------------------------------------------------------------------------
Atom  Types   Potential      Parameter       Value         Units   Cutoffs(Ang)
  1     2                                                            Min /  Max 
--------------------------------------------------------------------------------
Si   c O1   s Buckingham    Buckingham A     1315.2478    eV        0.000 16.000
                            Buckingham rho  0.31775900    Ang       
                            Buckingham C     10.141118    eV*Ang^6  
--------------------------------------------------------------------------------
Si   c O2   s Buckingham    Buckingham A     1315.2478    eV        0.000 16.000
                            Buckingham rho  0.31775900    Ang       
                            Buckingham C     10.141118    eV*Ang^6  
--------------------------------------------------------------------------------
Si   c O3   s Buckingham    Buckingham A     1315.2478    eV        0.000 16.000
                            Buckingham rho  0.31775900    Ang       
                            Buckingham C     10.141118    eV*Ang^6  
--------------------------------------------------------------------------------
Ge   c O1   s Buckingham    Buckingham A     1497.3996    eV        0.000 16.000
                            Buckingham rho  0.32564600    Ang       
                            Buckingham C     16.808599    eV*Ang^6  
--------------------------------------------------------------------------------
Ge   c O2   s Buckingham    Buckingham A     1497.3996    eV        0.000 16.000
                            Buckingham rho  0.32564600    Ang       
                            Buckingham C     16.808599    eV*Ang^6  
--------------------------------------------------------------------------------
Ge   c O3   s Buckingham    Buckingham A     1497.3996    eV        0.000 16.000
                            Buckingham rho  0.32564600    Ang       
                            Buckingham C     16.808599    eV*Ang^6  
--------------------------------------------------------------------------------
O1   s O1   s Buckingham    Buckingham A     22764.000    eV        0.000 16.000
                            Buckingham rho  0.14900000    Ang       
                            Buckingham C     10.937044    eV*Ang^6  
--------------------------------------------------------------------------------
O1   s O2   s Buckingham    Buckingham A     22764.000    eV        0.000 16.000
                            Buckingham rho  0.14900000    Ang       
                            Buckingham C     10.937044    eV*Ang^6  
--------------------------------------------------------------------------------
O1   s O3   s Buckingham    Buckingham A     22764.000    eV        0.000 16.000
                            Buckingham rho  0.14900000    Ang       
                            Buckingham C     10.937044    eV*Ang^6  
--------------------------------------------------------------------------------
O2   s O2   s Buckingham    Buckingham A     22764.000    eV        0.000 16.000
                            Buckingham rho  0.14900000    Ang       
                            Buckingham C     10.937044    eV*Ang^6  
--------------------------------------------------------------------------------
O2   s O3   s Buckingham    Buckingham A     22764.000    eV        0.000 16.000
                            Buckingham rho  0.14900000    Ang       
                            Buckingham C     10.937044    eV*Ang^6  
--------------------------------------------------------------------------------
O3   s O3   s Buckingham    Buckingham A     22764.000    eV        0.000 16.000
                            Buckingham rho  0.14900000    Ang       
                            Buckingham C     10.937044    eV*Ang^6  
--------------------------------------------------------------------------------
O1   c O1   s Spring (c-s)  Spring k 2       180.31577    eV*Ang^-2 0.000  0.800
                            Spring k 4       0.0000000    eV*Ang^-4 
--------------------------------------------------------------------------------
O2   c O2   s Spring (c-s)  Spring k 2       75.969800    eV*Ang^-2 0.000  0.800
                            Spring k 4       0.0000000    eV*Ang^-4 
--------------------------------------------------------------------------------
O3   c O3   s Spring (c-s)  Spring k 2       128.14270    eV*Ang^-2 0.000  0.800
                            Spring k 4       0.0000000    eV*Ang^-4 
--------------------------------------------------------------------------------

  General Three-body potentials :

--------------------------------------------------------------------------------
  Atoms       Potential      Parameter       Value         Units   Cutoffs(Ang)
  1 / 2 / 3                                                          Min /  Max 
--------------------------------------------------------------------------------
Si    core    Harmonic      Three-body cnst  1.2614000    eV*rad^-2 0.000  1.900
O1    shel                  Three-body angl  109.47000    degrees   0.000  1.900
O1    shel                  Three-body k4    0.0000000    eV*rad^-4 0.000  3.500
                            Three-body k3    0.0000000    eV*rad^-3 
--------------------------------------------------------------------------------
Si    core    Harmonic      Three-body cnst  1.2614000    eV*rad^-2 0.000  1.900
O1    shel                  Three-body angl  109.47000    degrees   0.000  1.900
õ(1   shel                  Three-body k4    0.0000000    eV*rad^-4 0.000  3.500
                            Three-body k3    0.0000000    eV*rad^-3 
--------------------------------------------------------------------------------
Si    core    Harmonic      Three-body cnst  1.2614000    eV*rad^-2 0.000  1.900
õ(1   shel                  Three-body angl  109.47000    degrees   0.000  1.900
õ(1   shel                  Three-body k4    0.0000000    eV*rad^-4 0.000  3.500
                            Three-body k3    0.0000000    eV*rad^-3 
--------------------------------------------------------------------------------
Si    core    Harmonic      Three-body cnst  1.2614000    eV*rad^-2 0.000  1.900
O1    shel                  Three-body angl  109.47000    degrees   0.000  1.900
O2    shel                  Three-body k4    0.0000000    eV*rad^-4 0.000  3.500
                            Three-body k3    0.0000000    eV*rad^-3 
--------------------------------------------------------------------------------
Si    core    Harmonic      Three-body cnst  1.2614000    eV*rad^-2 0.000  1.900
O1    shel                  Three-body angl  109.47000    degrees   0.000  1.900
õ(2   shel                  Three-body k4    0.0000000    eV*rad^-4 0.000  3.500
                            Three-body k3    0.0000000    eV*rad^-3 
--------------------------------------------------------------------------------
Si    core    Harmonic      Three-body cnst  1.2614000    eV*rad^-2 0.000  1.900
O2    shel                  Three-body angl  109.47000    degrees   0.000  1.900
õ(1   shel                  Three-body k4    0.0000000    eV*rad^-4 0.000  3.500
                            Three-body k3    0.0000000    eV*rad^-3 
--------------------------------------------------------------------------------
Si    core    Harmonic      Three-body cnst  1.2614000    eV*rad^-2 0.000  1.900
õ(1   shel                  Three-body angl  109.47000    degrees   0.000  1.900
õ(2   shel                  Three-body k4    0.0000000    eV*rad^-4 0.000  3.500
                            Three-body k3    0.0000000    eV*rad^-3 
--------------------------------------------------------------------------------
Si    core    Harmonic      Three-body cnst  1.2614000    eV*rad^-2 0.000  1.900
O2    shel                  Three-body angl  109.47000    degrees   0.000  1.900
O2    shel                  Three-body k4    0.0000000    eV*rad^-4 0.000  3.500
                            Three-body k3    0.0000000    eV*rad^-3 
--------------------------------------------------------------------------------
Si    core    Harmonic      Three-body cnst  1.2614000    eV*rad^-2 0.000  1.900
O2    shel                  Three-body angl  109.47000    degrees   0.000  1.900
õ(2   shel                  Three-body k4    0.0000000    eV*rad^-4 0.000  3.500
                            Three-body k3    0.0000000    eV*rad^-3 
--------------------------------------------------------------------------------
Si    core    Harmonic      Three-body cnst  1.2614000    eV*rad^-2 0.000  1.900
õ(2   shel                  Three-body angl  109.47000    degrees   0.000  1.900
õ(2   shel                  Three-body k4    0.0000000    eV*rad^-4 0.000  3.500
                            Three-body k3    0.0000000    eV*rad^-3 
--------------------------------------------------------------------------------

********************************************************************************
*  Output for configuration   1 : POSCAR_N0018.vasp                            *
********************************************************************************


  Components of energy : 

--------------------------------------------------------------------------------
  Interatomic potentials     =         880.61048863 eV    
  Three-body potentials      =           0.00000000 eV    
  Monopole - monopole (real) =       -2676.00317478 eV    
  Monopole - monopole (recip)=       -1115.35404472 eV    
  Monopole - monopole (total)=       -3791.35721950 eV    
--------------------------------------------------------------------------------
  Total lattice energy       =       -2910.74673087 eV    
--------------------------------------------------------------------------------
  Total lattice energy       =         -280842.5647 kJ/(mole unit cells)
--------------------------------------------------------------------------------


  Number of variables =      363

  Maximum number of calculations  =          1000
  Maximum Hessian update interval =            10
  Maximum step size               =   0.100000000
  Maximum parameter tolerance     =   0.000010000
  Maximum function  tolerance     =   0.000010000
  Maximum gradient  tolerance     =   0.001000000
  Maximum gradient  component     =   0.010000000

  Symmetry not applied to optimisation

  Cell parameters to be optimised using strains

  Newton-Raphson optimiser to be used

  BFGS hessian update to be used

  Lower half triangular hessian to be used

  Minimiser to switch to RFO
  When gradient norm is less than     0.050000

  Dumpfile to be written after every cycle

  Start of bulk optimisation :

  Cycle:      0 Energy:     -2910.746731  Gnorm:      5.603252  CPU:    0.089
  ** Hessian calculated **
  Cycle:      1 Energy:     -2952.357619  Gnorm:      1.352462  CPU:    0.201
  ** Hessian calculated **
  Cycle:      2 Energy:     -2958.303073  Gnorm:      0.754143  CPU:    0.433
  ** Hessian calculated **
  Cycle:      3 Energy:     -2959.597127  Gnorm:      0.386986  CPU:    0.597
  Cycle:      4 Energy:     -2959.948148  Gnorm:      0.244185  CPU:    0.687
  Cycle:      5 Energy:     -2960.254559  Gnorm:      0.201931  CPU:    0.793
  Cycle:      6 Energy:     -2960.602148  Gnorm:      0.160034  CPU:    0.899
  Cycle:      7 Energy:     -2960.815554  Gnorm:      0.137394  CPU:    0.989
  Cycle:      8 Energy:     -2960.925684  Gnorm:      0.101035  CPU:    1.079
  Cycle:      9 Energy:     -2960.975241  Gnorm:      0.083842  CPU:    1.171
  Cycle:     10 Energy:     -2961.014543  Gnorm:      0.079526  CPU:    1.278
  Cycle:     11 Energy:     -2961.055374  Gnorm:      0.081684  CPU:    1.385
  Cycle:     12 Energy:     -2961.106790  Gnorm:      0.089034  CPU:    1.493
  ** Hessian calculated **
  Cycle:     13 Energy:     -2961.124083  Gnorm:      0.076088  CPU:    1.678
  Cycle:     14 Energy:     -2961.148428  Gnorm:      0.068200  CPU:    1.785
  Cycle:     15 Energy:     -2961.181377  Gnorm:      0.063001  CPU:    1.893
  Cycle:     16 Energy:     -2961.218692  Gnorm:      0.063170  CPU:    2.000
  Cycle:     17 Energy:     -2961.242781  Gnorm:      0.062451  CPU:    2.091
  Cycle:     18 Energy:     -2961.266832  Gnorm:      0.064953  CPU:    2.197
  Cycle:     19 Energy:     -2961.290299  Gnorm:      0.070824  CPU:    2.304
  Cycle:     20 Energy:     -2961.322746  Gnorm:      0.076905  CPU:    2.410
  Cycle:     21 Energy:     -2961.371732  Gnorm:      0.084290  CPU:    2.518
  Cycle:     22 Energy:     -2961.437516  Gnorm:      0.096259  CPU:    2.625
  ** Hessian calculated **
  Cycle:     23 Energy:     -2961.485626  Gnorm:      0.092350  CPU:    2.807
  Cycle:     24 Energy:     -2961.554416  Gnorm:      0.085602  CPU:    2.929
  Cycle:     25 Energy:     -2961.581360  Gnorm:      0.082067  CPU:    3.036
  ** Hessian calculated **
  Cycle:     26 Energy:     -2961.684658  Gnorm:      0.077589  CPU:    3.217
  Cycle:     27 Energy:     -2961.782403  Gnorm:      0.084734  CPU:    3.323
  ** Hessian calculated **
  Cycle:     28 Energy:     -2961.801830  Gnorm:      0.056149  CPU:    3.490
  Cycle:     29 Energy:     -2961.814096  Gnorm:      0.048075  CPU:    3.599
  ** Hessian has required structure
  Cycle:     30 Energy:     -2961.822439  Gnorm:      0.098051  CPU:    3.717
  ** Hessian has required structure
  Cycle:     31 Energy:     -2961.834845  Gnorm:      0.097124  CPU:    3.851
  ** Hessian has required structure
  Cycle:     32 Energy:     -2961.843166  Gnorm:      0.070115  CPU:    3.969
  ** Hessian has required structure
  Cycle:     33 Energy:     -2961.846154  Gnorm:      0.068552  CPU:    4.087
  ** Hessian has required structure
  Cycle:     34 Energy:     -2961.848589  Gnorm:      0.080940  CPU:    4.204
  ** Hessian has required structure
  Cycle:     35 Energy:     -2961.856024  Gnorm:      0.084827  CPU:    4.339
  ** Hessian has required structure
  Cycle:     36 Energy:     -2961.863457  Gnorm:      0.055063  CPU:    4.457
  ** Hessian has required structure
  Cycle:     37 Energy:     -2961.864916  Gnorm:      0.066704  CPU:    4.575
  ** Hessian has wrong structure
  ** Imaginary eigenvectors =   4
  Cycle:     38 Energy:     -2961.890321  Gnorm:      0.068512  CPU:    4.988
  ** Hessian has wrong structure
  ** Imaginary eigenvectors =   4
  Cycle:     39 Energy:     -2962.006964  Gnorm:      0.106451  CPU:    5.383
  ** Hessian has wrong structure
  ** Imaginary eigenvectors =   1
  ** Hessian has required structure
  Cycle:     40 Energy:     -2962.396975  Gnorm:      0.087928  CPU:    5.792
  ** Hessian has required structure
  Cycle:     41 Energy:     -2962.532442  Gnorm:      0.046773  CPU:    5.941
  ** Hessian has required structure
  Cycle:     42 Energy:     -2962.592943  Gnorm:      0.061603  CPU:    6.072
  ** Hessian has required structure
  Cycle:     43 Energy:     -2962.637710  Gnorm:      0.037627  CPU:    6.204
  ** Hessian has required structure
  Cycle:     44 Energy:     -2962.656165  Gnorm:      0.045335  CPU:    6.337
  ** Hessian has required structure
  Cycle:     45 Energy:     -2962.671390  Gnorm:      0.039199  CPU:    6.471
  ** Hessian has required structure
  Cycle:     46 Energy:     -2962.684757  Gnorm:      0.023120  CPU:    6.608
  ** Hessian has required structure
  Cycle:     47 Energy:     -2962.690094  Gnorm:      0.026812  CPU:    6.752
  ** Hessian has required structure
  Cycle:     48 Energy:     -2962.697080  Gnorm:      0.014642  CPU:    6.880
  ** Hessian has required structure
  Cycle:     49 Energy:     -2962.699414  Gnorm:      0.010133  CPU:    7.023
  ** Hessian has required structure
  Cycle:     50 Energy:     -2962.703690  Gnorm:      0.005794  CPU:    7.247
  ** Hessian has required structure
  Cycle:     51 Energy:     -2962.704962  Gnorm:      0.003711  CPU:    7.400
  ** Hessian has required structure
  Cycle:     52 Energy:     -2962.705363  Gnorm:      0.002106  CPU:    7.552
  ** Hessian has required structure
  Cycle:     53 Energy:     -2962.705483  Gnorm:      0.001187  CPU:    7.705
  ** Hessian has required structure
  Cycle:     54 Energy:     -2962.705515  Gnorm:      0.000735  CPU:    7.839
  ** Hessian has required structure
  Cycle:     55 Energy:     -2962.705528  Gnorm:      0.000456  CPU:    7.978
  ** Hessian has required structure
  Cycle:     56 Energy:     -2962.705534  Gnorm:      0.000231  CPU:    8.135
  ** Hessian has required structure
  Cycle:     57 Energy:     -2962.705536  Gnorm:      0.000163  CPU:    8.256
  ** Hessian has required structure
  Cycle:     58 Energy:     -2962.705537  Gnorm:      0.000130  CPU:    8.377
  ** Hessian has required structure
  Cycle:     59 Energy:     -2962.705537  Gnorm:      0.000102  CPU:    8.499
  ** Hessian has required structure
  Cycle:     60 Energy:     -2962.705537  Gnorm:      0.000071  CPU:    8.692
  ** Hessian has required structure


  **** Optimisation achieved ****


  Final energy =   -2962.70553733 eV      
  Final Gnorm  =       0.00004987

  Components of energy : 

--------------------------------------------------------------------------------
  Interatomic potentials     =         785.66615751 eV    
  Three-body potentials      =           0.00000000 eV    
  Monopole - monopole (real) =       -1643.23895693 eV    
  Monopole - monopole (recip)=       -2105.13273791 eV    
  Monopole - monopole (total)=       -3748.37169484 eV    
--------------------------------------------------------------------------------
  Total lattice energy       =       -2962.70553733 eV    
--------------------------------------------------------------------------------
  Total lattice energy       =         -285855.7953 kJ/(mole unit cells)
--------------------------------------------------------------------------------

  Final fractional coordinates of atoms :

--------------------------------------------------------------------------------
   No.  Atomic        x           y          z          Radius
        Label       (Frac)      (Frac)     (Frac)       (Angs) 
--------------------------------------------------------------------------------
     1  Ge    c     0.052090    0.000000    0.372270    0.000000
     2  Ge    c     0.447068    0.962505    0.372036    0.000000
     3  Ge    c     0.947816    0.935039    0.623708    0.000000
     4  Ge    c     0.552259    0.989222    0.628050    0.000000
     5  Ge    c     0.552340    0.001544    0.115231    0.000000
     6  Ge    c     0.945742    0.961885    0.117335    0.000000
     7  Ge    c     0.440890    0.955969    0.870700    0.000000
     8  Ge    c     0.054193    0.011211    0.869550    0.000000
     9  Ge    c     0.150204    0.314754    0.303155    0.000000
    10  Ge    c     0.347907    0.647523    0.308846    0.000000
    11  Ge    c     0.825126    0.226506    0.746519    0.000000
    12  Ge    c     0.670236    0.690579    0.735612    0.000000
    13  Ge    c     0.852726    0.627339    0.732206    0.000000
    14  Ge    c     0.650769    0.316311    0.060541    0.000000
    15  Ge    c     0.848446    0.644806    0.049645    0.000000
    16  Ge    c     0.325942    0.255705    0.988490    0.000000
    17  Ge    c     0.173338    0.725880    0.997716    0.000000
    18  Ge    c     0.143736    0.325220    0.986212    0.000000
    19  Si    c     0.648325    0.293021    0.747839    0.000000
    20  Si    c     0.170159    0.708562    0.310646    0.000000
    21  Si    c     0.329467    0.250859    0.297829    0.000000
    22  Si    c     0.350372    0.653962    0.997795    0.000000
    23  Si    c     0.669544    0.710368    0.045016    0.000000
    24  Si    c     0.827697    0.252996    0.060597    0.000000
    25  O1    c     0.094012    0.192728    0.399043    0.000000
    26  O1    c     0.407854    0.766628    0.400256    0.000000
    27  O1    c     0.871193    0.063042    0.667738    0.000000
    28  O1    c     0.619152    0.827513    0.638687    0.000000
    29  O1    c     0.918980    0.729623    0.640541    0.000000
    30  O3    c     0.586903    0.186628    0.669223    0.000000
    31  O3    c     0.120973    0.840929    0.397813    0.000000
    32  O3    c     0.374591    0.116394    0.387228    0.000000
    33  O1    c     0.972668    0.970029    0.462594    0.000000
    34  O1    c     0.523851    0.001776    0.465846    0.000000
    35  O1    c     0.023675    0.994964    0.209970    0.000000
    36  O1    c     0.477391    0.959038    0.211006    0.000000
    37  O1    c     0.029024    0.981751    0.708287    0.000000
    38  O1    c     0.470250    0.946125    0.709965    0.000000
    39  O1    c     0.589666    0.199411    0.148836    0.000000
    40  O1    c     0.904632    0.768547    0.145142    0.000000
    41  O1    c     0.372088    0.113353    0.887789    0.000000
    42  O1    c     0.132255    0.887724    0.911872    0.000000
    43  O3    c     0.409711    0.756064    0.912944    0.000000
    44  O1    c     0.078398    0.220117    0.893988    0.000000
    45  O3    c     0.626194    0.851623    0.131970    0.000000
    46  O3    c     0.876790    0.120444    0.145156    0.000000
    47  O1    c     0.520998    0.004259    0.955850    0.000000
    48  O1    c     0.975348    0.958031    0.956216    0.000000
    49  O3    c     0.156562    0.519183    0.365136    0.000000
    50  O3    c     0.343727    0.438769    0.358192    0.000000
    51  O1    c     0.846057    0.419536    0.679007    0.000000
    52  O3    c     0.657404    0.479830    0.686982    0.000000
    53  O3    c     0.240122    0.219839    0.294311    0.000000
    54  O3    c     0.258790    0.745463    0.317398    0.000000
    55  O3    c     0.729060    0.191117    0.740701    0.000000
    56  O1    c     0.764727    0.727398    0.721843    0.000000
    57  O1    c     0.114198    0.322312    0.147270    0.000000
    58  O3    c     0.378658    0.644257    0.147475    0.000000
    59  O3    c     0.854009    0.239204    0.908831    0.000000
    60  O3    c     0.638324    0.717314    0.895811    0.000000
    61  O1    c     0.883009    0.633996    0.892719    0.000000
    62  O3    c     0.622514    0.313675    0.898051    0.000000
    63  O3    c     0.142683    0.721720    0.159487    0.000000
    64  O3    c     0.359604    0.234322    0.147957    0.000000
    65  O3    c     0.654765    0.526207    0.109684    0.000000
    66  O3    c     0.842526    0.443449    0.114534    0.000000
    67  O3    c     0.340781    0.464582    0.940068    0.000000
    68  O1    c     0.150292    0.531212    0.932270    0.000000
    69  O3    c     0.739335    0.216827    0.070900    0.000000
    70  O3    c     0.758792    0.739744    0.038869    0.000000
    71  O1    c     0.231177    0.222955    0.978526    0.000000
    72  O3    c     0.269637    0.755369    0.995040    0.000000
    73  O1    s     0.095165    0.187817    0.389841    0.000000
    74  O1    s     0.406056    0.771470    0.391202    0.000000
    75  O1    s     0.873295    0.066643    0.670840    0.000000
    76  O1    s     0.618020    0.829177    0.645534    0.000000
    77  O1    s     0.916225    0.737551    0.646093    0.000000
    78  O3    s     0.590270    0.181387    0.673804    0.000000
    79  O3    s     0.120510    0.840079    0.387267    0.000000
    80  O3    s     0.375678    0.117958    0.377167    0.000000
    81  O1    s     0.977047    0.969809    0.467307    0.000000
    82  O1    s     0.519762    0.997709    0.470071    0.000000
    83  O1    s     0.019543    0.992736    0.214320    0.000000
    84  O1    s     0.481270    0.962764    0.215012    0.000000
    85  O1    s     0.024943    0.980501    0.714014    0.000000
    86  O1    s     0.474154    0.950070    0.715741    0.000000
    87  O1    s     0.591784    0.194605    0.139619    0.000000
    88  O1    s     0.903333    0.773081    0.135836    0.000000
    89  O1    s     0.373686    0.112660    0.894534    0.000000
    90  O1    s     0.129650    0.883906    0.915666    0.000000
    91  O3    s     0.406208    0.761601    0.918143    0.000000
    92  O1    s     0.081538    0.212609    0.899145    0.000000
    93  O3    s     0.624896    0.848850    0.121907    0.000000
    94  O3    s     0.877221    0.121467    0.134543    0.000000
    95  O1    s     0.517294    0.000378    0.961255    0.000000
    96  O1    s     0.979060    0.962270    0.961426    0.000000
    97  O3    s     0.157326    0.520503    0.355066    0.000000
    98  O3    s     0.342739    0.438310    0.348568    0.000000
    99  O1    s     0.845008    0.420560    0.687957    0.000000
   100  O3    s     0.657507    0.478007    0.696512    0.000000
   101  O3    s     0.241835    0.230204    0.295313    0.000000
   102  O3    s     0.257070    0.734178    0.316047    0.000000
   103  O3    s     0.729126    0.203342    0.741832    0.000000
   104  O1    s     0.763922    0.717214    0.723647    0.000000
   105  O1    s     0.119099    0.321936    0.147241    0.000000
   106  O3    s     0.373511    0.645454    0.145741    0.000000
   107  O3    s     0.849322    0.239477    0.910347    0.000000
   108  O3    s     0.643635    0.714684    0.897262    0.000000
   109  O1    s     0.878151    0.634338    0.892773    0.000000
   110  O3    s     0.627301    0.311864    0.896258    0.000000
   111  O3    s     0.147576    0.720854    0.160996    0.000000
   112  O3    s     0.354310    0.237398    0.149492    0.000000
   113  O3    s     0.655799    0.526023    0.099745    0.000000
   114  O3    s     0.841614    0.441835    0.104281    0.000000
   115  O3    s     0.340576    0.466921    0.949345    0.000000
   116  O1    s     0.151498    0.530305    0.941128    0.000000
   117  O3    s     0.741132    0.228258    0.069042    0.000000
   118  O3    s     0.757032    0.729454    0.040287    0.000000
   119  O1    s     0.232073    0.233131    0.979875    0.000000
   120  O3    s     0.269517    0.743499    0.995532    0.000000
--------------------------------------------------------------------------------

  Final Cartesian lattice vectors (Angstroms) :

       17.653129    0.251003   -0.001375
        0.108482    7.831625   -0.035993
       -0.000092   -0.046348   10.177842


  Final cell parameters and derivatives :

--------------------------------------------------------------------------------
       a           17.654913 Angstrom     dE/de1(xx)     0.004773 eV/strain
       b            7.832459 Angstrom     dE/de2(yy)     0.004551 eV/strain
       c           10.177948 Angstrom     dE/de3(zz)     0.003363 eV/strain
       alpha       90.524191 Degrees      dE/de4(yz)     0.000025 eV/strain
       beta        90.008686 Degrees      dE/de5(xz)    -0.000033 eV/strain
       gamma       88.391788 Degrees      dE/de6(xy)    -0.000466 eV/strain
--------------------------------------------------------------------------------

  Primitive cell volume =          1406.807436 Angs**3

  Density of cell =      2.648203 g/cm**3

  Non-primitive cell volume =          1406.807436 Angs**3


  Final internal derivatives :

--------------------------------------------------------------------------------
   No.  Atomic          a             b             c           Radius
        Label          (eV)          (eV)          (eV)        (eV/Angs)
--------------------------------------------------------------------------------
      1 Ge    c       0.000000      0.000000      0.000000      0.000000
      2 Ge    c      -0.000998     -0.000627     -0.000858      0.000000
      3 Ge    c       0.000374     -0.000758      0.000719      0.000000
      4 Ge    c       0.000621      0.000376      0.000442      0.000000
      5 Ge    c       0.002411      0.000935     -0.000719      0.000000
      6 Ge    c      -0.001669     -0.000235     -0.000028      0.000000
      7 Ge    c      -0.001723     -0.000308     -0.001401      0.000000
      8 Ge    c      -0.000631      0.000581      0.000288      0.000000
      9 Ge    c      -0.000728     -0.000498      0.000296      0.000000
     10 Ge    c       0.000892      0.000287      0.000224      0.000000
     11 Ge    c      -0.000826     -0.000038     -0.000064      0.000000
     12 Ge    c      -0.000159      0.000088     -0.000387      0.000000
     13 Ge    c       0.000182      0.000098     -0.000327      0.000000
     14 Ge    c      -0.000778     -0.000362      0.000331      0.000000
     15 Ge    c       0.001297      0.000675      0.000307      0.000000
     16 Ge    c       0.000087      0.000188      0.001108      0.000000
     17 Ge    c      -0.000972      0.000624     -0.000004      0.000000
     18 Ge    c      -0.000234     -0.000232     -0.000260      0.000000
     19 Si    c       0.000742     -0.000345     -0.000259      0.000000
     20 Si    c      -0.001264      0.000428      0.000151      0.000000
     21 Si    c       0.000937     -0.000315     -0.000508      0.000000
     22 Si    c      -0.000243      0.000040     -0.000098      0.000000
     23 Si    c      -0.000419      0.000454     -0.000141      0.000000
     24 Si    c       0.000798     -0.000307      0.000202      0.000000
     25 O1    c       0.000135      0.000192      0.000125      0.000000
     26 O1    c      -0.000074     -0.000237      0.000521      0.000000
     27 O1    c      -0.002444      0.000468     -0.000196      0.000000
     28 O1    c       0.001307     -0.000746     -0.000043      0.000000
     29 O1    c       0.000609      0.000139      0.000005      0.000000
     30 O3    c      -0.001291     -0.000470     -0.000362      0.000000
     31 O3    c       0.000302     -0.000128     -0.000356      0.000000
     32 O3    c      -0.001734      0.000805      0.000554      0.000000
     33 O1    c      -0.000927      0.000081     -0.001217      0.000000
     34 O1    c       0.002020      0.000124      0.000245      0.000000
     35 O1    c       0.001627     -0.000079     -0.001052      0.000000
     36 O1    c      -0.005585      0.000042      0.001520      0.000000
     37 O1    c      -0.000460     -0.000074     -0.001172      0.000000
     38 O1    c      -0.001994     -0.000249      0.000525      0.000000
     39 O1    c      -0.000582     -0.000474      0.000256      0.000000
     40 O1    c       0.000079      0.000096     -0.000374      0.000000
     41 O1    c      -0.001292      0.001136     -0.001106      0.000000
     42 O1    c       0.003488     -0.001373      0.000909      0.000000
     43 O3    c      -0.000806     -0.001222      0.000215      0.000000
     44 O1    c       0.000110      0.000184      0.000114      0.000000
     45 O3    c       0.001543     -0.000597      0.000475      0.000000
     46 O3    c       0.000013     -0.000085     -0.000152      0.000000
     47 O1    c       0.008495      0.000320      0.002868      0.000000
     48 O1    c      -0.000091     -0.000031     -0.000370      0.000000
     49 O3    c      -0.000320      0.000440      0.000344      0.000000
     50 O3    c       0.000549      0.000339      0.000609      0.000000
     51 O1    c       0.000716      0.000818     -0.000420      0.000000
     52 O3    c       0.000083      0.000358     -0.000348      0.000000
     53 O3    c      -0.000636     -0.000706      0.000092      0.000000
     54 O3    c      -0.000765      0.000582      0.000054      0.000000
     55 O3    c      -0.000428     -0.000131      0.000023      0.000000
     56 O1    c       0.000628      0.000149     -0.000125      0.000000
     57 O1    c      -0.000948      0.000125     -0.000220      0.000000
     58 O3    c       0.000829      0.000162      0.000598      0.000000
     59 O3    c       0.001139      0.000112      0.000689      0.000000
     60 O3    c      -0.000818      0.000264      0.000372      0.000000
     61 O1    c       0.000702     -0.000131     -0.000108      0.000000
     62 O3    c      -0.001082     -0.000158      0.000572      0.000000
     63 O3    c      -0.000300     -0.000166     -0.000206      0.000000
     64 O3    c       0.000374     -0.000254      0.000051      0.000000
     65 O3    c      -0.000301     -0.000466      0.000835      0.000000
     66 O3    c      -0.000047     -0.000909      0.000457      0.000000
     67 O3    c       0.000151      0.000707     -0.000423      0.000000
     68 O1    c      -0.000886     -0.001169     -0.000654      0.000000
     69 O3    c       0.001065     -0.000434      0.000034      0.000000
     70 O3    c      -0.000347      0.000583     -0.000022      0.000000
     71 O1    c      -0.002240     -0.000436     -0.000228      0.000000
     72 O3    c       0.001037      0.000435      0.000070      0.000000
     73 O1    s      -0.000194     -0.000056     -0.000071      0.000000
     74 O1    s       0.000285     -0.000298     -0.000080      0.000000
     75 O1    s       0.001194     -0.000265     -0.000149      0.000000
     76 O1    s      -0.000169      0.000378     -0.000107      0.000000
     77 O1    s      -0.000578     -0.000379      0.000087      0.000000
     78 O3    s       0.000666      0.000365     -0.000172      0.000000
     79 O3    s       0.000103      0.000010      0.000476      0.000000
     80 O3    s       0.000780     -0.000229      0.000449      0.000000
     81 O1    s       0.000486     -0.000185      0.000348      0.000000
     82 O1    s      -0.000293      0.000121     -0.000819      0.000000
     83 O1    s      -0.000696      0.000295      0.000526      0.000000
     84 O1    s       0.003436     -0.000476     -0.000748      0.000000
     85 O1    s       0.000359      0.000061      0.000517      0.000000
     86 O1    s       0.000977      0.000101     -0.001032      0.000000
     87 O1    s      -0.000063      0.000702      0.000131      0.000000
     88 O1    s       0.000187     -0.000087      0.000435      0.000000
     89 O1    s      -0.000523     -0.000120     -0.000106      0.000000
     90 O1    s      -0.001549      0.000833     -0.000480      0.000000
     91 O3    s      -0.000349     -0.000244     -0.000685      0.000000
     92 O1    s       0.000208      0.000234     -0.000030      0.000000
     93 O3    s      -0.000696      0.000175      0.000507      0.000000
     94 O3    s      -0.000084      0.000110      0.000356      0.000000
     95 O1    s      -0.002328     -0.000205     -0.001646      0.000000
     96 O1    s      -0.000709     -0.000092      0.000210      0.000000
     97 O3    s       0.000389     -0.000105      0.000325      0.000000
     98 O3    s      -0.000522     -0.000003     -0.000422      0.000000
     99 O1    s      -0.000822     -0.000136     -0.000200      0.000000
    100 O3    s       0.000311      0.000010      0.000018      0.000000
    101 O3    s      -0.000055      0.000396     -0.000073      0.000000
    102 O3    s       0.000331     -0.000327      0.000006      0.000000
    103 O3    s       0.000302      0.000026     -0.000141      0.000000
    104 O1    s       0.000012     -0.000060      0.000188      0.000000
    105 O1    s       0.000325     -0.000271     -0.000076      0.000000
    106 O3    s       0.000498     -0.000199     -0.000026      0.000000
    107 O3    s      -0.000182     -0.000370      0.000032      0.000000
    108 O3    s       0.000245     -0.000348     -0.000473      0.000000
    109 O1    s      -0.000265      0.000278     -0.000276      0.000000
    110 O3    s      -0.000281      0.000291      0.000044      0.000000
    111 O3    s      -0.000132      0.000310      0.000175      0.000000
    112 O3    s       0.000030      0.000509      0.000137      0.000000
    113 O3    s      -0.000255      0.000084     -0.000399      0.000000
    114 O3    s       0.000220      0.000289      0.000313      0.000000
    115 O3    s      -0.000077     -0.000111      0.000095      0.000000
    116 O1    s       0.000655      0.000482      0.000003      0.000000
    117 O3    s      -0.000323     -0.000031      0.000023      0.000000
    118 O3    s       0.000372      0.000038     -0.000053      0.000000
    119 O1    s       0.000101     -0.000029      0.000106      0.000000
    120 O3    s      -0.000855     -0.000174     -0.000110      0.000000
--------------------------------------------------------------------------------
  Maximum abs         0.008495      0.001373      0.002868      0.000000
--------------------------------------------------------------------------------


  Born effective charge tensors : 

-------------------------------------------------------------------------------
  Atom             x           y             z
-------------------------------------------------------------------------------
    1 Ge    x       4.1851      0.2201      0.1441
            y       0.0223      3.9462     -0.0168
            z      -0.7881     -0.1211      4.1770
-------------------------------------------------------------------------------
    2 Ge    x       4.1858      0.2547     -0.0818
            y      -0.0547      3.9283     -0.0341
            z       0.8299      0.1572      4.2578
-------------------------------------------------------------------------------
    3 Ge    x       4.2285      0.3391     -0.5312
            y      -0.0919      3.9195      0.0390
            z      -0.2719     -0.0933      4.4979
-------------------------------------------------------------------------------
    4 Ge    x       4.1861      0.1257      0.4542
            y      -0.1625      3.9363      0.0641
            z       0.2282     -0.1068      4.4947
-------------------------------------------------------------------------------
    5 Ge    x       4.3253      0.2629      0.0341
            y      -0.0654      3.9520      0.0571
            z      -0.7044     -0.1449      3.6365
-------------------------------------------------------------------------------
    6 Ge    x       4.3386      0.1936     -0.0450
            y      -0.0231      3.9545     -0.0347
            z       0.6938      0.0983      3.6307
-------------------------------------------------------------------------------
    7 Ge    x       4.2998      0.1437     -0.4166
            y      -0.1798      3.9395     -0.1014
            z      -0.3478      0.0234      3.9479
-------------------------------------------------------------------------------
    8 Ge    x       4.3321      0.2994      0.4344
            y      -0.1570      3.9195      0.0158
            z       0.3406      0.0904      4.0083
-------------------------------------------------------------------------------
    9 Ge    x       3.8720      0.1879     -0.2294
            y       0.4798      4.1188     -0.1603
            z      -0.0292     -0.2327      3.5151
-------------------------------------------------------------------------------
   10 Ge    x       3.8435      0.1786      0.2432
            y       0.4883      4.1203      0.1735
            z       0.0755      0.2399      3.4525
-------------------------------------------------------------------------------
   11 Ge    x       3.8699     -0.2735     -0.2722
            y      -0.2505      4.2199      0.0659
            z      -0.0546      0.2392      3.5097
-------------------------------------------------------------------------------
   12 Ge    x       3.9486     -0.2262      0.2843
            y      -0.2971      4.1615     -0.1945
            z       0.0261     -0.2543      3.5076
-------------------------------------------------------------------------------
   13 Ge    x       3.9866      0.1034     -0.2234
            y       0.4706      4.1820     -0.1227
            z      -0.1249     -0.1786      3.6129
-------------------------------------------------------------------------------
   14 Ge    x       3.9277      0.1762     -0.2849
            y       0.4843      4.1106     -0.1567
            z      -0.1149     -0.2270      3.3256
-------------------------------------------------------------------------------
   15 Ge    x       3.9392      0.1976      0.3111
            y       0.4667      4.1076      0.1377
            z       0.0764      0.2161      3.4040
-------------------------------------------------------------------------------
   16 Ge    x       3.9787     -0.2229     -0.3425
            y      -0.2486      4.1707      0.2106
            z      -0.0364      0.2529      3.4311
-------------------------------------------------------------------------------
   17 Ge    x       3.8807     -0.2504      0.3532
            y      -0.1978      4.2122     -0.1131
            z       0.0664     -0.2489      3.4541
-------------------------------------------------------------------------------
   18 Ge    x       4.0449      0.1017      0.3064
            y       0.4485      4.1882      0.1048
            z       0.1586      0.1559      3.4993
-------------------------------------------------------------------------------
   19 Si    x       3.6900      0.1057      0.2052
            y       0.4440      3.9045      0.0902
            z       0.1014      0.2183      3.3406
-------------------------------------------------------------------------------
   20 Si    x       3.7289     -0.2477     -0.2718
            y      -0.2947      3.8686      0.0593
            z      -0.0619      0.1292      3.2841
-------------------------------------------------------------------------------
   21 Si    x       3.6918     -0.2719      0.2843
            y      -0.2739      3.9135     -0.0739
            z       0.0256     -0.1438      3.2917
-------------------------------------------------------------------------------
   22 Si    x       3.7268      0.0921     -0.3087
            y       0.4161      3.8964     -0.1079
            z      -0.1393     -0.1951      3.2641
-------------------------------------------------------------------------------
   23 Si    x       3.7343     -0.2806     -0.3228
            y      -0.2574      3.9075      0.0619
            z      -0.0358      0.1454      3.1791
-------------------------------------------------------------------------------
   24 Si    x       3.7847     -0.2396      0.2803
            y      -0.2826      3.8650     -0.0694
            z       0.0745     -0.1412      3.1768
-------------------------------------------------------------------------------
   25 O1    x      -1.9763     -0.9148      0.3257
            y      -0.9131     -2.6070      0.3239
            z       0.4014      0.3470     -1.5931
-------------------------------------------------------------------------------
   26 O1    x      -2.0067     -0.9286     -0.3333
            y      -0.8992     -2.5810     -0.2835
            z      -0.4264     -0.3410     -1.6155
-------------------------------------------------------------------------------
   27 O1    x      -2.2491      0.9208      0.5795
            y       0.9742     -2.3746     -0.5731
            z       0.5290     -0.5744     -1.6682
-------------------------------------------------------------------------------
   28 O1    x      -2.1226      0.9442     -0.5134
            y       0.9968     -2.4443      0.5101
            z      -0.4810      0.5467     -1.6938
-------------------------------------------------------------------------------
   29 O1    x      -1.9704     -0.8271      0.5249
            y      -0.8026     -2.5415      0.4787
            z       0.5014      0.4976     -1.6620
-------------------------------------------------------------------------------
   30 O3    x      -1.9607     -0.8790     -0.5584
            y      -0.8302     -2.3108     -0.5520
            z      -0.5104     -0.5621     -1.5949
-------------------------------------------------------------------------------
   31 O3    x      -2.0146      0.8703      0.3315
            y       0.9249     -2.2175     -0.3587
            z       0.4264     -0.3986     -1.5259
-------------------------------------------------------------------------------
   32 O3    x      -1.9869      0.8502     -0.3578
            y       0.9225     -2.2499      0.4368
            z      -0.4282      0.4418     -1.5402
-------------------------------------------------------------------------------
   33 O1    x      -2.1234     -0.2345      0.9107
            y      -0.0991     -1.2972      0.1826
            z       1.1405      0.3352     -3.0735
-------------------------------------------------------------------------------
   34 O1    x      -2.1333     -0.1645     -0.9756
            y      -0.0547     -1.2869     -0.0587
            z      -1.2191     -0.1092     -3.1561
-------------------------------------------------------------------------------
   35 O1    x      -2.2485     -0.1533     -0.9027
            y      -0.0457     -1.3337     -0.0612
            z      -0.8744     -0.1181     -2.5827
-------------------------------------------------------------------------------
   36 O1    x      -2.2104     -0.1913      0.9064
            y      -0.0570     -1.3412      0.0714
            z       0.8821      0.1336     -2.6073
-------------------------------------------------------------------------------
   37 O1    x      -2.1038     -0.2776     -0.7417
            y      -0.1383     -1.3137     -0.2195
            z      -0.7717     -0.2844     -2.7502
-------------------------------------------------------------------------------
   38 O1    x      -2.1878     -0.2054      0.8093
            y      -0.1145     -1.3138      0.1053
            z       0.8275      0.1097     -2.7306
-------------------------------------------------------------------------------
   39 O1    x      -2.0766     -0.9231      0.3351
            y      -0.8747     -2.5821      0.2422
            z       0.4062      0.3126     -1.4830
-------------------------------------------------------------------------------
   40 O1    x      -2.0403     -0.9213     -0.3459
            y      -0.8963     -2.6123     -0.3028
            z      -0.3830     -0.3228     -1.4779
-------------------------------------------------------------------------------
   41 O1    x      -2.1370      0.9372      0.5414
            y       0.9530     -2.4422     -0.5514
            z       0.4669     -0.5503     -1.6227
-------------------------------------------------------------------------------
   42 O1    x      -2.2514      0.9001     -0.6127
            y       0.9190     -2.3468      0.6027
            z      -0.5196      0.5743     -1.6210
-------------------------------------------------------------------------------
   43 O3    x      -1.9642     -0.8423      0.6098
            y      -0.7627     -2.3027      0.5996
            z       0.5177      0.5744     -1.5462
-------------------------------------------------------------------------------
   44 O1    x      -2.0050     -0.8055     -0.5387
            y      -0.7410     -2.5606     -0.5171
            z      -0.4758     -0.5025     -1.5647
-------------------------------------------------------------------------------
   45 O3    x      -2.0214      0.8616      0.3430
            y       0.9075     -2.2712     -0.4177
            z       0.3884     -0.4209     -1.4150
-------------------------------------------------------------------------------
   46 O3    x      -2.0605      0.8854     -0.3309
            y       0.9195     -2.2212      0.3504
            z      -0.4057      0.3937     -1.4185
-------------------------------------------------------------------------------
   47 O1    x      -2.2669     -0.2169     -0.7400
            y      -0.1113     -1.3715     -0.0942
            z      -0.4844     -0.0765     -2.2063
-------------------------------------------------------------------------------
   48 O1    x      -2.2253     -0.2146      0.7280
            y      -0.1079     -1.3664      0.1288
            z       0.5023      0.1005     -2.2558
-------------------------------------------------------------------------------
   49 O3    x      -1.2745     -0.1337      0.0939
            y      -0.2170     -2.9802      0.0586
            z       0.0540      0.0730     -1.2900
-------------------------------------------------------------------------------
   50 O3    x      -1.2629     -0.1083     -0.0936
            y      -0.2098     -3.0077     -0.1274
            z      -0.0479     -0.0855     -1.2979
-------------------------------------------------------------------------------
   51 O1    x      -1.3687     -0.2169      0.1104
            y      -0.3151     -3.1307      0.0879
            z       0.0766      0.0983     -1.4207
-------------------------------------------------------------------------------
   52 O3    x      -1.2598     -0.1667     -0.0489
            y      -0.2495     -3.0282      0.1644
            z      -0.0067      0.1382     -1.3177
-------------------------------------------------------------------------------
   53 O3    x      -2.9260      0.1555      0.0125
            y       0.0818     -1.4478     -0.0008
            z       0.0372      0.0313     -1.1374
-------------------------------------------------------------------------------
   54 O3    x      -2.9025      0.1407      0.0172
            y       0.0642     -1.4352     -0.0221
            z       0.0050     -0.0527     -1.1537
-------------------------------------------------------------------------------
   55 O3    x      -2.8375      0.2945     -0.0053
            y       0.2562     -1.4987     -0.0271
            z      -0.0118     -0.0654     -1.1626
-------------------------------------------------------------------------------
   56 O1    x      -3.0630      0.1999      0.0389
            y       0.1111     -1.5522      0.0447
            z       0.0619      0.0674     -1.2360
-------------------------------------------------------------------------------
   57 O1    x      -1.5023     -0.0515     -0.1122
            y      -0.1213     -1.4280      0.0100
            z      -0.0931      0.0467     -2.6921
-------------------------------------------------------------------------------
   58 O3    x      -1.3782     -0.0407     -0.0230
            y      -0.1046     -1.3561      0.0688
            z      -0.0152      0.0363     -2.5651
-------------------------------------------------------------------------------
   59 O3    x      -1.4000      0.0930      0.0167
            y       0.1001     -1.3556     -0.0664
            z      -0.0080     -0.0801     -2.5641
-------------------------------------------------------------------------------
   60 O3    x      -1.3947      0.1086     -0.0955
            y       0.1200     -1.3758     -0.0560
            z      -0.0383     -0.0567     -2.5193
-------------------------------------------------------------------------------
   61 O1    x      -1.4969     -0.0505      0.0375
            y      -0.1176     -1.4307     -0.0185
            z       0.0121     -0.0524     -2.7010
-------------------------------------------------------------------------------
   62 O3    x      -1.3620     -0.0406      0.0681
            y      -0.1042     -1.3670     -0.1081
            z       0.0686     -0.0883     -2.5843
-------------------------------------------------------------------------------
   63 O3    x      -1.4015      0.0978     -0.0565
            y       0.1046     -1.3537      0.0480
            z      -0.0406      0.0727     -2.5775
-------------------------------------------------------------------------------
   64 O3    x      -1.3944      0.1125      0.1179
            y       0.1266     -1.3760      0.0250
            z       0.0695      0.0107     -2.5369
-------------------------------------------------------------------------------
   65 O3    x      -1.3000     -0.1097      0.1128
            y      -0.2083     -2.9691      0.1643
            z       0.0610      0.1150     -1.2712
-------------------------------------------------------------------------------
   66 O3    x      -1.3145     -0.1497     -0.1042
            y      -0.2241     -2.9598     -0.0267
            z      -0.0601     -0.0555     -1.2503
-------------------------------------------------------------------------------
   67 O3    x      -1.2942     -0.1832      0.0705
            y      -0.2714     -3.0410     -0.1309
            z       0.0199     -0.0977     -1.2638
-------------------------------------------------------------------------------
   68 O1    x      -1.4099     -0.2416     -0.1299
            y      -0.3338     -3.1298     -0.0501
            z      -0.0829     -0.0720     -1.3682
-------------------------------------------------------------------------------
   69 O3    x      -2.9280      0.1483      0.0004
            y       0.0697     -1.4334      0.0263
            z      -0.0012      0.0577     -1.1281
-------------------------------------------------------------------------------
   70 O3    x      -2.9527      0.1621     -0.0082
            y       0.0894     -1.4457      0.0086
            z      -0.0298     -0.0260     -1.1092
-------------------------------------------------------------------------------
   71 O1    x      -3.0978      0.2250     -0.0378
            y       0.1287     -1.5556     -0.0376
            z      -0.0525     -0.0572     -1.2051
-------------------------------------------------------------------------------
   72 O3    x      -2.8644      0.3152      0.0199
            y       0.2719     -1.4948      0.0281
            z       0.0243      0.0574     -1.1417
-------------------------------------------------------------------------------




  Elastic Constant Matrix: (Units=GPa)

-------------------------------------------------------------------------------
  Indices      1         2         3         4         5         6    
-------------------------------------------------------------------------------
       1     29.2715   14.0953    8.7323   -0.5442    0.7915    8.3904
       2     14.0953   40.3802    6.9628   -1.0085    1.0290   11.1527
       3      8.7323    6.9628   13.1806   -0.6709    0.5360    3.4909
       4     -0.5442   -1.0085   -0.6709    8.1227    2.2741    0.3494
       5      0.7915    1.0290    0.5360    2.2741   15.5217   -1.3371
       6      8.3904   11.1527    3.4909    0.3494   -1.3371   21.4522
-------------------------------------------------------------------------------


  Elastic Compliance Matrix: (Units=1/GPa)

-------------------------------------------------------------------------------
  Indices      1         2         3         4         5         6    
-------------------------------------------------------------------------------
       1    0.049338 -0.010100 -0.024514  0.001034 -0.002030 -0.010200
       2   -0.010100  0.033132 -0.007192  0.004249 -0.003121 -0.012368
       3   -0.024514 -0.007192  0.097076  0.006383 -0.002797 -0.002748
       4    0.001034  0.004249  0.006383  0.130204 -0.020237 -0.007034
       5   -0.002030 -0.003121 -0.002797 -0.020237  0.068441  0.007467
       6   -0.010200 -0.012368 -0.002748 -0.007034  0.007467  0.058062
-------------------------------------------------------------------------------

  Mechanical properties :

-------------------------------------------------------------------------------
  Convention :                    Reuss         Voigt         Hill
-------------------------------------------------------------------------------
  Bulk  Modulus (GPa)     =      10.42405      15.82368      13.12386
  Shear Modulus (GPa)     =       9.06054      12.55543      10.80799
-------------------------------------------------------------------------------
  Velocity S-wave (km/s)  =       1.84970       2.17741       2.02021
  Velocity P-wave (km/s)  =       2.91515       3.50667       3.22450
-------------------------------------------------------------------------------
  Compressibility (1/GPa) =    0.09593204
-------------------------------------------------------------------------------
  Stress axis :                     x             y             z
-------------------------------------------------------------------------------
  Youngs Moduli (GPa)     =      20.26856      30.18228      10.30123
-------------------------------------------------------------------------------
  Poissons Ratio (x)      =                     0.30485       0.25253
  Poissons Ratio (y)      =       0.20472                     0.07409
  Poissons Ratio (z)      =       0.49687       0.21707
-------------------------------------------------------------------------------


  Piezoelectric Strain Matrix: (Units=C/m**2)

-------------------------------------------------------------------------------
  Indices      1         2         3         4         5         6    
-------------------------------------------------------------------------------
       x    -0.04257  -0.06917  -0.08484  -0.13516   0.65384   0.00545
       y    -0.10283   0.10444   0.20973   0.61546   0.32614  -0.02987
       z    -0.05879  -0.27249  -0.89418   0.38277  -0.20319   0.06017
-------------------------------------------------------------------------------


  Piezoelectric Stress Matrix: (Units=10**-11 C/N)

-------------------------------------------------------------------------------
  Indices      1         2         3         4         5         6    
-------------------------------------------------------------------------------
       x    -0.08444  -0.39338  -0.94013  -3.17475   4.80651   0.76723
       y    -1.09909   0.49572   2.52284   7.54225   0.89395  -0.44475
       z     2.19664  -0.04871  -8.05558   4.66001  -1.77320   0.57109
-------------------------------------------------------------------------------


  Static dielectric constant tensor : 

-------------------------------------------------------------------------------
              x         y         z
-------------------------------------------------------------------------------
       x     5.15990   0.06344   0.00704
       y     0.06344   6.09541  -0.01951
       z     0.00704  -0.01951   4.34812
--------------------------------------------------------------------------------

  High frequency dielectric constant tensor : 

-------------------------------------------------------------------------------
              x         y         z
-------------------------------------------------------------------------------
       x     1.55913   0.00204  -0.00013
       y     0.00204   1.56686  -0.00059
       z    -0.00013  -0.00059   1.51478
-------------------------------------------------------------------------------

  Static refractive indices : 

-------------------------------------------------------------------------------
    1 =    2.08514      2 =    2.27062      3 =    2.46980
-------------------------------------------------------------------------------

  High frequency refractive indices : 

-------------------------------------------------------------------------------
    1 =    1.23076      2 =    1.24845      3 =    1.25195
-------------------------------------------------------------------------------


  Time to end of optimisation =       8.9663 seconds


  Peak dynamic memory used =       5.01 MB 


  Timing analysis for GULP :

--------------------------------------------------------------------------------
  Task / Subroutine                                          Time (Seconds)
--------------------------------------------------------------------------------
  Calculation of reciprocal space energy and derivatives          0.5069
  Calculation of real space energy and derivatives                6.8130
  Calculation of three-body energy and derivatives                0.0810
  Calculation and manipulation of Hessian matrix                  1.8402
  Calculation of matrix inversion                                 0.0399
  Global summation overhead                                       0.0001
--------------------------------------------------------------------------------
  Total CPU time                                                  8.9663
--------------------------------------------------------------------------------


  Dump file written as POSCAR_N0018.vasp.grs
  CIF file written as POSCAR_N0018.vasp.cif


  Job Finished at 11:30.54 31st October    2025                               

