********************************************************************************
*                       GENERAL UTILITY LATTICE PROGRAM                        *
*                                 Julian Gale                                  *
*                       Curtin Institute for Computation                       *
*                    School of Molecular and Life Sciences                     *
*                    Curtin University, Western Australia                      *
********************************************************************************
* Version = 6.1.2 * Last modified =   3rd November 2022                        *
********************************************************************************
*  optimise     - perform optimisation run                                     *
*  conp         - constant pressure calculation                                *
*  property     - calculate properties for final geometry                      *
********************************************************************************

  Job Started  at 11:30.26 31st October    2025                               

  Number of CPUs =     1


  Total number of configurations input =      1

********************************************************************************
*  Input for Configuration =   1 : POSCAR_N0016.vasp                           *
********************************************************************************

  Formula = Ge16Si8O48                                                  

  Number of irreducible atoms/shells =     120


  Total number atoms/shells =     120

  Dimensionality = 3               :  Bulk   



  Cartesian lattice vectors (Angstroms) :

       17.182800    0.000000    0.000000
        0.000000    7.513760    0.000000
        0.000000    0.000000   10.447700

  Cell parameters (Angstroms/Degrees):

  a =      17.1828    alpha =  90.0000
  b =       7.5138    beta  =  90.0000
  c =      10.4477    gamma =  90.0000

  Initial cell volume =        1348.875752 Angs**3

  Temperature of configuration =   0.00     K 

  Pressure of configuration =         0.000 GPa 

  Fractional coordinates of asymmetric unit :

--------------------------------------------------------------------------------
   No.  Atomic       x           y          z         Charge      Occupancy
        Label      (Frac)      (Frac)     (Frac)        (e)         (Frac)  
--------------------------------------------------------------------------------
      1 Ge    c    0.052090    0.000000    0.372270     4.00000    1.000000    
      2 Ge    c    0.447910 *  0.000000 *  0.372270 *   4.00000    1.000000    
      3 Ge    c    0.947910 *  0.000000 *  0.627730 *   4.00000    1.000000    
      4 Ge    c    0.552090 *  0.000000 *  0.627730 *   4.00000    1.000000    
      5 Ge    c    0.556730 *  0.000000 *  0.122130 *   4.00000    1.000000    
      6 Ge    c    0.943270 *  0.000000 *  0.122130 *   4.00000    1.000000    
      7 Ge    c    0.443270 *  0.000000 *  0.877870 *   4.00000    1.000000    
      8 Ge    c    0.056730 *  0.000000 *  0.877870 *   4.00000    1.000000    
      9 Ge    c    0.160190 *  0.293910 *  0.273440 *   4.00000    1.000000    
     10 Ge    c    0.339810 *  0.706090 *  0.273440 *   4.00000    1.000000    
     11 Ge    c    0.839810 *  0.293910 *  0.726560 *   4.00000    1.000000    
     12 Ge    c    0.660190 *  0.706090 *  0.726560 *   4.00000    1.000000    
     13 Ge    c    0.660660 *  0.294090 *  0.017440 *   4.00000    1.000000    
     14 Ge    c    0.839340 *  0.705910 *  0.017440 *   4.00000    1.000000    
     15 Ge    c    0.339340 *  0.294090 *  0.982560 *   4.00000    1.000000    
     16 Ge    c    0.160660 *  0.705910 *  0.982560 *   4.00000    1.000000    
     17 Si    c    0.839810 *  0.706090 *  0.726560 *   4.00000    1.000000    
     18 Si    c    0.660190 *  0.293910 *  0.726560 *   4.00000    1.000000    
     19 Si    c    0.160190 *  0.706090 *  0.273440 *   4.00000    1.000000    
     20 Si    c    0.339810 *  0.293910 *  0.273440 *   4.00000    1.000000    
     21 Si    c    0.339340 *  0.705910 *  0.982560 *   4.00000    1.000000    
     22 Si    c    0.160660 *  0.294090 *  0.982560 *   4.00000    1.000000    
     23 Si    c    0.660660 *  0.705910 *  0.017440 *   4.00000    1.000000    
     24 Si    c    0.839340 *  0.294090 *  0.017440 *   4.00000    1.000000    
     25 O1    c    0.106570 *  0.174340 *  0.366200 *   1.73396    1.000000    
     26 O1    c    0.393430 *  0.825660 *  0.366200 *   1.73396    1.000000    
     27 O1    c    0.893430 *  0.174340 *  0.633800 *   1.73396    1.000000    
     28 O1    c    0.606570 *  0.825660 *  0.633800 *   1.73396    1.000000    
     29 O3    c    0.893430 *  0.825660 *  0.633800 *   1.33043    1.000000    
     30 O3    c    0.606570 *  0.174340 *  0.633800 *   1.33043    1.000000    
     31 O3    c    0.106570 *  0.825660 *  0.366200 *   1.33043    1.000000    
     32 O3    c    0.393430 *  0.174340 *  0.366200 *   1.33043    1.000000    
     33 O1    c    0.000000 *  0.000000 *  0.500000 *   1.73396    1.000000    
     34 O1    c    0.500000 *  0.000000 *  0.500000 *   1.73396    1.000000    
     35 O1    c    0.994520 *  0.000000 *  0.250840 *   1.73396    1.000000    
     36 O1    c    0.505480 *  0.000000 *  0.250840 *   1.73396    1.000000    
     37 O1    c    0.005480 *  0.000000 *  0.749160 *   1.73396    1.000000    
     38 O1    c    0.494520 *  0.000000 *  0.749160 *   1.73396    1.000000    
     39 O1    c    0.610230 *  0.175520 *  0.115390 *   1.73396    1.000000    
     40 O1    c    0.889770 *  0.824480 *  0.115390 *   1.73396    1.000000    
     41 O1    c    0.389770 *  0.175520 *  0.884610 *   1.73396    1.000000    
     42 O1    c    0.110230 *  0.824480 *  0.884610 *   1.73396    1.000000    
     43 O3    c    0.389770 *  0.824480 *  0.884610 *   1.33043    1.000000    
     44 O3    c    0.110230 *  0.175520 *  0.884610 *   1.33043    1.000000    
     45 O3    c    0.610230 *  0.824480 *  0.115390 *   1.33043    1.000000    
     46 O3    c    0.889770 *  0.175520 *  0.115390 *   1.33043    1.000000    
     47 O1    c    0.500000 *  0.000000 *  0.000000 *   1.73396    1.000000    
     48 O1    c    0.000000 *  0.000000 *  0.000000 *   1.73396    1.000000    
     49 O3    c    0.151750 *  0.500000 *  0.313330 *   1.33043    1.000000    
     50 O3    c    0.348250 *  0.500000 *  0.313330 *   1.33043    1.000000    
     51 O3    c    0.848250 *  0.500000 *  0.686670 *   1.33043    1.000000    
     52 O3    c    0.651750 *  0.500000 *  0.686670 *   1.33043    1.000000    
     53 O3    c    0.250000 *  0.234950 *  0.285720 *   1.33043    1.000000    
     54 O3    c    0.250000 *  0.765050 *  0.285720 *   1.33043    1.000000    
     55 O3    c    0.750000 *  0.234950 *  0.714280 *   1.33043    1.000000    
     56 O3    c    0.750000 *  0.765050 *  0.714280 *   1.33043    1.000000    
     57 O3    c    0.131410 *  0.268650 *  0.127790 *   1.33043    1.000000    
     58 O3    c    0.368590 *  0.731350 *  0.127790 *   1.33043    1.000000    
     59 O3    c    0.868590 *  0.268650 *  0.872210 *   1.33043    1.000000    
     60 O3    c    0.631410 *  0.731350 *  0.872210 *   1.33043    1.000000    
     61 O3    c    0.868590 *  0.731350 *  0.872210 *   1.33043    1.000000    
     62 O3    c    0.631410 *  0.268650 *  0.872210 *   1.33043    1.000000    
     63 O3    c    0.131410 *  0.731350 *  0.127790 *   1.33043    1.000000    
     64 O3    c    0.368590 *  0.268650 *  0.127790 *   1.33043    1.000000    
     65 O3    c    0.653920 *  0.500000 *  0.058200 *   1.33043    1.000000    
     66 O3    c    0.846080 *  0.500000 *  0.058200 *   1.33043    1.000000    
     67 O3    c    0.346080 *  0.500000 *  0.941800 *   1.33043    1.000000    
     68 O3    c    0.153920 *  0.500000 *  0.941800 *   1.33043    1.000000    
     69 O3    c    0.750000 *  0.231060 *  0.027050 *   1.33043    1.000000    
     70 O3    c    0.750000 *  0.768940 *  0.027050 *   1.33043    1.000000    
     71 O3    c    0.250000 *  0.231060 *  0.972950 *   1.33043    1.000000    
     72 O3    c    0.250000 *  0.768940 *  0.972950 *   1.33043    1.000000    
     73 O1    s    0.106570 *  0.174340 *  0.366200 *  -3.73396    1.000000    
     74 O1    s    0.393430 *  0.825660 *  0.366200 *  -3.73396    1.000000    
     75 O1    s    0.893430 *  0.174340 *  0.633800 *  -3.73396    1.000000    
     76 O1    s    0.606570 *  0.825660 *  0.633800 *  -3.73396    1.000000    
     77 O3    s    0.893430 *  0.825660 *  0.633800 *  -3.33043    1.000000    
     78 O3    s    0.606570 *  0.174340 *  0.633800 *  -3.33043    1.000000    
     79 O3    s    0.106570 *  0.825660 *  0.366200 *  -3.33043    1.000000    
     80 O3    s    0.393430 *  0.174340 *  0.366200 *  -3.33043    1.000000    
     81 O1    s    0.000000 *  0.000000 *  0.500000 *  -3.73396    1.000000    
     82 O1    s    0.500000 *  0.000000 *  0.500000 *  -3.73396    1.000000    
     83 O1    s    0.994520 *  0.000000 *  0.250840 *  -3.73396    1.000000    
     84 O1    s    0.505480 *  0.000000 *  0.250840 *  -3.73396    1.000000    
     85 O1    s    0.005480 *  0.000000 *  0.749160 *  -3.73396    1.000000    
     86 O1    s    0.494520 *  0.000000 *  0.749160 *  -3.73396    1.000000    
     87 O1    s    0.610230 *  0.175520 *  0.115390 *  -3.73396    1.000000    
     88 O1    s    0.889770 *  0.824480 *  0.115390 *  -3.73396    1.000000    
     89 O1    s    0.389770 *  0.175520 *  0.884610 *  -3.73396    1.000000    
     90 O1    s    0.110230 *  0.824480 *  0.884610 *  -3.73396    1.000000    
     91 O3    s    0.389770 *  0.824480 *  0.884610 *  -3.33043    1.000000    
     92 O3    s    0.110230 *  0.175520 *  0.884610 *  -3.33043    1.000000    
     93 O3    s    0.610230 *  0.824480 *  0.115390 *  -3.33043    1.000000    
     94 O3    s    0.889770 *  0.175520 *  0.115390 *  -3.33043    1.000000    
     95 O1    s    0.500000 *  0.000000 *  0.000000 *  -3.73396    1.000000    
     96 O1    s    0.000000 *  0.000000 *  0.000000 *  -3.73396    1.000000    
     97 O3    s    0.151750 *  0.500000 *  0.313330 *  -3.33043    1.000000    
     98 O3    s    0.348250 *  0.500000 *  0.313330 *  -3.33043    1.000000    
     99 O3    s    0.848250 *  0.500000 *  0.686670 *  -3.33043    1.000000    
    100 O3    s    0.651750 *  0.500000 *  0.686670 *  -3.33043    1.000000    
    101 O3    s    0.250000 *  0.234950 *  0.285720 *  -3.33043    1.000000    
    102 O3    s    0.250000 *  0.765050 *  0.285720 *  -3.33043    1.000000    
    103 O3    s    0.750000 *  0.234950 *  0.714280 *  -3.33043    1.000000    
    104 O3    s    0.750000 *  0.765050 *  0.714280 *  -3.33043    1.000000    
    105 O3    s    0.131410 *  0.268650 *  0.127790 *  -3.33043    1.000000    
    106 O3    s    0.368590 *  0.731350 *  0.127790 *  -3.33043    1.000000    
    107 O3    s    0.868590 *  0.268650 *  0.872210 *  -3.33043    1.000000    
    108 O3    s    0.631410 *  0.731350 *  0.872210 *  -3.33043    1.000000    
    109 O3    s    0.868590 *  0.731350 *  0.872210 *  -3.33043    1.000000    
    110 O3    s    0.631410 *  0.268650 *  0.872210 *  -3.33043    1.000000    
    111 O3    s    0.131410 *  0.731350 *  0.127790 *  -3.33043    1.000000    
    112 O3    s    0.368590 *  0.268650 *  0.127790 *  -3.33043    1.000000    
    113 O3    s    0.653920 *  0.500000 *  0.058200 *  -3.33043    1.000000    
    114 O3    s    0.846080 *  0.500000 *  0.058200 *  -3.33043    1.000000    
    115 O3    s    0.346080 *  0.500000 *  0.941800 *  -3.33043    1.000000    
    116 O3    s    0.153920 *  0.500000 *  0.941800 *  -3.33043    1.000000    
    117 O3    s    0.750000 *  0.231060 *  0.027050 *  -3.33043    1.000000    
    118 O3    s    0.750000 *  0.768940 *  0.027050 *  -3.33043    1.000000    
    119 O3    s    0.250000 *  0.231060 *  0.972950 *  -3.33043    1.000000    
    120 O3    s    0.250000 *  0.768940 *  0.972950 *  -3.33043    1.000000    
--------------------------------------------------------------------------------



********************************************************************************
*  General input information                                                   *
********************************************************************************

  Species output for all configurations : 

--------------------------------------------------------------------------------
  Species    Type    Atomic    Atomic    Charge       Radii (Angs)     Library
                     Number     Mass       (e)     Cova   Ionic  VDW   Symbol
--------------------------------------------------------------------------------
    Ge       Core       32      72.61   4.000000   1.170  0.000  1.750 Ge       
    Si       Core       14      28.09   4.000000   1.200  0.000  2.100 Si       
    O1       Core        8      16.00   1.733957   0.730  0.000  1.360 O1       
    O2       Core        8      16.00   0.870733   0.730  0.000  0.000 O2       
    O3       Core        8      16.00   1.330431   0.730  0.000  1.360 O3       
    O1       Shell       8       0.00  -3.733957   0.730  0.000  0.000 O1       
    O2       Shell       8       0.00  -2.870733   0.730  0.000  0.000 O2       
    O3       Shell       8       0.00  -3.330431   0.730  0.000  0.000 O3       
--------------------------------------------------------------------------------


  Lattice summation method               =    Ewald          (3-D)
                                         =    Parry          (2-D)
                                         =    Saunders et al (1-D)
  Accuracy factor for lattice sums       =   12.000


  Analytic derivatives to be used

  Time limit = Infinity

  Maximum range for interatomic potentials =    100000.000000 Angstroms

  General interatomic potentials :

--------------------------------------------------------------------------------
Atom  Types   Potential      Parameter       Value         Units   Cutoffs(Ang)
  1     2                                                            Min /  Max 
--------------------------------------------------------------------------------
Si   c O1   s Buckingham    Buckingham A     1315.2478    eV        0.000 16.000
                            Buckingham rho  0.31775900    Ang       
                            Buckingham C     10.141118    eV*Ang^6  
--------------------------------------------------------------------------------
Si   c O2   s Buckingham    Buckingham A     1315.2478    eV        0.000 16.000
                            Buckingham rho  0.31775900    Ang       
                            Buckingham C     10.141118    eV*Ang^6  
--------------------------------------------------------------------------------
Si   c O3   s Buckingham    Buckingham A     1315.2478    eV        0.000 16.000
                            Buckingham rho  0.31775900    Ang       
                            Buckingham C     10.141118    eV*Ang^6  
--------------------------------------------------------------------------------
Ge   c O1   s Buckingham    Buckingham A     1497.3996    eV        0.000 16.000
                            Buckingham rho  0.32564600    Ang       
                            Buckingham C     16.808599    eV*Ang^6  
--------------------------------------------------------------------------------
Ge   c O2   s Buckingham    Buckingham A     1497.3996    eV        0.000 16.000
                            Buckingham rho  0.32564600    Ang       
                            Buckingham C     16.808599    eV*Ang^6  
--------------------------------------------------------------------------------
Ge   c O3   s Buckingham    Buckingham A     1497.3996    eV        0.000 16.000
                            Buckingham rho  0.32564600    Ang       
                            Buckingham C     16.808599    eV*Ang^6  
--------------------------------------------------------------------------------
O1   s O1   s Buckingham    Buckingham A     22764.000    eV        0.000 16.000
                            Buckingham rho  0.14900000    Ang       
                            Buckingham C     10.937044    eV*Ang^6  
--------------------------------------------------------------------------------
O1   s O2   s Buckingham    Buckingham A     22764.000    eV        0.000 16.000
                            Buckingham rho  0.14900000    Ang       
                            Buckingham C     10.937044    eV*Ang^6  
--------------------------------------------------------------------------------
O1   s O3   s Buckingham    Buckingham A     22764.000    eV        0.000 16.000
                            Buckingham rho  0.14900000    Ang       
                            Buckingham C     10.937044    eV*Ang^6  
--------------------------------------------------------------------------------
O2   s O2   s Buckingham    Buckingham A     22764.000    eV        0.000 16.000
                            Buckingham rho  0.14900000    Ang       
                            Buckingham C     10.937044    eV*Ang^6  
--------------------------------------------------------------------------------
O2   s O3   s Buckingham    Buckingham A     22764.000    eV        0.000 16.000
                            Buckingham rho  0.14900000    Ang       
                            Buckingham C     10.937044    eV*Ang^6  
--------------------------------------------------------------------------------
O3   s O3   s Buckingham    Buckingham A     22764.000    eV        0.000 16.000
                            Buckingham rho  0.14900000    Ang       
                            Buckingham C     10.937044    eV*Ang^6  
--------------------------------------------------------------------------------
O1   c O1   s Spring (c-s)  Spring k 2       180.31577    eV*Ang^-2 0.000  0.800
                            Spring k 4       0.0000000    eV*Ang^-4 
--------------------------------------------------------------------------------
O2   c O2   s Spring (c-s)  Spring k 2       75.969800    eV*Ang^-2 0.000  0.800
                            Spring k 4       0.0000000    eV*Ang^-4 
--------------------------------------------------------------------------------
O3   c O3   s Spring (c-s)  Spring k 2       128.14270    eV*Ang^-2 0.000  0.800
                            Spring k 4       0.0000000    eV*Ang^-4 
--------------------------------------------------------------------------------

  General Three-body potentials :

--------------------------------------------------------------------------------
  Atoms       Potential      Parameter       Value         Units   Cutoffs(Ang)
  1 / 2 / 3                                                          Min /  Max 
--------------------------------------------------------------------------------
Si    core    Harmonic      Three-body cnst  1.2614000    eV*rad^-2 0.000  1.900
O1    shel                  Three-body angl  109.47000    degrees   0.000  1.900
O1    shel                  Three-body k4    0.0000000    eV*rad^-4 0.000  3.500
                            Three-body k3    0.0000000    eV*rad^-3 
--------------------------------------------------------------------------------
Si    core    Harmonic      Three-body cnst  1.2614000    eV*rad^-2 0.000  1.900
O1    shel                  Three-body angl  109.47000    degrees   0.000  1.900
õ(1   shel                  Three-body k4    0.0000000    eV*rad^-4 0.000  3.500
                            Three-body k3    0.0000000    eV*rad^-3 
--------------------------------------------------------------------------------
Si    core    Harmonic      Three-body cnst  1.2614000    eV*rad^-2 0.000  1.900
õ(1   shel                  Three-body angl  109.47000    degrees   0.000  1.900
õ(1   shel                  Three-body k4    0.0000000    eV*rad^-4 0.000  3.500
                            Three-body k3    0.0000000    eV*rad^-3 
--------------------------------------------------------------------------------
Si    core    Harmonic      Three-body cnst  1.2614000    eV*rad^-2 0.000  1.900
O1    shel                  Three-body angl  109.47000    degrees   0.000  1.900
O2    shel                  Three-body k4    0.0000000    eV*rad^-4 0.000  3.500
                            Three-body k3    0.0000000    eV*rad^-3 
--------------------------------------------------------------------------------
Si    core    Harmonic      Three-body cnst  1.2614000    eV*rad^-2 0.000  1.900
O1    shel                  Three-body angl  109.47000    degrees   0.000  1.900
õ(2   shel                  Three-body k4    0.0000000    eV*rad^-4 0.000  3.500
                            Three-body k3    0.0000000    eV*rad^-3 
--------------------------------------------------------------------------------
Si    core    Harmonic      Three-body cnst  1.2614000    eV*rad^-2 0.000  1.900
O2    shel                  Three-body angl  109.47000    degrees   0.000  1.900
õ(1   shel                  Three-body k4    0.0000000    eV*rad^-4 0.000  3.500
                            Three-body k3    0.0000000    eV*rad^-3 
--------------------------------------------------------------------------------
Si    core    Harmonic      Three-body cnst  1.2614000    eV*rad^-2 0.000  1.900
õ(1   shel                  Three-body angl  109.47000    degrees   0.000  1.900
õ(2   shel                  Three-body k4    0.0000000    eV*rad^-4 0.000  3.500
                            Three-body k3    0.0000000    eV*rad^-3 
--------------------------------------------------------------------------------
Si    core    Harmonic      Three-body cnst  1.2614000    eV*rad^-2 0.000  1.900
O2    shel                  Three-body angl  109.47000    degrees   0.000  1.900
O2    shel                  Three-body k4    0.0000000    eV*rad^-4 0.000  3.500
                            Three-body k3    0.0000000    eV*rad^-3 
--------------------------------------------------------------------------------
Si    core    Harmonic      Three-body cnst  1.2614000    eV*rad^-2 0.000  1.900
O2    shel                  Three-body angl  109.47000    degrees   0.000  1.900
õ(2   shel                  Three-body k4    0.0000000    eV*rad^-4 0.000  3.500
                            Three-body k3    0.0000000    eV*rad^-3 
--------------------------------------------------------------------------------
Si    core    Harmonic      Three-body cnst  1.2614000    eV*rad^-2 0.000  1.900
õ(2   shel                  Three-body angl  109.47000    degrees   0.000  1.900
õ(2   shel                  Three-body k4    0.0000000    eV*rad^-4 0.000  3.500
                            Three-body k3    0.0000000    eV*rad^-3 
--------------------------------------------------------------------------------

********************************************************************************
*  Output for configuration   1 : POSCAR_N0016.vasp                            *
********************************************************************************


  Components of energy : 

--------------------------------------------------------------------------------
  Interatomic potentials     =         864.59557280 eV    
  Three-body potentials      =           0.00000000 eV    
  Monopole - monopole (real) =       -2676.00317478 eV    
  Monopole - monopole (recip)=       -1115.35404472 eV    
  Monopole - monopole (total)=       -3791.35721950 eV    
--------------------------------------------------------------------------------
  Total lattice energy       =       -2926.76164670 eV    
--------------------------------------------------------------------------------
  Total lattice energy       =         -282387.7593 kJ/(mole unit cells)
--------------------------------------------------------------------------------


  Number of variables =      363

  Maximum number of calculations  =          1000
  Maximum Hessian update interval =            10
  Maximum step size               =   0.100000000
  Maximum parameter tolerance     =   0.000010000
  Maximum function  tolerance     =   0.000010000
  Maximum gradient  tolerance     =   0.001000000
  Maximum gradient  component     =   0.010000000

  Symmetry not applied to optimisation

  Cell parameters to be optimised using strains

  Newton-Raphson optimiser to be used

  BFGS hessian update to be used

  Lower half triangular hessian to be used

  Minimiser to switch to RFO
  When gradient norm is less than     0.050000

  Dumpfile to be written after every cycle

  Start of bulk optimisation :

  Cycle:      0 Energy:     -2926.761647  Gnorm:      5.417170  CPU:    0.086
  ** Hessian calculated **
  Cycle:      1 Energy:     -2966.585779  Gnorm:      1.322629  CPU:    0.182
  ** Hessian calculated **
  Cycle:      2 Energy:     -2973.069122  Gnorm:      0.727841  CPU:    0.368
  ** Hessian calculated **
  Cycle:      3 Energy:     -2974.286727  Gnorm:      0.399594  CPU:    0.507
  Cycle:      4 Energy:     -2974.684574  Gnorm:      0.286536  CPU:    0.577
  Cycle:      5 Energy:     -2975.141652  Gnorm:      0.233491  CPU:    0.660
  Cycle:      6 Energy:     -2975.614137  Gnorm:      0.169470  CPU:    0.743
  Cycle:      7 Energy:     -2975.808768  Gnorm:      0.128465  CPU:    0.814
  Cycle:      8 Energy:     -2975.895010  Gnorm:      0.087779  CPU:    0.884
  Cycle:      9 Energy:     -2975.932544  Gnorm:      0.071219  CPU:    0.954
  Cycle:     10 Energy:     -2975.961961  Gnorm:      0.066583  CPU:    1.037
  Cycle:     11 Energy:     -2975.996021  Gnorm:      0.069319  CPU:    1.120
  Cycle:     12 Energy:     -2976.040048  Gnorm:      0.075100  CPU:    1.204
  ** Hessian calculated **
  Cycle:     13 Energy:     -2976.060594  Gnorm:      0.073624  CPU:    1.357
  Cycle:     14 Energy:     -2976.093027  Gnorm:      0.071091  CPU:    1.453
  Cycle:     15 Energy:     -2976.125717  Gnorm:      0.067942  CPU:    1.536
  Cycle:     16 Energy:     -2976.160033  Gnorm:      0.063374  CPU:    1.631
  ** Hessian calculated **
  Cycle:     17 Energy:     -2976.169299  Gnorm:      0.051896  CPU:    1.784
  Cycle:     18 Energy:     -2976.181507  Gnorm:      0.045769  CPU:    1.866
  ** Hessian has required structure
  Cycle:     19 Energy:     -2976.194772  Gnorm:      0.077942  CPU:    1.979
  ** Hessian has required structure
  Cycle:     20 Energy:     -2976.208271  Gnorm:      0.086772  CPU:    2.092
  ** Hessian has required structure
  Cycle:     21 Energy:     -2976.216831  Gnorm:      0.083932  CPU:    2.191
  ** Hessian has required structure
  Cycle:     22 Energy:     -2976.221133  Gnorm:      0.083035  CPU:    2.291
  ** Hessian has required structure
  Cycle:     23 Energy:     -2976.226345  Gnorm:      0.106636  CPU:    2.390
  ** Hessian has required structure
  Cycle:     24 Energy:     -2976.239331  Gnorm:      0.069666  CPU:    2.504
  ** Hessian has required structure
  Cycle:     25 Energy:     -2976.242729  Gnorm:      0.078402  CPU:    2.604
  ** Hessian has required structure
  Cycle:     26 Energy:     -2976.250533  Gnorm:      0.091651  CPU:    2.717
  ** Hessian has wrong structure
  ** Imaginary eigenvectors =   6
  Cycle:     27 Energy:     -2976.368606  Gnorm:      0.095051  CPU:    3.048
  ** Hessian has wrong structure
  ** Imaginary eigenvectors =   5
  ** Hessian has wrong structure
  ** Imaginary eigenvectors =   5
  Cycle:     28 Energy:     -2976.441812  Gnorm:      0.116473  CPU:    3.436
  ** Hessian has wrong structure
  ** Imaginary eigenvectors =   2
  ** Hessian has wrong structure
  ** Imaginary eigenvectors =   2
  Cycle:     29 Energy:     -2976.508440  Gnorm:      0.130081  CPU:    3.799
  ** Hessian has wrong structure
  ** Imaginary eigenvectors =   1
  ** Hessian has required structure
  Cycle:     30 Energy:     -2976.802340  Gnorm:      0.131553  CPU:    4.084
  ** Hessian has required structure
  Cycle:     31 Energy:     -2977.061758  Gnorm:      0.085248  CPU:    4.198
  ** Hessian has required structure
  Cycle:     32 Energy:     -2977.130858  Gnorm:      0.052917  CPU:    4.312
  ** Hessian has required structure
  Cycle:     33 Energy:     -2977.180057  Gnorm:      0.051679  CPU:    4.427
  ** Hessian has required structure
  Cycle:     34 Energy:     -2977.214705  Gnorm:      0.067180  CPU:    4.541
  ** Hessian has required structure
  Cycle:     35 Energy:     -2977.236718  Gnorm:      0.052426  CPU:    4.655
  ** Hessian has required structure
  Cycle:     36 Energy:     -2977.251153  Gnorm:      0.049952  CPU:    4.769
  ** Hessian has required structure
  Cycle:     37 Energy:     -2977.261213  Gnorm:      0.041811  CPU:    4.882
  ** Hessian has required structure
  Cycle:     38 Energy:     -2977.268282  Gnorm:      0.027881  CPU:    5.009
  ** Hessian has required structure
  Cycle:     39 Energy:     -2977.272206  Gnorm:      0.024189  CPU:    5.123
  ** Hessian has required structure
  Cycle:     40 Energy:     -2977.277597  Gnorm:      0.017614  CPU:    5.314
  ** Hessian has required structure
  Cycle:     41 Energy:     -2977.281063  Gnorm:      0.011996  CPU:    5.440
  ** Hessian has required structure
  Cycle:     42 Energy:     -2977.282253  Gnorm:      0.006162  CPU:    5.567
  ** Hessian has required structure
  Cycle:     43 Energy:     -2977.282742  Gnorm:      0.003982  CPU:    5.693
  ** Hessian has required structure
  Cycle:     44 Energy:     -2977.282981  Gnorm:      0.001491  CPU:    5.818
  ** Hessian has required structure
  Cycle:     45 Energy:     -2977.283082  Gnorm:      0.001557  CPU:    5.932
  ** Hessian has required structure
  Cycle:     46 Energy:     -2977.283145  Gnorm:      0.001085  CPU:    6.045
  ** Hessian has required structure
  Cycle:     47 Energy:     -2977.283189  Gnorm:      0.000922  CPU:    6.170
  ** Hessian has required structure
  Cycle:     48 Energy:     -2977.283205  Gnorm:      0.000645  CPU:    6.296
  ** Hessian has required structure
  Cycle:     49 Energy:     -2977.283218  Gnorm:      0.000587  CPU:    6.410
  ** Hessian has wrong structure
  ** Imaginary eigenvectors =   1
  Cycle:     50 Energy:     -2977.283252  Gnorm:      0.000616  CPU:    6.652
  ** Hessian has wrong structure
  ** Imaginary eigenvectors =   1
  Cycle:     51 Energy:     -2977.283471  Gnorm:      0.001315  CPU:    6.969
  ** Hessian has wrong structure
  ** Imaginary eigenvectors =   1
  Cycle:     52 Energy:     -2977.284151  Gnorm:      0.003210  CPU:    7.273
  ** Hessian has wrong structure
  ** Imaginary eigenvectors =   1
  Cycle:     53 Energy:     -2977.286380  Gnorm:      0.007843  CPU:    7.579
  ** Hessian has wrong structure
  ** Imaginary eigenvectors =   1
  Cycle:     54 Energy:     -2977.291847  Gnorm:      0.015538  CPU:    7.859
  ** Hessian has required structure
  Cycle:     55 Energy:     -2977.298482  Gnorm:      0.018185  CPU:    8.050
  ** Hessian has required structure
  Cycle:     56 Energy:     -2977.307170  Gnorm:      0.028249  CPU:    8.177
  ** Hessian has required structure
  Cycle:     57 Energy:     -2977.317000  Gnorm:      0.033664  CPU:    8.290
  ** Hessian has required structure
  Cycle:     58 Energy:     -2977.331454  Gnorm:      0.023220  CPU:    8.417
  ** Hessian has required structure
  Cycle:     59 Energy:     -2977.339673  Gnorm:      0.015486  CPU:    8.544
  ** Hessian has required structure
  Cycle:     60 Energy:     -2977.344226  Gnorm:      0.012282  CPU:    8.657
  ** Hessian has required structure
  Cycle:     61 Energy:     -2977.346830  Gnorm:      0.006841  CPU:    8.770
  ** Hessian has required structure
  Cycle:     62 Energy:     -2977.347497  Gnorm:      0.004337  CPU:    8.885
  ** Hessian has required structure
  Cycle:     63 Energy:     -2977.347790  Gnorm:      0.001985  CPU:    8.998
  ** Hessian has required structure
  Cycle:     64 Energy:     -2977.347893  Gnorm:      0.001724  CPU:    9.111
  ** Hessian has required structure
  Cycle:     65 Energy:     -2977.347939  Gnorm:      0.001037  CPU:    9.289
  ** Hessian has required structure
  Cycle:     66 Energy:     -2977.347960  Gnorm:      0.000521  CPU:    9.415
  ** Hessian has required structure
  Cycle:     67 Energy:     -2977.347965  Gnorm:      0.000313  CPU:    9.528
  ** Hessian has required structure
  Cycle:     68 Energy:     -2977.347966  Gnorm:      0.000275  CPU:    9.629
  ** Hessian has required structure
  Cycle:     69 Energy:     -2977.347966  Gnorm:      0.000256  CPU:    9.729
  ** Hessian has required structure
  Cycle:     70 Energy:     -2977.347966  Gnorm:      0.000254  CPU:    9.869
  ** Hessian has required structure
  Cycle:     71 Energy:     -2977.347966  Gnorm:      0.000254  CPU:    9.996
  ** Hessian has required structure
  Cycle:     72 Energy:     -2977.347966  Gnorm:      0.000254  CPU:   10.200
  ** Hessian calculated **


  **** Optimisation achieved ****


  Final energy =   -2977.34796619 eV      
  Final Gnorm  =       0.00025449

  Components of energy : 

--------------------------------------------------------------------------------
  Interatomic potentials     =         792.17578668 eV    
  Three-body potentials      =           0.00000000 eV    
  Monopole - monopole (real) =       -1721.59510363 eV    
  Monopole - monopole (recip)=       -2047.92864924 eV    
  Monopole - monopole (total)=       -3769.52375287 eV    
--------------------------------------------------------------------------------
  Total lattice energy       =       -2977.34796619 eV    
--------------------------------------------------------------------------------
  Total lattice energy       =         -287268.5658 kJ/(mole unit cells)
--------------------------------------------------------------------------------

  Final fractional coordinates of atoms :

--------------------------------------------------------------------------------
   No.  Atomic        x           y          z          Radius
        Label       (Frac)      (Frac)     (Frac)       (Angs) 
--------------------------------------------------------------------------------
     1  Ge    c     0.052090    0.000000    0.372270    0.000000
     2  Ge    c     0.446280    0.050658    0.417148    0.000000
     3  Ge    c     0.946459    0.043585    0.626536    0.000000
     4  Ge    c     0.552145    0.008447    0.671260    0.000000
     5  Ge    c     0.557761    0.005450    0.174021    0.000000
     6  Ge    c     0.947101    0.062282    0.117387    0.000000
     7  Ge    c     0.446648    0.045848    0.927879    0.000000
     8  Ge    c     0.056300    0.003317    0.871587    0.000000
     9  Ge    c     0.172930    0.292186    0.303401    0.000000
    10  Ge    c     0.327570    0.752484    0.302742    0.000000
    11  Ge    c     0.850328    0.360008    0.744296    0.000000
    12  Ge    c     0.651409    0.693632    0.738433    0.000000
    13  Ge    c     0.673097    0.301088    0.051544    0.000000
    14  Ge    c     0.826573    0.765371    0.051681    0.000000
    15  Ge    c     0.348249    0.362711    0.989237    0.000000
    16  Ge    c     0.149271    0.689088    0.994409    0.000000
    17  Si    c     0.829635    0.758104    0.741002    0.000000
    18  Si    c     0.671789    0.295014    0.740646    0.000000
    19  Si    c     0.149784    0.690167    0.305986    0.000000
    20  Si    c     0.350796    0.355167    0.301240    0.000000
    21  Si    c     0.327062    0.758639    0.991175    0.000000
    22  Si    c     0.171037    0.290027    0.992122    0.000000
    23  Si    c     0.649050    0.700197    0.049889    0.000000
    24  Si    c     0.850183    0.369703    0.055785    0.000000
    25  O1    c     0.122750    0.153777    0.399849    0.000000
    26  O1    c     0.376377    0.895765    0.398229    0.000000
    27  O1    c     0.913678    0.246450    0.655383    0.000000
    28  O1    c     0.591304    0.810260    0.645153    0.000000
    29  O3    c     0.874303    0.895449    0.653097    0.000000
    30  O3    c     0.624620    0.161140    0.651736    0.000000
    31  O3    c     0.090973    0.799079    0.390874    0.000000
    32  O3    c     0.412277    0.251289    0.382529    0.000000
    33  O1    c     0.972793    0.027053    0.464072    0.000000
    34  O1    c     0.474195    0.049147    0.579755    0.000000
    35  O1    c     0.024486    0.028703    0.211189    0.000000
    36  O1    c     0.528520    0.005875    0.334919    0.000000
    37  O1    c     0.029307    0.007954    0.709584    0.000000
    38  O1    c     0.522874    0.007241    0.833057    0.000000
    39  O1    c     0.627967    0.158933    0.151497    0.000000
    40  O1    c     0.876620    0.908350    0.144820    0.000000
    41  O1    c     0.409059    0.245030    0.898646    0.000000
    42  O1    c     0.086003    0.798968    0.904345    0.000000
    43  O3    c     0.373598    0.894648    0.905256    0.000000
    44  O3    c     0.129058    0.150437    0.901066    0.000000
    45  O3    c     0.589354    0.802537    0.136075    0.000000
    46  O3    c     0.908503    0.263245    0.142170    0.000000
    47  O1    c     0.477216    0.049163    0.088285    0.000000
    48  O1    c     0.975614    0.049026    0.956124    0.000000
    49  O3    c     0.157219    0.499421    0.359656    0.000000
    50  O3    c     0.343247    0.546430    0.358370    0.000000
    51  O3    c     0.844923    0.567403    0.686638    0.000000
    52  O3    c     0.656682    0.484769    0.685380    0.000000
    53  O3    c     0.269235    0.255958    0.309817    0.000000
    54  O3    c     0.231429    0.788861    0.309347    0.000000
    55  O3    c     0.761189    0.261240    0.736148    0.000000
    56  O3    c     0.740330    0.792202    0.735744    0.000000
    57  O3    c     0.142117    0.273609    0.141810    0.000000
    58  O3    c     0.356895    0.772077    0.141400    0.000000
    59  O3    c     0.879599    0.373322    0.905677    0.000000
    60  O3    c     0.620655    0.692123    0.899976    0.000000
    61  O3    c     0.858339    0.777015    0.890836    0.000000
    62  O3    c     0.642109    0.278237    0.890775    0.000000
    63  O3    c     0.120131    0.685346    0.156039    0.000000
    64  O3    c     0.377971    0.368152    0.151357    0.000000
    65  O3    c     0.656512    0.508749    0.104279    0.000000
    66  O3    c     0.842159    0.560249    0.110783    0.000000
    67  O3    c     0.342333    0.569133    0.933281    0.000000
    68  O3    c     0.154482    0.480263    0.938924    0.000000
    69  O3    c     0.769288    0.267941    0.055918    0.000000
    70  O3    c     0.730414    0.800526    0.056730    0.000000
    71  O3    c     0.260420    0.259582    0.987800    0.000000
    72  O3    c     0.237663    0.790612    0.986453    0.000000
    73  O1    s     0.121590    0.153616    0.390269    0.000000
    74  O1    s     0.377800    0.896051    0.391881    0.000000
    75  O1    s     0.911089    0.240258    0.660299    0.000000
    76  O1    s     0.593082    0.815581    0.654180    0.000000
    77  O3    s     0.875738    0.893748    0.659878    0.000000
    78  O3    s     0.623694    0.162657    0.662082    0.000000
    79  O3    s     0.093607    0.804106    0.381330    0.000000
    80  O3    s     0.408928    0.245404    0.377262    0.000000
    81  O1    s     0.977106    0.026159    0.468793    0.000000
    82  O1    s     0.478349    0.046030    0.575167    0.000000
    83  O1    s     0.020248    0.029285    0.215329    0.000000
    84  O1    s     0.524601    0.009170    0.329139    0.000000
    85  O1    s     0.025158    0.010275    0.715393    0.000000
    86  O1    s     0.518799    0.010476    0.829005    0.000000
    87  O1    s     0.626263    0.158762    0.145074    0.000000
    88  O1    s     0.877678    0.907902    0.135347    0.000000
    89  O1    s     0.406983    0.240076    0.907802    0.000000
    90  O1    s     0.088918    0.805290    0.909206    0.000000
    91  O3    s     0.374555    0.892590    0.915643    0.000000
    92  O3    s     0.127376    0.152610    0.907926    0.000000
    93  O3    s     0.592839    0.808371    0.130436    0.000000
    94  O3    s     0.905808    0.258304    0.131976    0.000000
    95  O1    s     0.481069    0.045588    0.083022    0.000000
    96  O1    s     0.979654    0.046501    0.961448    0.000000
    97  O3    s     0.157686    0.502510    0.349987    0.000000
    98  O3    s     0.342762    0.544018    0.348555    0.000000
    99  O3    s     0.843914    0.568955    0.696315    0.000000
   100  O3    s     0.657669    0.484072    0.694922    0.000000
   101  O3    s     0.269159    0.267954    0.308518    0.000000
   102  O3    s     0.231469    0.776785    0.308494    0.000000
   103  O3    s     0.759452    0.272265    0.737223    0.000000
   104  O3    s     0.741995    0.781016    0.736492    0.000000
   105  O3    s     0.147206    0.276563    0.140175    0.000000
   106  O3    s     0.351860    0.769353    0.140225    0.000000
   107  O3    s     0.874487    0.371887    0.906811    0.000000
   108  O3    s     0.625797    0.693024    0.901759    0.000000
   109  O3    s     0.853175    0.774359    0.889184    0.000000
   110  O3    s     0.647202    0.281482    0.889600    0.000000
   111  O3    s     0.125254    0.686135    0.157255    0.000000
   112  O3    s     0.372976    0.366466    0.153169    0.000000
   113  O3    s     0.657077    0.511152    0.094871    0.000000
   114  O3    s     0.841763    0.556910    0.100752    0.000000
   115  O3    s     0.341396    0.569831    0.943262    0.000000
   116  O3    s     0.155610    0.479171    0.948337    0.000000
   117  O3    s     0.769093    0.280104    0.055523    0.000000
   118  O3    s     0.730589    0.788454    0.055691    0.000000
   119  O3    s     0.258588    0.270868    0.988370    0.000000
   120  O3    s     0.239498    0.779468    0.987540    0.000000
--------------------------------------------------------------------------------

  Final Cartesian lattice vectors (Angstroms) :

       17.602799   -0.207780   -0.012690
       -0.091265    7.793398   -0.022165
       -0.006249   -0.032140   10.175105


  Final cell parameters and derivatives :

--------------------------------------------------------------------------------
       a           17.604030 Angstrom     dE/de1(xx)    -0.009432 eV/strain
       b            7.793964 Angstrom     dE/de2(yy)    -0.004984 eV/strain
       c           10.175158 Angstrom     dE/de3(zz)    -0.001112 eV/strain
       alpha       90.343497 Degrees      dE/de4(yz)     0.000083 eV/strain
       beta        90.074351 Degrees      dE/de5(xz)    -0.000453 eV/strain
       gamma       91.347088 Degrees      dE/de6(xy)    -0.000311 eV/strain
--------------------------------------------------------------------------------

  Primitive cell volume =          1395.671844 Angs**3

  Density of cell =      2.563393 g/cm**3

  Non-primitive cell volume =          1395.671844 Angs**3


  Final internal derivatives :

--------------------------------------------------------------------------------
   No.  Atomic          a             b             c           Radius
        Label          (eV)          (eV)          (eV)        (eV/Angs)
--------------------------------------------------------------------------------
      1 Ge    c       0.000000      0.000000      0.000000      0.000000
      2 Ge    c      -0.013889     -0.002680     -0.004734      0.000000
      3 Ge    c      -0.000794     -0.000795      0.000504      0.000000
      4 Ge    c       0.006822     -0.000635      0.001083      0.000000
      5 Ge    c       0.001616      0.000483     -0.001778      0.000000
      6 Ge    c      -0.005760      0.000326      0.002542      0.000000
      7 Ge    c      -0.007313      0.001462      0.004748      0.000000
      8 Ge    c       0.011622      0.002334     -0.007916      0.000000
      9 Ge    c       0.009639     -0.000386     -0.000247      0.000000
     10 Ge    c      -0.004437      0.001281      0.002561      0.000000
     11 Ge    c      -0.001606     -0.000491     -0.001363      0.000000
     12 Ge    c       0.001230     -0.000215     -0.000613      0.000000
     13 Ge    c       0.000693      0.000495      0.000856      0.000000
     14 Ge    c      -0.001368      0.000249      0.000581      0.000000
     15 Ge    c      -0.012944     -0.000573     -0.001665      0.000000
     16 Ge    c       0.014816      0.000207     -0.001313      0.000000
     17 Si    c      -0.001003      0.000120     -0.001455      0.000000
     18 Si    c       0.001743     -0.000046     -0.000181      0.000000
     19 Si    c       0.009341     -0.000022      0.003008      0.000000
     20 Si    c      -0.006593     -0.001368      0.001890      0.000000
     21 Si    c      -0.002835      0.004128      0.006191      0.000000
     22 Si    c       0.007095     -0.002713      0.009666      0.000000
     23 Si    c      -0.000051      0.000037      0.001035      0.000000
     24 Si    c      -0.000562     -0.000072      0.000717      0.000000
     25 O1    c      -0.013816     -0.006918     -0.001875      0.000000
     26 O1    c       0.015607      0.010291     -0.001487      0.000000
     27 O1    c       0.000024     -0.001848     -0.000076      0.000000
     28 O1    c      -0.001572      0.001575      0.000682      0.000000
     29 O3    c       0.005389      0.002380     -0.000512      0.000000
     30 O3    c      -0.002257     -0.000616     -0.000020      0.000000
     31 O3    c      -0.003586      0.003544     -0.002756      0.000000
     32 O3    c       0.005395     -0.004694     -0.000937      0.000000
     33 O1    c       0.012558     -0.001535     -0.004783      0.000000
     34 O1    c      -0.007116     -0.000349     -0.000032      0.000000
     35 O1    c       0.003001      0.001134     -0.001566      0.000000
     36 O1    c      -0.008984      0.001712      0.004268      0.000000
     37 O1    c      -0.000086      0.000671      0.001648      0.000000
     38 O1    c       0.019370      0.001005     -0.007133      0.000000
     39 O1    c      -0.005817     -0.002826      0.000829      0.000000
     40 O1    c       0.003365      0.001736     -0.000825      0.000000
     41 O1    c       0.001494      0.000555      0.001907      0.000000
     42 O1    c       0.002805     -0.010093      0.005290      0.000000
     43 O3    c       0.000909     -0.000295     -0.006463      0.000000
     44 O3    c      -0.006103     -0.002971     -0.008285      0.000000
     45 O3    c       0.000331      0.001218      0.000108      0.000000
     46 O3    c       0.000763     -0.001241     -0.000653      0.000000
     47 O1    c       0.002581     -0.001764     -0.000344      0.000000
     48 O1    c      -0.039233      0.000515      0.011241      0.000000
     49 O3    c       0.002699      0.001429     -0.001686      0.000000
     50 O3    c      -0.003115      0.000190     -0.002061      0.000000
     51 O3    c      -0.000727      0.001011      0.000423      0.000000
     52 O3    c       0.000436      0.000534      0.000202      0.000000
     53 O3    c       0.001484      0.005693      0.000022      0.000000
     54 O3    c      -0.002499     -0.005969     -0.000167      0.000000
     55 O3    c      -0.000194      0.000635     -0.000025      0.000000
     56 O3    c      -0.000012     -0.000771      0.000014      0.000000
     57 O3    c       0.000988     -0.000167     -0.002691      0.000000
     58 O3    c       0.000014     -0.000531     -0.002380      0.000000
     59 O3    c      -0.000014     -0.000040      0.001435      0.000000
     60 O3    c       0.000093     -0.000119     -0.000484      0.000000
     61 O3    c       0.000595      0.000506      0.000861      0.000000
     62 O3    c      -0.000429     -0.000179     -0.000311      0.000000
     63 O3    c      -0.001502      0.000729     -0.001394      0.000000
     64 O3    c      -0.001122      0.000301      0.002117      0.000000
     65 O3    c       0.000184     -0.001013     -0.000463      0.000000
     66 O3    c      -0.000014     -0.000649     -0.000149      0.000000
     67 O3    c       0.001720     -0.016490     -0.003759      0.000000
     68 O3    c       0.001142      0.017561     -0.004871      0.000000
     69 O3    c      -0.000289      0.000722      0.000100      0.000000
     70 O3    c       0.001110     -0.000505      0.000075      0.000000
     71 O3    c       0.030819      0.002249     -0.001449      0.000000
     72 O3    c      -0.028365     -0.001624     -0.000571      0.000000
     73 O1    s       0.005821      0.003200      0.000562      0.000000
     74 O1    s      -0.006024     -0.004468     -0.000711      0.000000
     75 O1    s      -0.000585      0.000153      0.000624      0.000000
     76 O1    s       0.001296     -0.000549      0.000570      0.000000
     77 O3    s      -0.001075     -0.000794      0.000749      0.000000
     78 O3    s      -0.000023      0.000124     -0.000126      0.000000
     79 O3    s       0.003649     -0.000888      0.000229      0.000000
     80 O3    s      -0.002378      0.000867     -0.000823      0.000000
     81 O1    s      -0.004545      0.001040      0.001967      0.000000
     82 O1    s       0.002676      0.000234     -0.003089      0.000000
     83 O1    s      -0.001399     -0.001450      0.003548      0.000000
     84 O1    s      -0.001511     -0.000832     -0.001760      0.000000
     85 O1    s      -0.003662     -0.000076     -0.004002      0.000000
     86 O1    s      -0.005935     -0.001009      0.003740      0.000000
     87 O1    s       0.001092      0.001403     -0.001133      0.000000
     88 O1    s      -0.000610     -0.001078      0.000350      0.000000
     89 O1    s      -0.006059      0.003330      0.000756      0.000000
     90 O1    s       0.003983     -0.000527     -0.003559      0.000000
     91 O3    s       0.004321      0.001154      0.000722      0.000000
     92 O3    s       0.002687      0.002130      0.000050      0.000000
     93 O3    s       0.000365      0.000442     -0.000478      0.000000
     94 O3    s      -0.000966      0.000403     -0.000277      0.000000
     95 O1    s       0.001183      0.001535      0.001811      0.000000
     96 O1    s       0.009647     -0.000136     -0.006322      0.000000
     97 O3    s      -0.004136      0.000189      0.000367      0.000000
     98 O3    s       0.003157     -0.001016      0.001108      0.000000
     99 O3    s       0.000920     -0.000269      0.000132      0.000000
    100 O3    s      -0.000637      0.000048      0.000389      0.000000
    101 O3    s       0.002972     -0.003528     -0.002173      0.000000
    102 O3    s       0.000915      0.004413     -0.000767      0.000000
    103 O3    s       0.000267     -0.000147      0.000318      0.000000
    104 O3    s      -0.000454      0.000401      0.000099      0.000000
    105 O3    s      -0.001238      0.000437      0.006383      0.000000
    106 O3    s      -0.000342      0.001247      0.005219      0.000000
    107 O3    s       0.000040     -0.000004     -0.000539      0.000000
    108 O3    s       0.000073      0.000324     -0.000251      0.000000
    109 O3    s      -0.000195     -0.000714     -0.000500      0.000000
    110 O3    s       0.000807      0.000266      0.000398      0.000000
    111 O3    s       0.005850     -0.001077     -0.000463      0.000000
    112 O3    s      -0.007825     -0.000539     -0.002112      0.000000
    113 O3    s      -0.000163      0.000277      0.000093      0.000000
    114 O3    s       0.000680      0.000161     -0.000573      0.000000
    115 O3    s      -0.003164      0.001967      0.001990      0.000000
    116 O3    s       0.000436     -0.001037      0.002443      0.000000
    117 O3    s       0.000567     -0.000304     -0.000323      0.000000
    118 O3    s      -0.000391      0.000322     -0.000361      0.000000
    119 O3    s       0.003270     -0.003871      0.003292      0.000000
    120 O3    s       0.000322      0.002189      0.002298      0.000000
--------------------------------------------------------------------------------
  Maximum abs         0.039233      0.017561      0.011241      0.000000
--------------------------------------------------------------------------------


  Born effective charge tensors : 

-------------------------------------------------------------------------------
  Atom             x           y             z
-------------------------------------------------------------------------------
    1 Ge    x       4.2264     -0.2079      0.0900
            y       0.1233      3.9097     -0.0325
            z      -0.8482      0.0762      4.2322
-------------------------------------------------------------------------------
    2 Ge    x       4.2427     -0.1750      0.4727
            y       0.1645      3.9235     -0.0522
            z       0.2490      0.0347      4.5025
-------------------------------------------------------------------------------
    3 Ge    x       4.1851     -0.2904     -0.4760
            y       0.0882      3.9539      0.0841
            z      -0.2412      0.0702      4.5205
-------------------------------------------------------------------------------
    4 Ge    x       4.2118     -0.2588     -0.0931
            y       0.0372      3.9332     -0.0180
            z       0.8390     -0.1952      4.2389
-------------------------------------------------------------------------------
    5 Ge    x       4.3532     -0.1582     -0.4284
            y       0.1827      3.9330      0.0767
            z      -0.3665      0.0022      3.9592
-------------------------------------------------------------------------------
    6 Ge    x       4.3746     -0.1696     -0.0413
            y       0.1124      3.9263     -0.0442
            z       0.7024     -0.1616      3.6243
-------------------------------------------------------------------------------
    7 Ge    x       4.3564     -0.2392      0.0368
            y       0.0641      3.9488     -0.0374
            z      -0.7128      0.1274      3.6305
-------------------------------------------------------------------------------
    8 Ge    x       4.2912     -0.2769      0.4259
            y       0.0874      3.9831     -0.0327
            z       0.3609     -0.0280      3.9664
-------------------------------------------------------------------------------
    9 Ge    x       3.8783      0.2811     -0.3089
            y       0.3412      4.1152     -0.1571
            z      -0.0542     -0.2041      3.4597
-------------------------------------------------------------------------------
   10 Ge    x       3.8433      0.2700      0.3222
            y       0.3294      4.1459      0.1625
            z       0.0654      0.2435      3.5019
-------------------------------------------------------------------------------
   11 Ge    x       3.8750     -0.1492     -0.2631
            y      -0.5038      4.1010      0.1568
            z      -0.1276      0.2581      3.4926
-------------------------------------------------------------------------------
   12 Ge    x       3.8467     -0.1754      0.2795
            y      -0.4834      4.1126     -0.1746
            z       0.0982     -0.2280      3.4593
-------------------------------------------------------------------------------
   13 Ge    x       3.8728      0.2573     -0.3871
            y       0.3007      4.1475     -0.1981
            z      -0.0852     -0.2454      3.4355
-------------------------------------------------------------------------------
   14 Ge    x       3.9264      0.2850      0.3482
            y       0.3415      4.1179      0.1456
            z       0.0709      0.2074      3.3417
-------------------------------------------------------------------------------
   15 Ge    x       3.9191     -0.1699     -0.3402
            y      -0.4737      4.1013      0.1403
            z      -0.1325      0.2176      3.3319
-------------------------------------------------------------------------------
   16 Ge    x       3.9380     -0.1342      0.3418
            y      -0.4804      4.0921     -0.1586
            z       0.1819     -0.2362      3.4006
-------------------------------------------------------------------------------
   17 Si    x       3.6909      0.2551     -0.2649
            y       0.2508      3.9403     -0.1008
            z      -0.0485     -0.2022      3.3390
-------------------------------------------------------------------------------
   18 Si    x       3.7158      0.2572      0.2711
            y       0.2680      3.9034      0.0836
            z       0.0465      0.1377      3.2866
-------------------------------------------------------------------------------
   19 Si    x       3.6638     -0.1262     -0.2158
            y      -0.4443      3.9169      0.1066
            z      -0.0740      0.1666      3.2818
-------------------------------------------------------------------------------
   20 Si    x       3.7022     -0.1120      0.2047
            y      -0.4621      3.8970     -0.1121
            z       0.1094     -0.2167      3.3309
-------------------------------------------------------------------------------
   21 Si    x       3.7659      0.2610     -0.2972
            y       0.2617      3.8981     -0.0883
            z      -0.0509     -0.1480      3.1724
-------------------------------------------------------------------------------
   22 Si    x       3.7279      0.2497      0.3127
            y       0.2240      3.9401      0.1211
            z       0.0616      0.1965      3.2591
-------------------------------------------------------------------------------
   23 Si    x       3.7441     -0.1029     -0.2953
            y      -0.4344      3.8903      0.1133
            z      -0.1457      0.1812      3.2502
-------------------------------------------------------------------------------
   24 Si    x       3.7195     -0.1203      0.2952
            y      -0.4262      3.8994     -0.0936
            z       0.0972     -0.1505      3.1612
-------------------------------------------------------------------------------
   25 O1    x      -2.1684     -0.9209      0.3059
            y      -1.0110     -2.3912      0.3652
            z       0.3942      0.3754     -1.6344
-------------------------------------------------------------------------------
   26 O1    x      -2.1701     -0.9534     -0.5427
            y      -1.0180     -2.4538     -0.5509
            z      -0.5015     -0.5665     -1.6892
-------------------------------------------------------------------------------
   27 O1    x      -2.0062      0.9033      0.5534
            y       0.8704     -2.6223     -0.5720
            z       0.5020     -0.5631     -1.6781
-------------------------------------------------------------------------------
   28 O1    x      -2.0056      0.9176     -0.3505
            y       0.8945     -2.5826      0.3136
            z      -0.4336      0.3491     -1.6219
-------------------------------------------------------------------------------
   29 O3    x      -2.0118     -0.8594      0.5427
            y      -0.9071     -2.2471      0.5606
            z       0.5093      0.5793     -1.6256
-------------------------------------------------------------------------------
   30 O3    x      -2.0216     -0.8562     -0.3515
            y      -0.9287     -2.2196     -0.4021
            z      -0.4411     -0.4224     -1.5381
-------------------------------------------------------------------------------
   31 O3    x      -1.9257      0.8689      0.3842
            y       0.8398     -2.3238     -0.3469
            z       0.4741     -0.4052     -1.5226
-------------------------------------------------------------------------------
   32 O3    x      -1.9529      0.8608     -0.5585
            y       0.8241     -2.3159      0.5466
            z      -0.5186      0.5544     -1.5993
-------------------------------------------------------------------------------
   33 O1    x      -2.1510      0.2033      0.9656
            y       0.0653     -1.2864     -0.1061
            z       1.2091     -0.2208     -3.1567
-------------------------------------------------------------------------------
   34 O1    x      -2.1520      0.2087     -0.9684
            y       0.0755     -1.2900      0.1101
            z      -1.2108      0.2093     -3.1488
-------------------------------------------------------------------------------
   35 O1    x      -2.2267      0.2445     -0.8868
            y       0.1196     -1.3703      0.2114
            z      -0.8515      0.2710     -2.5906
-------------------------------------------------------------------------------
   36 O1    x      -2.2001      0.2297      0.8125
            y       0.1244     -1.3175     -0.1328
            z       0.8278     -0.1481     -2.7388
-------------------------------------------------------------------------------
   37 O1    x      -2.1851      0.1815     -0.8012
            y       0.0558     -1.2957      0.0780
            z      -0.8165      0.1282     -2.7520
-------------------------------------------------------------------------------
   38 O1    x      -2.2351      0.1740      0.9059
            y       0.0526     -1.3374     -0.0624
            z       0.8753     -0.1075     -2.6018
-------------------------------------------------------------------------------
   39 O1    x      -2.1790     -0.9417      0.5847
            y      -0.9718     -2.4423      0.5953
            z       0.5000      0.5702     -1.6366
-------------------------------------------------------------------------------
   40 O1    x      -2.2123     -0.9448     -0.3092
            y      -1.0071     -2.4186     -0.3430
            z      -0.3743     -0.3621     -1.5013
-------------------------------------------------------------------------------
   41 O1    x      -2.0757      0.9204      0.3551
            y       0.8718     -2.5846     -0.2703
            z       0.4102     -0.3210     -1.4839
-------------------------------------------------------------------------------
   42 O1    x      -2.0527      0.8822     -0.5934
            y       0.8204     -2.6148      0.5986
            z      -0.5189      0.5734     -1.5936
-------------------------------------------------------------------------------
   43 O3    x      -2.0654     -0.8685      0.3427
            y      -0.9203     -2.2292      0.3892
            z       0.4079      0.4094     -1.4218
-------------------------------------------------------------------------------
   44 O3    x      -2.0262     -0.8563     -0.5645
            y      -0.8691     -2.2527     -0.5899
            z      -0.4908     -0.5714     -1.5564
-------------------------------------------------------------------------------
   45 O3    x      -1.9755      0.8402      0.6029
            y       0.7718     -2.3078     -0.5821
            z       0.5172     -0.5539     -1.5357
-------------------------------------------------------------------------------
   46 O3    x      -1.9849      0.8597     -0.3979
            y       0.8142     -2.3041      0.3287
            z      -0.4394      0.3716     -1.4157
-------------------------------------------------------------------------------
   47 O1    x      -2.2831      0.2058     -0.7466
            y       0.1064     -1.3685      0.0967
            z      -0.4819      0.0678     -2.2133
-------------------------------------------------------------------------------
   48 O1    x      -2.2693      0.2261      0.7299
            y       0.1206     -1.3757     -0.1649
            z       0.4631     -0.1440     -2.2112
-------------------------------------------------------------------------------
   49 O3    x      -1.2689      0.1750      0.0711
            y       0.2637     -3.0087      0.0766
            z       0.0270      0.0817     -1.2893
-------------------------------------------------------------------------------
   50 O3    x      -1.2764      0.1824     -0.0664
            y       0.2635     -3.0115     -0.0925
            z      -0.0247     -0.0922     -1.3038
-------------------------------------------------------------------------------
   51 O3    x      -1.2716      0.1311      0.0892
            y       0.2295     -3.0186     -0.0505
            z       0.0480     -0.0467     -1.3026
-------------------------------------------------------------------------------
   52 O3    x      -1.2667      0.1254     -0.0970
            y       0.2272     -3.0073      0.0904
            z      -0.0543      0.0713     -1.2922
-------------------------------------------------------------------------------
   53 O3    x      -2.8421     -0.2715      0.0068
            y      -0.2048     -1.5046      0.0332
            z      -0.0260      0.0604     -1.1543
-------------------------------------------------------------------------------
   54 O3    x      -2.8412     -0.2685      0.0223
            y      -0.2046     -1.5050     -0.0208
            z       0.0379     -0.0503     -1.1539
-------------------------------------------------------------------------------
   55 O3    x      -2.9058     -0.1583     -0.0185
            y      -0.0804     -1.4458     -0.0267
            z      -0.0047     -0.0558     -1.1503
-------------------------------------------------------------------------------
   56 O3    x      -2.9094     -0.1578     -0.0030
            y      -0.0843     -1.4463      0.0229
            z       0.0008      0.0558     -1.1536
-------------------------------------------------------------------------------
   57 O3    x      -1.4037     -0.1098      0.0468
            y      -0.1224     -1.3644      0.0046
            z       0.0267      0.0047     -2.5415
-------------------------------------------------------------------------------
   58 O3    x      -1.3999     -0.1096     -0.0393
            y      -0.1195     -1.3707      0.0370
            z      -0.0297      0.0289     -2.5327
-------------------------------------------------------------------------------
   59 O3    x      -1.3882      0.0455      0.0302
            y       0.1097     -1.3620      0.0244
            z       0.0194     -0.0076     -2.5344
-------------------------------------------------------------------------------
   60 O3    x      -1.3868      0.0464     -0.0156
            y       0.1124     -1.3536     -0.0399
            z      -0.0185     -0.0242     -2.5567
-------------------------------------------------------------------------------
   61 O3    x      -1.3992     -0.1094     -0.0782
            y      -0.1213     -1.3666     -0.0179
            z      -0.0682     -0.0309     -2.5492
-------------------------------------------------------------------------------
   62 O3    x      -1.4040     -0.1133      0.0729
            y      -0.1291     -1.3719     -0.0286
            z       0.0715     -0.0071     -2.5469
-------------------------------------------------------------------------------
   63 O3    x      -1.3842      0.0457     -0.0895
            y       0.1118     -1.3589     -0.0429
            z      -0.0827     -0.0186     -2.5605
-------------------------------------------------------------------------------
   64 O3    x      -1.3775      0.0405      0.0667
            y       0.1073     -1.3602      0.0549
            z       0.0745      0.0470     -2.5713
-------------------------------------------------------------------------------
   65 O3    x      -1.3124      0.1972      0.0836
            y       0.2668     -3.0285      0.1011
            z       0.0360      0.0865     -1.2506
-------------------------------------------------------------------------------
   66 O3    x      -1.3028      0.1856     -0.0866
            y       0.2629     -2.9818     -0.0672
            z      -0.0318     -0.0700     -1.2515
-------------------------------------------------------------------------------
   67 O3    x      -1.3028      0.1379      0.1096
            y       0.2290     -2.9725     -0.0784
            z       0.0576     -0.0683     -1.2604
-------------------------------------------------------------------------------
   68 O3    x      -1.3126      0.1464     -0.1079
            y       0.2366     -3.0198      0.0597
            z      -0.0619      0.0618     -1.2543
-------------------------------------------------------------------------------
   69 O3    x      -2.8606     -0.2924     -0.0292
            y      -0.2194     -1.5115      0.0171
            z      -0.0341      0.0455     -1.1258
-------------------------------------------------------------------------------
   70 O3    x      -2.8635     -0.2803      0.0072
            y      -0.2054     -1.5073     -0.0295
            z       0.0402     -0.0522     -1.1282
-------------------------------------------------------------------------------
   71 O3    x      -2.9295     -0.1891      0.0073
            y      -0.1050     -1.4516     -0.0181
            z      -0.0077     -0.0524     -1.1245
-------------------------------------------------------------------------------
   72 O3    x      -2.9250     -0.1749      0.0138
            y      -0.0874     -1.4496      0.0299
            z      -0.0013      0.0559     -1.1237
-------------------------------------------------------------------------------




  Elastic Constant Matrix: (Units=GPa)

-------------------------------------------------------------------------------
  Indices      1         2         3         4         5         6    
-------------------------------------------------------------------------------
       1     27.9483   11.7182    8.3847   -0.2638   -0.1947   -8.7185
       2     11.7182   38.4800    6.8840   -0.0483   -0.4338  -10.2583
       3      8.3847    6.8840   12.9564    0.1082   -0.0089   -2.5671
       4     -0.2638   -0.0483    0.1082    8.7851   -1.7479    0.0769
       5     -0.1947   -0.4338   -0.0089   -1.7479   17.6616   -0.3347
       6     -8.7185  -10.2583   -2.5671    0.0769   -0.3347   22.5371
-------------------------------------------------------------------------------


  Elastic Compliance Matrix: (Units=1/GPa)

-------------------------------------------------------------------------------
  Indices      1         2         3         4         5         6    
-------------------------------------------------------------------------------
       1    0.050960 -0.007183 -0.026516  0.001861  0.000811  0.013429
       2   -0.007183  0.033052 -0.010723  0.000191  0.000956  0.011058
       3   -0.026516 -0.010723  0.099297 -0.002203 -0.000797 -0.003832
       4    0.001861  0.000191 -0.002203  0.116204  0.011530  0.000331
       5    0.000811  0.000956 -0.000797  0.011530  0.057821  0.001477
       6    0.013429  0.011058 -0.003832  0.000331  0.001477  0.054184
-------------------------------------------------------------------------------

  Mechanical properties :

-------------------------------------------------------------------------------
  Convention :                    Reuss         Voigt         Hill
-------------------------------------------------------------------------------
  Bulk  Modulus (GPa)     =      10.58589      14.81761      12.70175
  Shear Modulus (GPa)     =       9.40114      13.28995      11.34554
-------------------------------------------------------------------------------
  Velocity S-wave (km/s)  =       1.91506       2.27695       2.10380
  Velocity P-wave (km/s)  =       3.00326       3.56275       3.29490
-------------------------------------------------------------------------------
  Compressibility (1/GPa) =    0.09446537
-------------------------------------------------------------------------------
  Stress axis :                     x             y             z
-------------------------------------------------------------------------------
  Youngs Moduli (GPa)     =      19.62336      30.25513      10.07078
-------------------------------------------------------------------------------
  Poissons Ratio (x)      =                     0.21733       0.26703
  Poissons Ratio (y)      =       0.14096                     0.10799
  Poissons Ratio (z)      =       0.52033       0.32442
-------------------------------------------------------------------------------


  Piezoelectric Strain Matrix: (Units=C/m**2)

-------------------------------------------------------------------------------
  Indices      1         2         3         4         5         6    
-------------------------------------------------------------------------------
       x     0.05886   0.10608   0.32609   0.06520  -0.01946   0.02834
       y     0.32765   0.42995   0.12110   0.02627   0.10481  -0.12424
       z     0.20344   0.41972   0.06621   0.10515  -0.33467   0.05963
-------------------------------------------------------------------------------


  Piezoelectric Stress Matrix: (Units=10**-11 C/N)

-------------------------------------------------------------------------------
  Indices      1         2         3         4         5         6    
-------------------------------------------------------------------------------
       x    -0.59229  -0.01059   2.94452   0.67733  -0.04422   0.22423
       y     0.88627   0.92902  -0.09388   0.46457   0.67597   0.21219
       z     0.63217   1.20611  -0.35141   0.86928  -1.75368   0.98909
-------------------------------------------------------------------------------


  Static dielectric constant tensor : 

-------------------------------------------------------------------------------
              x         y         z
-------------------------------------------------------------------------------
       x     5.10345  -0.07230  -0.00109
       y    -0.07230   5.81806  -0.00228
       z    -0.00109  -0.00228   4.25853
--------------------------------------------------------------------------------

  High frequency dielectric constant tensor : 

-------------------------------------------------------------------------------
              x         y         z
-------------------------------------------------------------------------------
       x     1.57228  -0.00274  -0.00002
       y    -0.00274   1.58096  -0.00037
       z    -0.00002  -0.00037   1.52532
-------------------------------------------------------------------------------

  Static refractive indices : 

-------------------------------------------------------------------------------
    1 =    2.06362      2 =    2.25748      3 =    2.41357
-------------------------------------------------------------------------------

  High frequency refractive indices : 

-------------------------------------------------------------------------------
    1 =    1.23504      2 =    1.25359      3 =    1.25768
-------------------------------------------------------------------------------


  Time to end of optimisation =      10.5058 seconds


  Peak dynamic memory used =       5.01 MB 


  Timing analysis for GULP :

--------------------------------------------------------------------------------
  Task / Subroutine                                          Time (Seconds)
--------------------------------------------------------------------------------
  Calculation of reciprocal space energy and derivatives          0.7027
  Calculation of real space energy and derivatives                7.1505
  Calculation of three-body energy and derivatives                0.1023
  Calculation and manipulation of Hessian matrix                  3.2564
  Calculation of matrix inversion                                 0.0333
  Global summation overhead                                       0.0002
--------------------------------------------------------------------------------
  Total CPU time                                                 10.5058
--------------------------------------------------------------------------------


  Dump file written as POSCAR_N0016.vasp.grs
  CIF file written as POSCAR_N0016.vasp.cif


  Job Finished at 11:30.37 31st October    2025                               

