********************************************************************************
*                       GENERAL UTILITY LATTICE PROGRAM                        *
*                                 Julian Gale                                  *
*                       Curtin Institute for Computation                       *
*                    School of Molecular and Life Sciences                     *
*                    Curtin University, Western Australia                      *
********************************************************************************
* Version = 6.1.2 * Last modified =   3rd November 2022                        *
********************************************************************************
*  optimise     - perform optimisation run                                     *
*  conp         - constant pressure calculation                                *
*  property     - calculate properties for final geometry                      *
********************************************************************************

  Job Started  at 11:30.55 31st October    2025                               

  Number of CPUs =     1


  Total number of configurations input =      1

********************************************************************************
*  Input for Configuration =   1 : POSCAR_N0019.vasp                           *
********************************************************************************

  Formula = Ge19Si5O48                                                  

  Number of irreducible atoms/shells =     120


  Total number atoms/shells =     120

  Dimensionality = 3               :  Bulk   



  Cartesian lattice vectors (Angstroms) :

       17.182800    0.000000    0.000000
        0.000000    7.513760    0.000000
        0.000000    0.000000   10.447700

  Cell parameters (Angstroms/Degrees):

  a =      17.1828    alpha =  90.0000
  b =       7.5138    beta  =  90.0000
  c =      10.4477    gamma =  90.0000

  Initial cell volume =        1348.875752 Angs**3

  Temperature of configuration =   0.00     K 

  Pressure of configuration =         0.000 GPa 

  Fractional coordinates of asymmetric unit :

--------------------------------------------------------------------------------
   No.  Atomic       x           y          z         Charge      Occupancy
        Label      (Frac)      (Frac)     (Frac)        (e)         (Frac)  
--------------------------------------------------------------------------------
      1 Ge    c    0.052090    0.000000    0.372270     4.00000    1.000000    
      2 Ge    c    0.447910 *  0.000000 *  0.372270 *   4.00000    1.000000    
      3 Ge    c    0.947910 *  0.000000 *  0.627730 *   4.00000    1.000000    
      4 Ge    c    0.552090 *  0.000000 *  0.627730 *   4.00000    1.000000    
      5 Ge    c    0.556730 *  0.000000 *  0.122130 *   4.00000    1.000000    
      6 Ge    c    0.943270 *  0.000000 *  0.122130 *   4.00000    1.000000    
      7 Ge    c    0.443270 *  0.000000 *  0.877870 *   4.00000    1.000000    
      8 Ge    c    0.056730 *  0.000000 *  0.877870 *   4.00000    1.000000    
      9 Ge    c    0.160190 *  0.293910 *  0.273440 *   4.00000    1.000000    
     10 Ge    c    0.339810 *  0.706090 *  0.273440 *   4.00000    1.000000    
     11 Ge    c    0.839810 *  0.293910 *  0.726560 *   4.00000    1.000000    
     12 Ge    c    0.660190 *  0.706090 *  0.726560 *   4.00000    1.000000    
     13 Ge    c    0.839810 *  0.706090 *  0.726560 *   4.00000    1.000000    
     14 Ge    c    0.660660 *  0.294090 *  0.017440 *   4.00000    1.000000    
     15 Ge    c    0.839340 *  0.705910 *  0.017440 *   4.00000    1.000000    
     16 Ge    c    0.339340 *  0.294090 *  0.982560 *   4.00000    1.000000    
     17 Ge    c    0.160660 *  0.705910 *  0.982560 *   4.00000    1.000000    
     18 Ge    c    0.160660 *  0.294090 *  0.982560 *   4.00000    1.000000    
     19 Ge    c    0.839340 *  0.294090 *  0.017440 *   4.00000    1.000000    
     20 Si    c    0.660190 *  0.293910 *  0.726560 *   4.00000    1.000000    
     21 Si    c    0.160190 *  0.706090 *  0.273440 *   4.00000    1.000000    
     22 Si    c    0.339810 *  0.293910 *  0.273440 *   4.00000    1.000000    
     23 Si    c    0.339340 *  0.705910 *  0.982560 *   4.00000    1.000000    
     24 Si    c    0.660660 *  0.705910 *  0.017440 *   4.00000    1.000000    
     25 O1    c    0.106570 *  0.174340 *  0.366200 *   1.73396    1.000000    
     26 O1    c    0.393430 *  0.825660 *  0.366200 *   1.73396    1.000000    
     27 O1    c    0.893430 *  0.174340 *  0.633800 *   1.73396    1.000000    
     28 O1    c    0.606570 *  0.825660 *  0.633800 *   1.73396    1.000000    
     29 O1    c    0.893430 *  0.825660 *  0.633800 *   1.73396    1.000000    
     30 O3    c    0.606570 *  0.174340 *  0.633800 *   1.33043    1.000000    
     31 O3    c    0.106570 *  0.825660 *  0.366200 *   1.33043    1.000000    
     32 O3    c    0.393430 *  0.174340 *  0.366200 *   1.33043    1.000000    
     33 O1    c    0.000000 *  0.000000 *  0.500000 *   1.73396    1.000000    
     34 O1    c    0.500000 *  0.000000 *  0.500000 *   1.73396    1.000000    
     35 O1    c    0.994520 *  0.000000 *  0.250840 *   1.73396    1.000000    
     36 O1    c    0.505480 *  0.000000 *  0.250840 *   1.73396    1.000000    
     37 O1    c    0.005480 *  0.000000 *  0.749160 *   1.73396    1.000000    
     38 O1    c    0.494520 *  0.000000 *  0.749160 *   1.73396    1.000000    
     39 O1    c    0.610230 *  0.175520 *  0.115390 *   1.73396    1.000000    
     40 O1    c    0.889770 *  0.824480 *  0.115390 *   1.73396    1.000000    
     41 O1    c    0.389770 *  0.175520 *  0.884610 *   1.73396    1.000000    
     42 O1    c    0.110230 *  0.824480 *  0.884610 *   1.73396    1.000000    
     43 O3    c    0.389770 *  0.824480 *  0.884610 *   1.33043    1.000000    
     44 O1    c    0.110230 *  0.175520 *  0.884610 *   1.73396    1.000000    
     45 O3    c    0.610230 *  0.824480 *  0.115390 *   1.33043    1.000000    
     46 O1    c    0.889770 *  0.175520 *  0.115390 *   1.73396    1.000000    
     47 O1    c    0.500000 *  0.000000 *  0.000000 *   1.73396    1.000000    
     48 O1    c    0.000000 *  0.000000 *  0.000000 *   1.73396    1.000000    
     49 O3    c    0.151750 *  0.500000 *  0.313330 *   1.33043    1.000000    
     50 O3    c    0.348250 *  0.500000 *  0.313330 *   1.33043    1.000000    
     51 O1    c    0.848250 *  0.500000 *  0.686670 *   1.73396    1.000000    
     52 O3    c    0.651750 *  0.500000 *  0.686670 *   1.33043    1.000000    
     53 O3    c    0.250000 *  0.234950 *  0.285720 *   1.33043    1.000000    
     54 O3    c    0.250000 *  0.765050 *  0.285720 *   1.33043    1.000000    
     55 O3    c    0.750000 *  0.234950 *  0.714280 *   1.33043    1.000000    
     56 O1    c    0.750000 *  0.765050 *  0.714280 *   1.73396    1.000000    
     57 O1    c    0.131410 *  0.268650 *  0.127790 *   1.73396    1.000000    
     58 O3    c    0.368590 *  0.731350 *  0.127790 *   1.33043    1.000000    
     59 O1    c    0.868590 *  0.268650 *  0.872210 *   1.73396    1.000000    
     60 O3    c    0.631410 *  0.731350 *  0.872210 *   1.33043    1.000000    
     61 O1    c    0.868590 *  0.731350 *  0.872210 *   1.73396    1.000000    
     62 O3    c    0.631410 *  0.268650 *  0.872210 *   1.33043    1.000000    
     63 O3    c    0.131410 *  0.731350 *  0.127790 *   1.33043    1.000000    
     64 O3    c    0.368590 *  0.268650 *  0.127790 *   1.33043    1.000000    
     65 O3    c    0.653920 *  0.500000 *  0.058200 *   1.33043    1.000000    
     66 O1    c    0.846080 *  0.500000 *  0.058200 *   1.73396    1.000000    
     67 O3    c    0.346080 *  0.500000 *  0.941800 *   1.33043    1.000000    
     68 O1    c    0.153920 *  0.500000 *  0.941800 *   1.73396    1.000000    
     69 O1    c    0.750000 *  0.231060 *  0.027050 *   1.73396    1.000000    
     70 O3    c    0.750000 *  0.768940 *  0.027050 *   1.33043    1.000000    
     71 O1    c    0.250000 *  0.231060 *  0.972950 *   1.73396    1.000000    
     72 O3    c    0.250000 *  0.768940 *  0.972950 *   1.33043    1.000000    
     73 O1    s    0.106570 *  0.174340 *  0.366200 *  -3.73396    1.000000    
     74 O1    s    0.393430 *  0.825660 *  0.366200 *  -3.73396    1.000000    
     75 O1    s    0.893430 *  0.174340 *  0.633800 *  -3.73396    1.000000    
     76 O1    s    0.606570 *  0.825660 *  0.633800 *  -3.73396    1.000000    
     77 O1    s    0.893430 *  0.825660 *  0.633800 *  -3.73396    1.000000    
     78 O3    s    0.606570 *  0.174340 *  0.633800 *  -3.33043    1.000000    
     79 O3    s    0.106570 *  0.825660 *  0.366200 *  -3.33043    1.000000    
     80 O3    s    0.393430 *  0.174340 *  0.366200 *  -3.33043    1.000000    
     81 O1    s    0.000000 *  0.000000 *  0.500000 *  -3.73396    1.000000    
     82 O1    s    0.500000 *  0.000000 *  0.500000 *  -3.73396    1.000000    
     83 O1    s    0.994520 *  0.000000 *  0.250840 *  -3.73396    1.000000    
     84 O1    s    0.505480 *  0.000000 *  0.250840 *  -3.73396    1.000000    
     85 O1    s    0.005480 *  0.000000 *  0.749160 *  -3.73396    1.000000    
     86 O1    s    0.494520 *  0.000000 *  0.749160 *  -3.73396    1.000000    
     87 O1    s    0.610230 *  0.175520 *  0.115390 *  -3.73396    1.000000    
     88 O1    s    0.889770 *  0.824480 *  0.115390 *  -3.73396    1.000000    
     89 O1    s    0.389770 *  0.175520 *  0.884610 *  -3.73396    1.000000    
     90 O1    s    0.110230 *  0.824480 *  0.884610 *  -3.73396    1.000000    
     91 O3    s    0.389770 *  0.824480 *  0.884610 *  -3.33043    1.000000    
     92 O1    s    0.110230 *  0.175520 *  0.884610 *  -3.73396    1.000000    
     93 O3    s    0.610230 *  0.824480 *  0.115390 *  -3.33043    1.000000    
     94 O1    s    0.889770 *  0.175520 *  0.115390 *  -3.73396    1.000000    
     95 O1    s    0.500000 *  0.000000 *  0.000000 *  -3.73396    1.000000    
     96 O1    s    0.000000 *  0.000000 *  0.000000 *  -3.73396    1.000000    
     97 O3    s    0.151750 *  0.500000 *  0.313330 *  -3.33043    1.000000    
     98 O3    s    0.348250 *  0.500000 *  0.313330 *  -3.33043    1.000000    
     99 O1    s    0.848250 *  0.500000 *  0.686670 *  -3.73396    1.000000    
    100 O3    s    0.651750 *  0.500000 *  0.686670 *  -3.33043    1.000000    
    101 O3    s    0.250000 *  0.234950 *  0.285720 *  -3.33043    1.000000    
    102 O3    s    0.250000 *  0.765050 *  0.285720 *  -3.33043    1.000000    
    103 O3    s    0.750000 *  0.234950 *  0.714280 *  -3.33043    1.000000    
    104 O1    s    0.750000 *  0.765050 *  0.714280 *  -3.73396    1.000000    
    105 O1    s    0.131410 *  0.268650 *  0.127790 *  -3.73396    1.000000    
    106 O3    s    0.368590 *  0.731350 *  0.127790 *  -3.33043    1.000000    
    107 O1    s    0.868590 *  0.268650 *  0.872210 *  -3.73396    1.000000    
    108 O3    s    0.631410 *  0.731350 *  0.872210 *  -3.33043    1.000000    
    109 O1    s    0.868590 *  0.731350 *  0.872210 *  -3.73396    1.000000    
    110 O3    s    0.631410 *  0.268650 *  0.872210 *  -3.33043    1.000000    
    111 O3    s    0.131410 *  0.731350 *  0.127790 *  -3.33043    1.000000    
    112 O3    s    0.368590 *  0.268650 *  0.127790 *  -3.33043    1.000000    
    113 O3    s    0.653920 *  0.500000 *  0.058200 *  -3.33043    1.000000    
    114 O1    s    0.846080 *  0.500000 *  0.058200 *  -3.73396    1.000000    
    115 O3    s    0.346080 *  0.500000 *  0.941800 *  -3.33043    1.000000    
    116 O1    s    0.153920 *  0.500000 *  0.941800 *  -3.73396    1.000000    
    117 O1    s    0.750000 *  0.231060 *  0.027050 *  -3.73396    1.000000    
    118 O3    s    0.750000 *  0.768940 *  0.027050 *  -3.33043    1.000000    
    119 O1    s    0.250000 *  0.231060 *  0.972950 *  -3.73396    1.000000    
    120 O3    s    0.250000 *  0.768940 *  0.972950 *  -3.33043    1.000000    
--------------------------------------------------------------------------------



********************************************************************************
*  General input information                                                   *
********************************************************************************

  Species output for all configurations : 

--------------------------------------------------------------------------------
  Species    Type    Atomic    Atomic    Charge       Radii (Angs)     Library
                     Number     Mass       (e)     Cova   Ionic  VDW   Symbol
--------------------------------------------------------------------------------
    Ge       Core       32      72.61   4.000000   1.170  0.000  1.750 Ge       
    Si       Core       14      28.09   4.000000   1.200  0.000  2.100 Si       
    O1       Core        8      16.00   1.733957   0.730  0.000  1.360 O1       
    O2       Core        8      16.00   0.870733   0.730  0.000  0.000 O2       
    O3       Core        8      16.00   1.330431   0.730  0.000  1.360 O3       
    O1       Shell       8       0.00  -3.733957   0.730  0.000  0.000 O1       
    O2       Shell       8       0.00  -2.870733   0.730  0.000  0.000 O2       
    O3       Shell       8       0.00  -3.330431   0.730  0.000  0.000 O3       
--------------------------------------------------------------------------------


  Lattice summation method               =    Ewald          (3-D)
                                         =    Parry          (2-D)
                                         =    Saunders et al (1-D)
  Accuracy factor for lattice sums       =   12.000


  Analytic derivatives to be used

  Time limit = Infinity

  Maximum range for interatomic potentials =    100000.000000 Angstroms

  General interatomic potentials :

--------------------------------------------------------------------------------
Atom  Types   Potential      Parameter       Value         Units   Cutoffs(Ang)
  1     2                                                            Min /  Max 
--------------------------------------------------------------------------------
Si   c O1   s Buckingham    Buckingham A     1315.2478    eV        0.000 16.000
                            Buckingham rho  0.31775900    Ang       
                            Buckingham C     10.141118    eV*Ang^6  
--------------------------------------------------------------------------------
Si   c O2   s Buckingham    Buckingham A     1315.2478    eV        0.000 16.000
                            Buckingham rho  0.31775900    Ang       
                            Buckingham C     10.141118    eV*Ang^6  
--------------------------------------------------------------------------------
Si   c O3   s Buckingham    Buckingham A     1315.2478    eV        0.000 16.000
                            Buckingham rho  0.31775900    Ang       
                            Buckingham C     10.141118    eV*Ang^6  
--------------------------------------------------------------------------------
Ge   c O1   s Buckingham    Buckingham A     1497.3996    eV        0.000 16.000
                            Buckingham rho  0.32564600    Ang       
                            Buckingham C     16.808599    eV*Ang^6  
--------------------------------------------------------------------------------
Ge   c O2   s Buckingham    Buckingham A     1497.3996    eV        0.000 16.000
                            Buckingham rho  0.32564600    Ang       
                            Buckingham C     16.808599    eV*Ang^6  
--------------------------------------------------------------------------------
Ge   c O3   s Buckingham    Buckingham A     1497.3996    eV        0.000 16.000
                            Buckingham rho  0.32564600    Ang       
                            Buckingham C     16.808599    eV*Ang^6  
--------------------------------------------------------------------------------
O1   s O1   s Buckingham    Buckingham A     22764.000    eV        0.000 16.000
                            Buckingham rho  0.14900000    Ang       
                            Buckingham C     10.937044    eV*Ang^6  
--------------------------------------------------------------------------------
O1   s O2   s Buckingham    Buckingham A     22764.000    eV        0.000 16.000
                            Buckingham rho  0.14900000    Ang       
                            Buckingham C     10.937044    eV*Ang^6  
--------------------------------------------------------------------------------
O1   s O3   s Buckingham    Buckingham A     22764.000    eV        0.000 16.000
                            Buckingham rho  0.14900000    Ang       
                            Buckingham C     10.937044    eV*Ang^6  
--------------------------------------------------------------------------------
O2   s O2   s Buckingham    Buckingham A     22764.000    eV        0.000 16.000
                            Buckingham rho  0.14900000    Ang       
                            Buckingham C     10.937044    eV*Ang^6  
--------------------------------------------------------------------------------
O2   s O3   s Buckingham    Buckingham A     22764.000    eV        0.000 16.000
                            Buckingham rho  0.14900000    Ang       
                            Buckingham C     10.937044    eV*Ang^6  
--------------------------------------------------------------------------------
O3   s O3   s Buckingham    Buckingham A     22764.000    eV        0.000 16.000
                            Buckingham rho  0.14900000    Ang       
                            Buckingham C     10.937044    eV*Ang^6  
--------------------------------------------------------------------------------
O1   c O1   s Spring (c-s)  Spring k 2       180.31577    eV*Ang^-2 0.000  0.800
                            Spring k 4       0.0000000    eV*Ang^-4 
--------------------------------------------------------------------------------
O2   c O2   s Spring (c-s)  Spring k 2       75.969800    eV*Ang^-2 0.000  0.800
                            Spring k 4       0.0000000    eV*Ang^-4 
--------------------------------------------------------------------------------
O3   c O3   s Spring (c-s)  Spring k 2       128.14270    eV*Ang^-2 0.000  0.800
                            Spring k 4       0.0000000    eV*Ang^-4 
--------------------------------------------------------------------------------

  General Three-body potentials :

--------------------------------------------------------------------------------
  Atoms       Potential      Parameter       Value         Units   Cutoffs(Ang)
  1 / 2 / 3                                                          Min /  Max 
--------------------------------------------------------------------------------
Si    core    Harmonic      Three-body cnst  1.2614000    eV*rad^-2 0.000  1.900
O1    shel                  Three-body angl  109.47000    degrees   0.000  1.900
O1    shel                  Three-body k4    0.0000000    eV*rad^-4 0.000  3.500
                            Three-body k3    0.0000000    eV*rad^-3 
--------------------------------------------------------------------------------
Si    core    Harmonic      Three-body cnst  1.2614000    eV*rad^-2 0.000  1.900
O1    shel                  Three-body angl  109.47000    degrees   0.000  1.900
õ(1   shel                  Three-body k4    0.0000000    eV*rad^-4 0.000  3.500
                            Three-body k3    0.0000000    eV*rad^-3 
--------------------------------------------------------------------------------
Si    core    Harmonic      Three-body cnst  1.2614000    eV*rad^-2 0.000  1.900
õ(1   shel                  Three-body angl  109.47000    degrees   0.000  1.900
õ(1   shel                  Three-body k4    0.0000000    eV*rad^-4 0.000  3.500
                            Three-body k3    0.0000000    eV*rad^-3 
--------------------------------------------------------------------------------
Si    core    Harmonic      Three-body cnst  1.2614000    eV*rad^-2 0.000  1.900
O1    shel                  Three-body angl  109.47000    degrees   0.000  1.900
O2    shel                  Three-body k4    0.0000000    eV*rad^-4 0.000  3.500
                            Three-body k3    0.0000000    eV*rad^-3 
--------------------------------------------------------------------------------
Si    core    Harmonic      Three-body cnst  1.2614000    eV*rad^-2 0.000  1.900
O1    shel                  Three-body angl  109.47000    degrees   0.000  1.900
õ(2   shel                  Three-body k4    0.0000000    eV*rad^-4 0.000  3.500
                            Three-body k3    0.0000000    eV*rad^-3 
--------------------------------------------------------------------------------
Si    core    Harmonic      Three-body cnst  1.2614000    eV*rad^-2 0.000  1.900
O2    shel                  Three-body angl  109.47000    degrees   0.000  1.900
õ(1   shel                  Three-body k4    0.0000000    eV*rad^-4 0.000  3.500
                            Three-body k3    0.0000000    eV*rad^-3 
--------------------------------------------------------------------------------
Si    core    Harmonic      Three-body cnst  1.2614000    eV*rad^-2 0.000  1.900
õ(1   shel                  Three-body angl  109.47000    degrees   0.000  1.900
õ(2   shel                  Three-body k4    0.0000000    eV*rad^-4 0.000  3.500
                            Three-body k3    0.0000000    eV*rad^-3 
--------------------------------------------------------------------------------
Si    core    Harmonic      Three-body cnst  1.2614000    eV*rad^-2 0.000  1.900
O2    shel                  Three-body angl  109.47000    degrees   0.000  1.900
O2    shel                  Three-body k4    0.0000000    eV*rad^-4 0.000  3.500
                            Three-body k3    0.0000000    eV*rad^-3 
--------------------------------------------------------------------------------
Si    core    Harmonic      Three-body cnst  1.2614000    eV*rad^-2 0.000  1.900
O2    shel                  Three-body angl  109.47000    degrees   0.000  1.900
õ(2   shel                  Three-body k4    0.0000000    eV*rad^-4 0.000  3.500
                            Three-body k3    0.0000000    eV*rad^-3 
--------------------------------------------------------------------------------
Si    core    Harmonic      Three-body cnst  1.2614000    eV*rad^-2 0.000  1.900
õ(2   shel                  Three-body angl  109.47000    degrees   0.000  1.900
õ(2   shel                  Three-body k4    0.0000000    eV*rad^-4 0.000  3.500
                            Three-body k3    0.0000000    eV*rad^-3 
--------------------------------------------------------------------------------

********************************************************************************
*  Output for configuration   1 : POSCAR_N0019.vasp                            *
********************************************************************************


  Components of energy : 

--------------------------------------------------------------------------------
  Interatomic potentials     =         888.63129892 eV    
  Three-body potentials      =           0.00000000 eV    
  Monopole - monopole (real) =       -2676.00317478 eV    
  Monopole - monopole (recip)=       -1115.35404472 eV    
  Monopole - monopole (total)=       -3791.35721950 eV    
--------------------------------------------------------------------------------
  Total lattice energy       =       -2902.72592058 eV    
--------------------------------------------------------------------------------
  Total lattice energy       =         -280068.6791 kJ/(mole unit cells)
--------------------------------------------------------------------------------


  Number of variables =      363

  Maximum number of calculations  =          1000
  Maximum Hessian update interval =            10
  Maximum step size               =   0.100000000
  Maximum parameter tolerance     =   0.000010000
  Maximum function  tolerance     =   0.000010000
  Maximum gradient  tolerance     =   0.001000000
  Maximum gradient  component     =   0.010000000

  Symmetry not applied to optimisation

  Cell parameters to be optimised using strains

  Newton-Raphson optimiser to be used

  BFGS hessian update to be used

  Lower half triangular hessian to be used

  Minimiser to switch to RFO
  When gradient norm is less than     0.050000

  Dumpfile to be written after every cycle

  Start of bulk optimisation :

  Cycle:      0 Energy:     -2902.725921  Gnorm:      5.695031  CPU:    0.082
  ** Hessian calculated **
  Cycle:      1 Energy:     -2945.317056  Gnorm:      1.369810  CPU:    0.178
  ** Hessian calculated **
  Cycle:      2 Energy:     -2949.926356  Gnorm:      0.692927  CPU:    0.328
  Cycle:      3 Energy:     -2950.987738  Gnorm:      0.427456  CPU:    0.403
  Cycle:      4 Energy:     -2951.757964  Gnorm:      0.361121  CPU:    0.494
  Cycle:      5 Energy:     -2952.698333  Gnorm:      0.288309  CPU:    0.583
  Cycle:      6 Energy:     -2953.504184  Gnorm:      0.248379  CPU:    0.673
  Cycle:      7 Energy:     -2953.760342  Gnorm:      0.147222  CPU:    0.750
  Cycle:      8 Energy:     -2953.851530  Gnorm:      0.110243  CPU:    0.826
  Cycle:      9 Energy:     -2953.911548  Gnorm:      0.093311  CPU:    0.916
  Cycle:     10 Energy:     -2953.966652  Gnorm:      0.087041  CPU:    1.007
  Cycle:     11 Energy:     -2954.029328  Gnorm:      0.089867  CPU:    1.097
  ** Hessian calculated **
  Cycle:     12 Energy:     -2954.047990  Gnorm:      0.076088  CPU:    1.260
  Cycle:     13 Energy:     -2954.073433  Gnorm:      0.067418  CPU:    1.351
  Cycle:     14 Energy:     -2954.108873  Gnorm:      0.065372  CPU:    1.440
  Cycle:     15 Energy:     -2954.148681  Gnorm:      0.061959  CPU:    1.530
  Cycle:     16 Energy:     -2954.172215  Gnorm:      0.059132  CPU:    1.606
  Cycle:     17 Energy:     -2954.190603  Gnorm:      0.054223  CPU:    1.682
  Cycle:     18 Energy:     -2954.208080  Gnorm:      0.055615  CPU:    1.771
  Cycle:     19 Energy:     -2954.227805  Gnorm:      0.055500  CPU:    1.861
  Cycle:     20 Energy:     -2954.250830  Gnorm:      0.055992  CPU:    1.950
  Cycle:     21 Energy:     -2954.275263  Gnorm:      0.053779  CPU:    2.041
  ** Hessian calculated **
  Cycle:     22 Energy:     -2954.286441  Gnorm:      0.053094  CPU:    2.203
  Cycle:     23 Energy:     -2954.305458  Gnorm:      0.051893  CPU:    2.306
  Cycle:     24 Energy:     -2954.337322  Gnorm:      0.049732  CPU:    2.409
  ** Hessian has wrong structure
  ** Imaginary eigenvectors =   6
  Cycle:     25 Energy:     -2954.368814  Gnorm:      0.148615  CPU:    2.639
  ** Hessian has wrong structure
  ** Imaginary eigenvectors =   6
  ** Hessian has wrong structure
  ** Imaginary eigenvectors =   5
  Cycle:     26 Energy:     -2954.420881  Gnorm:      0.153778  CPU:    3.080
  ** Hessian has wrong structure
  ** Imaginary eigenvectors =   4
  ** Hessian has wrong structure
  ** Imaginary eigenvectors =   4
  Cycle:     27 Energy:     -2954.537086  Gnorm:      0.160366  CPU:    3.491
  ** Hessian has wrong structure
  ** Imaginary eigenvectors =   3
  ** Hessian has wrong structure
  ** Imaginary eigenvectors =   1
  Cycle:     28 Energy:     -2954.608210  Gnorm:      0.168627  CPU:    3.821
  ** Hessian has required structure
  Cycle:     29 Energy:     -2954.904784  Gnorm:      0.126717  CPU:    4.023
  ** Hessian has required structure
  Cycle:     30 Energy:     -2955.102775  Gnorm:      0.081351  CPU:    4.144
  ** Hessian has required structure
  Cycle:     31 Energy:     -2955.180673  Gnorm:      0.051131  CPU:    4.263
  ** Hessian has required structure
  Cycle:     32 Energy:     -2955.222714  Gnorm:      0.042267  CPU:    4.369
  ** Hessian has required structure
  Cycle:     33 Energy:     -2955.257384  Gnorm:      0.051777  CPU:    4.490
  ** Hessian has required structure
  Cycle:     34 Energy:     -2955.270123  Gnorm:      0.036413  CPU:    4.597
  ** Hessian has required structure
  Cycle:     35 Energy:     -2955.283299  Gnorm:      0.035875  CPU:    4.730
  ** Hessian has required structure
  Cycle:     36 Energy:     -2955.300136  Gnorm:      0.049040  CPU:    4.865
  ** Hessian has required structure
  Cycle:     37 Energy:     -2955.311373  Gnorm:      0.049983  CPU:    4.985
  ** Hessian has required structure
  Cycle:     38 Energy:     -2955.321389  Gnorm:      0.051862  CPU:    5.105
  ** Hessian has required structure
  Cycle:     39 Energy:     -2955.360264  Gnorm:      0.038841  CPU:    5.304
  ** Hessian has required structure
  Cycle:     40 Energy:     -2955.382442  Gnorm:      0.027842  CPU:    5.437
  ** Hessian has required structure
  Cycle:     41 Energy:     -2955.395735  Gnorm:      0.014223  CPU:    5.568
  ** Hessian has required structure
  Cycle:     42 Energy:     -2955.400656  Gnorm:      0.019902  CPU:    5.687
  ** Hessian has required structure
  Cycle:     43 Energy:     -2955.405015  Gnorm:      0.006741  CPU:    5.806
  ** Hessian has required structure
  Cycle:     44 Energy:     -2955.405672  Gnorm:      0.003852  CPU:    5.939
  ** Hessian has required structure
  Cycle:     45 Energy:     -2955.405880  Gnorm:      0.002651  CPU:    6.058
  ** Hessian has required structure
  Cycle:     46 Energy:     -2955.405979  Gnorm:      0.001283  CPU:    6.178
  ** Hessian has required structure
  Cycle:     47 Energy:     -2955.406009  Gnorm:      0.000705  CPU:    6.297
  ** Hessian has required structure
  Cycle:     48 Energy:     -2955.406020  Gnorm:      0.000501  CPU:    6.417
  ** Hessian has required structure
  Cycle:     49 Energy:     -2955.406024  Gnorm:      0.000351  CPU:    6.588
  ** Hessian has required structure
  Cycle:     50 Energy:     -2955.406025  Gnorm:      0.000246  CPU:    6.693
  ** Hessian has required structure
  Cycle:     51 Energy:     -2955.406026  Gnorm:      0.000172  CPU:    6.799
  ** Hessian has required structure
  Cycle:     52 Energy:     -2955.406027  Gnorm:      0.000121  CPU:    6.906
  ** Hessian has required structure
  Cycle:     53 Energy:     -2955.406027  Gnorm:      0.000085  CPU:    7.013
  ** Hessian has required structure
  Cycle:     54 Energy:     -2955.406027  Gnorm:      0.000059  CPU:    7.117
  ** Hessian has required structure


  **** Optimisation achieved ****


  Final energy =   -2955.40602705 eV      
  Final Gnorm  =       0.00004146

  Components of energy : 

--------------------------------------------------------------------------------
  Interatomic potentials     =         783.82771022 eV    
  Three-body potentials      =           0.00000000 eV    
  Monopole - monopole (real) =       -1599.86956506 eV    
  Monopole - monopole (recip)=       -2139.36417222 eV    
  Monopole - monopole (total)=       -3739.23373728 eV    
--------------------------------------------------------------------------------
  Total lattice energy       =       -2955.40602705 eV    
--------------------------------------------------------------------------------
  Total lattice energy       =         -285151.5041 kJ/(mole unit cells)
--------------------------------------------------------------------------------

  Final fractional coordinates of atoms :

--------------------------------------------------------------------------------
   No.  Atomic        x           y          z          Radius
        Label       (Frac)      (Frac)     (Frac)       (Angs) 
--------------------------------------------------------------------------------
     1  Ge    c     0.052090    0.000000    0.372270    0.000000
     2  Ge    c     0.441762    0.054356    0.328038    0.000000
     3  Ge    c     0.940921    0.042759    0.616411    0.000000
     4  Ge    c     0.544809    0.998969    0.584475    0.000000
     5  Ge    c     0.546851    0.990462    0.073960    0.000000
     6  Ge    c     0.939593    0.050504    0.128674    0.000000
     7  Ge    c     0.436903    0.044449    0.829075    0.000000
     8  Ge    c     0.042516    0.986075    0.874784    0.000000
     9  Ge    c     0.167494    0.295948    0.261026    0.000000
    10  Ge    c     0.320899    0.761124    0.258746    0.000000
    11  Ge    c     0.841321    0.357433    0.686772    0.000000
    12  Ge    c     0.637096    0.681753    0.699930    0.000000
    13  Ge    c     0.817689    0.759489    0.688695    0.000000
    14  Ge    c     0.667566    0.286762    0.010516    0.000000
    15  Ge    c     0.819830    0.764637    0.007417    0.000000
    16  Ge    c     0.346550    0.360881    0.951965    0.000000
    17  Ge    c     0.145587    0.678522    0.938714    0.000000
    18  Ge    c     0.166603    0.275468    0.945004    0.000000
    19  Ge    c     0.847971    0.362306    0.008022    0.000000
    20  Si    c     0.663866    0.283710    0.699231    0.000000
    21  Si    c     0.144112    0.689770    0.254165    0.000000
    22  Si    c     0.346208    0.366595    0.261649    0.000000
    23  Si    c     0.320594    0.760562    0.946380    0.000000
    24  Si    c     0.642899    0.682292    0.009571    0.000000
    25  O1    c     0.123416    0.151684    0.361529    0.000000
    26  O1    c     0.370085    0.903660    0.354592    0.000000
    27  O1    c     0.903509    0.241665    0.595144    0.000000
    28  O1    c     0.571350    0.791984    0.612867    0.000000
    29  O1    c     0.867704    0.897197    0.590600    0.000000
    30  O3    c     0.619208    0.141680    0.613716    0.000000
    31  O3    c     0.081495    0.797947    0.329153    0.000000
    32  O3    c     0.403971    0.256355    0.346905    0.000000
    33  O1    c     0.021851    0.000328    0.533092    0.000000
    34  O1    c     0.520084    0.023206    0.421699    0.000000
    35  O1    c     0.970627    0.049003    0.288769    0.000000
    36  O1    c     0.469229    0.022521    0.167515    0.000000
    37  O1    c     0.966026    0.027628    0.781126    0.000000
    38  O1    c     0.462587    0.040913    0.666830    0.000000
    39  O1    c     0.614921    0.149205    0.102890    0.000000
    40  O1    c     0.860679    0.919754    0.104776    0.000000
    41  O1    c     0.411477    0.251145    0.864464    0.000000
    42  O1    c     0.080213    0.786180    0.850985    0.000000
    43  O3    c     0.364060    0.897045    0.856679    0.000000
    44  O1    c     0.115662    0.132713    0.851480    0.000000
    45  O3    c     0.586753    0.791466    0.098678    0.000000
    46  O1    c     0.916496    0.257100    0.091456    0.000000
    47  O1    c     0.517596    0.995221    0.912734    0.000000
    48  O1    c     0.014510    0.985265    0.036746    0.000000
    49  O3    c     0.151066    0.502496    0.316810    0.000000
    50  O3    c     0.338347    0.557048    0.317281    0.000000
    51  O1    c     0.832326    0.557076    0.625778    0.000000
    52  O3    c     0.647915    0.473222    0.644360    0.000000
    53  O3    c     0.264476    0.268411    0.258643    0.000000
    54  O3    c     0.224375    0.793495    0.265763    0.000000
    55  O3    c     0.753453    0.250759    0.693550    0.000000
    56  O1    c     0.722055    0.792079    0.686156    0.000000
    57  O1    c     0.134074    0.260890    0.104687    0.000000
    58  O3    c     0.349213    0.778856    0.096476    0.000000
    59  O1    c     0.873343    0.375549    0.845995    0.000000
    60  O3    c     0.609496    0.666681    0.862016    0.000000
    61  O1    c     0.851204    0.777748    0.848118    0.000000
    62  O3    c     0.636202    0.270001    0.849127    0.000000
    63  O3    c     0.121040    0.660412    0.103201    0.000000
    64  O3    c     0.377049    0.375687    0.113255    0.000000
    65  O3    c     0.655121    0.495654    0.067185    0.000000
    66  O1    c     0.840108    0.566351    0.068556    0.000000
    67  O3    c     0.334762    0.566944    0.895811    0.000000
    68  O1    c     0.152233    0.476006    0.880486    0.000000
    69  O1    c     0.762411    0.250586    0.020436    0.000000
    70  O3    c     0.722581    0.787788    0.000668    0.000000
    71  O1    c     0.262381    0.246065    0.942943    0.000000
    72  O3    c     0.231227    0.793311    0.937460    0.000000
    73  O1    s     0.121387    0.151314    0.354460    0.000000
    74  O1    s     0.371355    0.903176    0.345084    0.000000
    75  O1    s     0.901648    0.235623    0.603511    0.000000
    76  O1    s     0.574437    0.798841    0.617428    0.000000
    77  O1    s     0.869340    0.897504    0.599996    0.000000
    78  O3    s     0.617641    0.144372    0.620013    0.000000
    79  O3    s     0.085346    0.803437    0.325190    0.000000
    80  O3    s     0.401353    0.251446    0.337350    0.000000
    81  O1    s     0.017786    0.003560    0.527870    0.000000
    82  O1    s     0.515715    0.023852    0.426206    0.000000
    83  O1    s     0.974308    0.045484    0.283136    0.000000
    84  O1    s     0.473399    0.022337    0.171770    0.000000
    85  O1    s     0.970429    0.025392    0.777199    0.000000
    86  O1    s     0.466753    0.038053    0.672725    0.000000
    87  O1    s     0.614131    0.148564    0.093510    0.000000
    88  O1    s     0.863382    0.917368    0.098936    0.000000
    89  O1    s     0.408192    0.244579    0.868806    0.000000
    90  O1    s     0.082587    0.792115    0.859483    0.000000
    91  O3    s     0.365523    0.895102    0.863535    0.000000
    92  O1    s     0.114297    0.133191    0.860560    0.000000
    93  O3    s     0.589131    0.795935    0.088302    0.000000
    94  O1    s     0.912903    0.249904    0.087739    0.000000
    95  O1    s     0.513662    0.998615    0.918157    0.000000
    96  O1    s     0.010895    0.990275    0.032033    0.000000
    97  O3    s     0.151655    0.504479    0.306599    0.000000
    98  O3    s     0.337795    0.553765    0.307323    0.000000
    99  O1    s     0.831979    0.555827    0.635174    0.000000
   100  O3    s     0.648542    0.471819    0.653695    0.000000
   101  O3    s     0.264448    0.279703    0.259093    0.000000
   102  O3    s     0.224539    0.781380    0.264134    0.000000
   103  O3    s     0.751568    0.261906    0.693603    0.000000
   104  O1    s     0.722984    0.781336    0.687374    0.000000
   105  O1    s     0.138858    0.264489    0.105058    0.000000
   106  O3    s     0.344324    0.775766    0.094870    0.000000
   107  O1    s     0.869044    0.373208    0.846282    0.000000
   108  O3    s     0.614791    0.669340    0.863046    0.000000
   109  O1    s     0.846516    0.775491    0.848407    0.000000
   110  O3    s     0.641247    0.272570    0.847379    0.000000
   111  O3    s     0.125198    0.664635    0.105286    0.000000
   112  O3    s     0.371732    0.373641    0.114567    0.000000
   113  O3    s     0.654847    0.498505    0.057228    0.000000
   114  O1    s     0.839209    0.565668    0.059510    0.000000
   115  O3    s     0.334387    0.568563    0.904863    0.000000
   116  O1    s     0.152747    0.477738    0.889813    0.000000
   117  O1    s     0.761253    0.261370    0.018781    0.000000
   118  O3    s     0.722777    0.776204    0.001994    0.000000
   119  O1    s     0.261348    0.256901    0.943764    0.000000
   120  O3    s     0.233242    0.781392    0.938451    0.000000
--------------------------------------------------------------------------------

  Final Cartesian lattice vectors (Angstroms) :

       17.618233   -0.214517   -0.046892
       -0.094748    7.811708   -0.032416
       -0.027182   -0.043090   10.181486


  Final cell parameters and derivatives :

--------------------------------------------------------------------------------
       a           17.619602 Angstrom     dE/de1(xx)     0.000758 eV/strain
       b            7.812350 Angstrom     dE/de2(yy)     0.000973 eV/strain
       c           10.181613 Angstrom     dE/de3(zz)     0.000922 eV/strain
       alpha       90.478350 Degrees      dE/de4(yz)    -0.000105 eV/strain
       beta        90.302480 Degrees      dE/de5(xz)     0.000422 eV/strain
       gamma       91.391849 Degrees      dE/de6(xy)     0.000041 eV/strain
--------------------------------------------------------------------------------

  Primitive cell volume =          1401.020668 Angs**3

  Density of cell =      2.711909 g/cm**3

  Non-primitive cell volume =          1401.020668 Angs**3


  Final internal derivatives :

--------------------------------------------------------------------------------
   No.  Atomic          a             b             c           Radius
        Label          (eV)          (eV)          (eV)        (eV/Angs)
--------------------------------------------------------------------------------
      1 Ge    c       0.000000      0.000000      0.000000      0.000000
      2 Ge    c      -0.000253      0.000211      0.000038      0.000000
      3 Ge    c      -0.000556      0.000227     -0.000038      0.000000
      4 Ge    c      -0.000360      0.000022      0.000184      0.000000
      5 Ge    c      -0.000309     -0.000108      0.000007      0.000000
      6 Ge    c      -0.000254      0.000080      0.000037      0.000000
      7 Ge    c      -0.000117      0.000015     -0.000101      0.000000
      8 Ge    c       0.000996     -0.001181      0.002229      0.000000
      9 Ge    c       0.000016     -0.000167      0.000193      0.000000
     10 Ge    c      -0.000782      0.000185     -0.000158      0.000000
     11 Ge    c      -0.000124      0.000052     -0.000058      0.000000
     12 Ge    c      -0.000120      0.000030      0.000003      0.000000
     13 Ge    c      -0.000062      0.000025      0.000119      0.000000
     14 Ge    c       0.000200      0.000055     -0.000041      0.000000
     15 Ge    c      -0.000128      0.000038      0.000075      0.000000
     16 Ge    c      -0.001373     -0.000126     -0.000236      0.000000
     17 Ge    c       0.001889     -0.000746     -0.000805      0.000000
     18 Ge    c       0.001876     -0.000317      0.001601      0.000000
     19 Ge    c       0.000040     -0.000094      0.000131      0.000000
     20 Si    c       0.000095      0.000008     -0.000075      0.000000
     21 Si    c       0.001750     -0.000297      0.001041      0.000000
     22 Si    c      -0.001046      0.000102      0.000068      0.000000
     23 Si    c       0.000878      0.000396      0.000282      0.000000
     24 Si    c       0.000013      0.000052     -0.000046      0.000000
     25 O1    c      -0.001269     -0.000652     -0.000055      0.000000
     26 O1    c      -0.000162     -0.000062      0.000128      0.000000
     27 O1    c       0.000272     -0.000066     -0.000210      0.000000
     28 O1    c       0.000184     -0.000067      0.000088      0.000000
     29 O1    c      -0.000560     -0.000251     -0.000192      0.000000
     30 O3    c       0.000001     -0.000089     -0.000066      0.000000
     31 O3    c      -0.000098      0.000058      0.000180      0.000000
     32 O3    c       0.000417     -0.000328     -0.000084      0.000000
     33 O1    c       0.002243     -0.000154     -0.000942      0.000000
     34 O1    c      -0.000523     -0.000118     -0.000095      0.000000
     35 O1    c      -0.000728      0.000029     -0.000075      0.000000
     36 O1    c       0.000251      0.000006     -0.000144      0.000000
     37 O1    c      -0.007718      0.000010     -0.002905      0.000000
     38 O1    c       0.000785      0.000015      0.000090      0.000000
     39 O1    c       0.000037     -0.000014      0.000118      0.000000
     40 O1    c      -0.000205     -0.000085      0.000053      0.000000
     41 O1    c       0.000565     -0.000154      0.000331      0.000000
     42 O1    c       0.000066     -0.000272     -0.000870      0.000000
     43 O3    c      -0.000297      0.000274     -0.000061      0.000000
     44 O1    c       0.001539      0.002227     -0.003054      0.000000
     45 O3    c      -0.000062      0.000002      0.000049      0.000000
     46 O1    c      -0.000239      0.000279     -0.000108      0.000000
     47 O1    c       0.000105     -0.000221     -0.000011      0.000000
     48 O1    c       0.001802      0.000140     -0.001244      0.000000
     49 O3    c       0.000187      0.000464     -0.000017      0.000000
     50 O3    c      -0.000041     -0.001005     -0.000083      0.000000
     51 O1    c       0.000053     -0.000145     -0.000154      0.000000
     52 O3    c       0.000019     -0.000062     -0.000055      0.000000
     53 O3    c       0.002601      0.000489      0.000030      0.000000
     54 O3    c      -0.000611     -0.000305     -0.000138      0.000000
     55 O3    c       0.000005     -0.000013      0.000021      0.000000
     56 O1    c       0.000091      0.000050     -0.000019      0.000000
     57 O1    c      -0.000367     -0.000287     -0.000714      0.000000
     58 O3    c       0.000103      0.000019      0.000103      0.000000
     59 O1    c       0.000125     -0.000095     -0.000129      0.000000
     60 O3    c       0.000087      0.000006      0.000024      0.000000
     61 O1    c       0.000367      0.000141     -0.000269      0.000000
     62 O3    c      -0.000138     -0.000055      0.000214      0.000000
     63 O3    c      -0.002056      0.000216     -0.000820      0.000000
     64 O3    c      -0.000146      0.000025      0.000370      0.000000
     65 O3    c       0.000086     -0.000174      0.000052      0.000000
     66 O1    c      -0.000084      0.000184      0.000106      0.000000
     67 O3    c      -0.000143     -0.001406     -0.000282      0.000000
     68 O1    c       0.000261      0.003769     -0.000452      0.000000
     69 O1    c      -0.000254     -0.000071     -0.000021      0.000000
     70 O3    c       0.000003      0.000047      0.000014      0.000000
     71 O1    c       0.004122      0.000447     -0.000096      0.000000
     72 O3    c      -0.004263     -0.000359      0.000186      0.000000
     73 O1    s       0.000528      0.000212      0.000116      0.000000
     74 O1    s       0.000449      0.000075     -0.000031      0.000000
     75 O1    s      -0.000147      0.000157      0.000215      0.000000
     76 O1    s      -0.000234      0.000082      0.000010      0.000000
     77 O1    s       0.000070      0.000128      0.000078      0.000000
     78 O3    s      -0.000047     -0.000027      0.000031      0.000000
     79 O3    s       0.000159      0.000245      0.000095      0.000000
     80 O3    s      -0.000534      0.000424     -0.000101      0.000000
     81 O1    s      -0.000795      0.000067      0.000391      0.000000
     82 O1    s       0.000248      0.000070      0.000070      0.000000
     83 O1    s       0.000507     -0.000085      0.000154      0.000000
     84 O1    s       0.000038      0.000081      0.000269      0.000000
     85 O1    s       0.002258     -0.000058      0.001491      0.000000
     86 O1    s      -0.000583      0.000047     -0.000161      0.000000
     87 O1    s      -0.000066     -0.000007     -0.000133      0.000000
     88 O1    s      -0.000063     -0.000003     -0.000039      0.000000
     89 O1    s      -0.000631      0.000195     -0.000101      0.000000
     90 O1    s       0.001115     -0.001075      0.000615      0.000000
     91 O3    s       0.000358      0.000133     -0.000152      0.000000
     92 O1    s      -0.000735     -0.000716      0.000731      0.000000
     93 O3    s       0.000004     -0.000008     -0.000055      0.000000
     94 O1    s       0.000001     -0.000067      0.000063      0.000000
     95 O1    s       0.000090      0.000110      0.000070      0.000000
     96 O1    s      -0.001285     -0.000530      0.001495      0.000000
     97 O3    s      -0.000193     -0.000295      0.000009      0.000000
     98 O3    s       0.000011      0.000054     -0.000064      0.000000
     99 O1    s      -0.000054      0.000072      0.000203      0.000000
    100 O3    s      -0.000069      0.000036      0.000022      0.000000
    101 O3    s      -0.000187     -0.000291     -0.000209      0.000000
    102 O3    s       0.000448      0.000271      0.000287      0.000000
    103 O3    s       0.000031     -0.000018     -0.000044      0.000000
    104 O1    s      -0.000142     -0.000032      0.000024      0.000000
    105 O1    s       0.000251      0.000485      0.000971      0.000000
    106 O3    s       0.000535      0.000098      0.000193      0.000000
    107 O1    s       0.000045      0.000142      0.000005      0.000000
    108 O3    s       0.000009     -0.000004     -0.000027      0.000000
    109 O1    s      -0.000437     -0.000159      0.000222      0.000000
    110 O3    s       0.000035      0.000041     -0.000074      0.000000
    111 O3    s       0.000489     -0.000211     -0.000196      0.000000
    112 O3    s      -0.000875     -0.000001     -0.000023      0.000000
    113 O3    s      -0.000033      0.000095     -0.000040      0.000000
    114 O1    s       0.000049     -0.000078     -0.000111      0.000000
    115 O3    s       0.000360      0.000220     -0.000018      0.000000
    116 O1    s      -0.000149     -0.001265      0.000461      0.000000
    117 O1    s       0.000046      0.000055      0.000031      0.000000
    118 O3    s      -0.000077     -0.000084     -0.000021      0.000000
    119 O1    s      -0.000476     -0.000512      0.000289      0.000000
    120 O3    s       0.000477      0.000664     -0.000355      0.000000
--------------------------------------------------------------------------------
  Maximum abs         0.007718      0.003769      0.003054      0.000000
--------------------------------------------------------------------------------


  Born effective charge tensors : 

-------------------------------------------------------------------------------
  Atom             x           y             z
-------------------------------------------------------------------------------
    1 Ge    x       4.2069     -0.1883     -0.4730
            y       0.1892      3.9140      0.1177
            z      -0.2646     -0.0248      4.4031
-------------------------------------------------------------------------------
    2 Ge    x       4.1731     -0.2280     -0.0914
            y       0.1167      3.9172      0.0111
            z       0.8280     -0.1055      4.2384
-------------------------------------------------------------------------------
    3 Ge    x       4.2704     -0.2651      0.0916
            y       0.0677      3.9037     -0.0158
            z      -0.8172      0.1410      4.1608
-------------------------------------------------------------------------------
    4 Ge    x       4.1010     -0.3035      0.4590
            y       0.1344      3.9534     -0.1111
            z       0.1964     -0.1198      4.5161
-------------------------------------------------------------------------------
    5 Ge    x       4.3137     -0.1462      0.0474
            y       0.0921      3.9258      0.0486
            z      -0.6926      0.1644      3.6252
-------------------------------------------------------------------------------
    6 Ge    x       4.3270     -0.2487      0.4394
            y       0.1701      3.9322     -0.0821
            z       0.3497      0.0035      3.9651
-------------------------------------------------------------------------------
    7 Ge    x       4.2104     -0.2474     -0.4229
            y       0.1122      3.9936      0.0392
            z      -0.3443      0.0065      3.9680
-------------------------------------------------------------------------------
    8 Ge    x       4.3704     -0.2147     -0.0355
            y       0.0825      3.9216     -0.0227
            z       0.6717     -0.1996      3.6929
-------------------------------------------------------------------------------
    9 Ge    x       3.8403      0.2965     -0.2848
            y       0.3265      4.1607     -0.1340
            z      -0.0139     -0.2201      3.5588
-------------------------------------------------------------------------------
   10 Ge    x       3.8541      0.2894      0.2983
            y       0.3287      4.1150      0.1327
            z       0.0515      0.1925      3.4673
-------------------------------------------------------------------------------
   11 Ge    x       3.9163     -0.1437     -0.2518
            y      -0.4956      4.1504      0.0954
            z      -0.0928      0.1715      3.5796
-------------------------------------------------------------------------------
   12 Ge    x       3.8857     -0.0861      0.2143
            y      -0.4646      4.1691     -0.1657
            z       0.0884     -0.2867      3.4944
-------------------------------------------------------------------------------
   13 Ge    x       4.0388      0.2597     -0.3061
            y       0.2906      4.1405     -0.0597
            z      -0.0649     -0.1227      3.5787
-------------------------------------------------------------------------------
   14 Ge    x       4.0505      0.2414     -0.3128
            y       0.3055      4.1253     -0.1485
            z      -0.0452     -0.2118      3.3616
-------------------------------------------------------------------------------
   15 Ge    x       3.9262      0.2762      0.3655
            y       0.2516      4.1858      0.0867
            z       0.0483      0.1838      3.5324
-------------------------------------------------------------------------------
   16 Ge    x       3.9396     -0.0794     -0.3221
            y      -0.4469      4.1576      0.1487
            z      -0.1611      0.2582      3.3926
-------------------------------------------------------------------------------
   17 Ge    x       3.9460     -0.1187      0.3672
            y      -0.4726      4.1345     -0.0833
            z       0.1808     -0.1728      3.4032
-------------------------------------------------------------------------------
   18 Ge    x       4.0578      0.2775      0.3282
            y       0.3050      4.1738      0.0697
            z       0.0723      0.1429      3.4595
-------------------------------------------------------------------------------
   19 Ge    x       4.0635     -0.0909      0.2745
            y      -0.4579      4.1723     -0.0799
            z       0.1792     -0.1774      3.5091
-------------------------------------------------------------------------------
   20 Si    x       3.7064      0.2482      0.2295
            y       0.2292      3.9568      0.0866
            z      -0.0075      0.2152      3.3377
-------------------------------------------------------------------------------
   21 Si    x       3.6780     -0.0940     -0.1849
            y      -0.4513      3.9053      0.0868
            z      -0.1288      0.2309      3.3199
-------------------------------------------------------------------------------
   22 Si    x       3.6390     -0.1249      0.2056
            y      -0.4389      3.9321     -0.1172
            z       0.0487     -0.1992      3.2712
-------------------------------------------------------------------------------
   23 Si    x       3.7277      0.2314     -0.2978
            y       0.2363      3.9408     -0.1435
            z      -0.0425     -0.2145      3.2754
-------------------------------------------------------------------------------
   24 Si    x       3.6886     -0.1009     -0.3021
            y      -0.4070      3.9128      0.0949
            z      -0.0562      0.1771      3.1640
-------------------------------------------------------------------------------
   25 O1    x      -2.1201     -0.9143      0.5029
            y      -0.9709     -2.4318      0.5248
            z       0.4635      0.5536     -1.6736
-------------------------------------------------------------------------------
   26 O1    x      -2.1546     -0.9164     -0.2931
            y      -1.0083     -2.3975     -0.3594
            z      -0.3827     -0.3749     -1.6255
-------------------------------------------------------------------------------
   27 O1    x      -2.0184      0.8967      0.3540
            y       0.8773     -2.5158     -0.3017
            z       0.4389     -0.3347     -1.5902
-------------------------------------------------------------------------------
   28 O1    x      -1.9426      0.8568     -0.5263
            y       0.7952     -2.6235      0.5517
            z      -0.4678      0.5497     -1.6687
-------------------------------------------------------------------------------
   29 O1    x      -2.2015     -0.8805      0.3100
            y      -0.9635     -2.2619      0.3467
            z       0.3995      0.3571     -1.6239
-------------------------------------------------------------------------------
   30 O3    x      -2.0250     -0.8629     -0.5257
            y      -0.9068     -2.2468     -0.5426
            z      -0.4964     -0.5715     -1.6050
-------------------------------------------------------------------------------
   31 O3    x      -1.9402      0.8660      0.5423
            y       0.8040     -2.3401     -0.5561
            z       0.4892     -0.5530     -1.5601
-------------------------------------------------------------------------------
   32 O3    x      -1.8859      0.8573     -0.3758
            y       0.8296     -2.3514      0.3558
            z      -0.4590      0.4153     -1.5200
-------------------------------------------------------------------------------
   33 O1    x      -2.1840      0.2270      0.9362
            y       0.0902     -1.2777     -0.0985
            z       1.1877     -0.1846     -3.0211
-------------------------------------------------------------------------------
   34 O1    x      -2.0983      0.2403     -0.9451
            y       0.0786     -1.2971      0.1456
            z      -1.1739      0.3011     -3.1608
-------------------------------------------------------------------------------
   35 O1    x      -2.1820      0.2496     -0.7977
            y       0.1383     -1.3190      0.1425
            z      -0.8022      0.1567     -2.6901
-------------------------------------------------------------------------------
   36 O1    x      -2.2068      0.2380      0.8809
            y       0.1179     -1.3696     -0.2041
            z       0.8568     -0.2641     -2.5907
-------------------------------------------------------------------------------
   37 O1    x      -2.1667      0.2244     -0.8271
            y       0.0983     -1.3369      0.1599
            z      -0.8050      0.2163     -2.6132
-------------------------------------------------------------------------------
   38 O1    x      -2.1477      0.1963      0.7892
            y       0.0648     -1.3015     -0.0835
            z       0.8079     -0.1236     -2.7521
-------------------------------------------------------------------------------
   39 O1    x      -2.1778     -0.9272      0.3056
            y      -0.9888     -2.4022      0.3274
            z       0.3828      0.3573     -1.5110
-------------------------------------------------------------------------------
   40 O1    x      -2.2603     -0.8941     -0.5570
            y      -0.9086     -2.3034     -0.5427
            z      -0.4623     -0.5215     -1.5940
-------------------------------------------------------------------------------
   41 O1    x      -1.9983      0.8495      0.5682
            y       0.7747     -2.6128     -0.5804
            z       0.4982     -0.5708     -1.5817
-------------------------------------------------------------------------------
   42 O1    x      -2.1346      0.8993     -0.3743
            y       0.8730     -2.4713      0.2723
            z      -0.4264      0.3122     -1.4850
-------------------------------------------------------------------------------
   43 O3    x      -2.0393     -0.8661      0.5663
            y      -0.8735     -2.2330      0.5775
            z       0.5018      0.5756     -1.5603
-------------------------------------------------------------------------------
   44 O1    x      -2.2359     -0.9008     -0.3143
            y      -0.9712     -2.3082     -0.3389
            z      -0.3833     -0.3501     -1.5007
-------------------------------------------------------------------------------
   45 O3    x      -1.9524      0.8521      0.3947
            y       0.8025     -2.3021     -0.3346
            z       0.4215     -0.3762     -1.4272
-------------------------------------------------------------------------------
   46 O1    x      -2.0518      0.8285     -0.5532
            y       0.7485     -2.5334      0.5625
            z      -0.4924      0.5334     -1.5532
-------------------------------------------------------------------------------
   47 O1    x      -2.2426      0.2292     -0.7176
            y       0.1341     -1.3763      0.1572
            z      -0.4624      0.1282     -2.2104
-------------------------------------------------------------------------------
   48 O1    x      -2.1607      0.2511      0.7112
            y       0.1482     -1.3863     -0.1682
            z       0.4831     -0.1373     -2.2903
-------------------------------------------------------------------------------
   49 O3    x      -1.2793      0.1745      0.0636
            y       0.2590     -2.9781      0.1513
            z       0.0211      0.1627     -1.3119
-------------------------------------------------------------------------------
   50 O3    x      -1.2695      0.1901     -0.0704
            y       0.2819     -2.9908     -0.0639
            z      -0.0245     -0.0756     -1.2975
-------------------------------------------------------------------------------
   51 O1    x      -1.3494      0.1433      0.0910
            y       0.2540     -3.1414      0.0109
            z       0.0439      0.0250     -1.3929
-------------------------------------------------------------------------------
   52 O3    x      -1.2810      0.1881     -0.0764
            y       0.2993     -3.0233      0.0723
            z      -0.0341      0.0613     -1.3104
-------------------------------------------------------------------------------
   53 O3    x      -2.8484     -0.2965      0.0051
            y      -0.2270     -1.5102      0.0125
            z      -0.0055      0.0450     -1.1457
-------------------------------------------------------------------------------
   54 O3    x      -2.8172     -0.2996     -0.0121
            y      -0.2197     -1.5122     -0.0322
            z       0.0335     -0.0623     -1.1545
-------------------------------------------------------------------------------
   55 O3    x      -2.9325     -0.1701      0.0712
            y      -0.0816     -1.4507     -0.0060
            z       0.0828     -0.0388     -1.1564
-------------------------------------------------------------------------------
   56 O1    x      -3.0111     -0.2744      0.0778
            y      -0.1955     -1.5912      0.0441
            z       0.0679      0.0775     -1.2248
-------------------------------------------------------------------------------
   57 O1    x      -1.5112     -0.1344     -0.0635
            y      -0.1505     -1.4543     -0.1008
            z      -0.0443     -0.0814     -2.6698
-------------------------------------------------------------------------------
   58 O3    x      -1.3831     -0.1047     -0.0387
            y      -0.1154     -1.3637      0.0023
            z      -0.0392      0.0022     -2.5684
-------------------------------------------------------------------------------
   59 O1    x      -1.4790      0.0180     -0.1122
            y       0.0893     -1.4219     -0.0202
            z      -0.0788     -0.0249     -2.7578
-------------------------------------------------------------------------------
   60 O3    x      -1.3792      0.0316     -0.0959
            y       0.0954     -1.3711     -0.0583
            z      -0.0697     -0.0276     -2.5229
-------------------------------------------------------------------------------
   61 O1    x      -1.5308     -0.1144      0.0148
            y      -0.1307     -1.4183      0.0174
            z      -0.0142     -0.0095     -2.7116
-------------------------------------------------------------------------------
   62 O3    x      -1.3740     -0.1035      0.1012
            y      -0.1092     -1.3720      0.0069
            z       0.0828      0.0060     -2.5768
-------------------------------------------------------------------------------
   63 O3    x      -1.3554      0.0100     -0.0653
            y       0.0824     -1.3628     -0.0517
            z      -0.0646     -0.0567     -2.6127
-------------------------------------------------------------------------------
   64 O3    x      -1.3666      0.0381      0.1375
            y       0.1053     -1.3655      0.0382
            z       0.1017      0.0201     -2.5464
-------------------------------------------------------------------------------
   65 O3    x      -1.2949      0.1895      0.0620
            y       0.2729     -2.9870      0.1042
            z       0.0024      0.0985     -1.2667
-------------------------------------------------------------------------------
   66 O1    x      -1.4195      0.2293     -0.1135
            y       0.3128     -3.1291     -0.0057
            z      -0.0665      0.0004     -1.3463
-------------------------------------------------------------------------------
   67 O3    x      -1.3102      0.2020      0.0878
            y       0.2833     -3.0283     -0.0272
            z       0.0412     -0.0411     -1.2611
-------------------------------------------------------------------------------
   68 O1    x      -1.3663      0.1320     -0.1069
            y       0.2219     -3.1484      0.0061
            z      -0.0472     -0.0350     -1.3702
-------------------------------------------------------------------------------
   69 O1    x      -3.0677     -0.2356     -0.0081
            y      -0.1235     -1.5854      0.0377
            z      -0.0663      0.0633     -1.2010
-------------------------------------------------------------------------------
   70 O3    x      -2.8617     -0.3556      0.0244
            y      -0.2899     -1.5209      0.0038
            z       0.0186     -0.0290     -1.1276
-------------------------------------------------------------------------------
   71 O1    x      -3.0097     -0.3009     -0.0298
            y      -0.2098     -1.6122     -0.0351
            z      -0.0202     -0.0661     -1.1938
-------------------------------------------------------------------------------
   72 O3    x      -2.9062     -0.1960     -0.0331
            y      -0.0919     -1.4564      0.0257
            z      -0.0214      0.0594     -1.1391
-------------------------------------------------------------------------------




  Elastic Constant Matrix: (Units=GPa)

-------------------------------------------------------------------------------
  Indices      1         2         3         4         5         6    
-------------------------------------------------------------------------------
       1     27.9369   11.2998    8.2842    0.0074   -0.4823   -6.8095
       2     11.2998   34.7429    6.3728   -0.5042    0.6309   -6.6475
       3      8.2842    6.3728   12.6579   -0.4357    0.1206   -1.7097
       4      0.0074   -0.5042   -0.4357    8.3281   -1.5351    0.3380
       5     -0.4823    0.6309    0.1206   -1.5351   16.6040   -1.1667
       6     -6.8095   -6.6475   -1.7097    0.3380   -1.1667   20.0726
-------------------------------------------------------------------------------


  Elastic Compliance Matrix: (Units=1/GPa)

-------------------------------------------------------------------------------
  Indices      1         2         3         4         5         6    
-------------------------------------------------------------------------------
       1    0.050466 -0.009283 -0.026835 -0.002004  0.002668  0.011949
       2   -0.009283  0.035220 -0.010591  0.001115 -0.000898  0.007542
       3   -0.026835 -0.010591  0.101513  0.004681 -0.000970 -0.004100
       4   -0.002004  0.001115  0.004681  0.122490  0.011097 -0.001329
       5    0.002668 -0.000898 -0.000970  0.011097  0.061647  0.003921
       6    0.011949  0.007542 -0.004100 -0.001329  0.003921  0.056272
-------------------------------------------------------------------------------

  Mechanical properties :

-------------------------------------------------------------------------------
  Convention :                    Reuss         Voigt         Hill
-------------------------------------------------------------------------------
  Bulk  Modulus (GPa)     =      10.66309      14.13903      12.40106
  Shear Modulus (GPa)     =       9.05328      12.29300      10.67314
-------------------------------------------------------------------------------
  Velocity S-wave (km/s)  =       1.82711       2.12908       1.98385
  Velocity P-wave (km/s)  =       2.89535       3.35524       3.13374
-------------------------------------------------------------------------------
  Compressibility (1/GPa) =    0.09378147
-------------------------------------------------------------------------------
  Stress axis :                     x             y             z
-------------------------------------------------------------------------------
  Youngs Moduli (GPa)     =      19.81524      28.39286       9.85092
-------------------------------------------------------------------------------
  Poissons Ratio (x)      =                     0.26356       0.26435
  Poissons Ratio (y)      =       0.18394                     0.10433
  Poissons Ratio (z)      =       0.53175       0.30072
-------------------------------------------------------------------------------


  Piezoelectric Strain Matrix: (Units=C/m**2)

-------------------------------------------------------------------------------
  Indices      1         2         3         4         5         6    
-------------------------------------------------------------------------------
       x    -0.19417  -0.15654  -0.35990   0.04855   0.02363  -0.26576
       y    -0.63481  -0.41053  -0.28974  -0.23536   0.25380   0.01085
       z     0.00214   0.26152   0.18872  -0.12355   0.31455   0.14705
-------------------------------------------------------------------------------


  Piezoelectric Stress Matrix: (Units=10**-11 C/N)

-------------------------------------------------------------------------------
  Indices      1         2         3         4         5         6    
-------------------------------------------------------------------------------
       x    -0.18978  -0.18705  -2.83721   0.50922   0.09248  -1.69518
       y    -1.91721  -0.59060  -0.94217  -2.65690   1.20331  -0.75752
       z    -0.45400   0.78810   1.48440  -1.06673   1.81847   1.08966
-------------------------------------------------------------------------------


  Static dielectric constant tensor : 

-------------------------------------------------------------------------------
              x         y         z
-------------------------------------------------------------------------------
       x     5.22650  -0.02963  -0.00698
       y    -0.02963   6.20329  -0.04959
       z    -0.00698  -0.04959   4.27497
--------------------------------------------------------------------------------

  High frequency dielectric constant tensor : 

-------------------------------------------------------------------------------
              x         y         z
-------------------------------------------------------------------------------
       x     1.55672  -0.00310  -0.00074
       y    -0.00310   1.56479  -0.00033
       z    -0.00074  -0.00033   1.51406
-------------------------------------------------------------------------------

  Static refractive indices : 

-------------------------------------------------------------------------------
    1 =    2.06728      2 =    2.28597      3 =    2.49107
-------------------------------------------------------------------------------

  High frequency refractive indices : 

-------------------------------------------------------------------------------
    1 =    1.23046      2 =    1.24727      3 =    1.25134
-------------------------------------------------------------------------------


  Time to end of optimisation =       7.3718 seconds


  Peak dynamic memory used =       5.01 MB 


  Timing analysis for GULP :

--------------------------------------------------------------------------------
  Task / Subroutine                                          Time (Seconds)
--------------------------------------------------------------------------------
  Calculation of reciprocal space energy and derivatives          0.4882
  Calculation of real space energy and derivatives                5.2505
  Calculation of three-body energy and derivatives                0.0764
  Calculation and manipulation of Hessian matrix                  1.9103
  Calculation of matrix inversion                                 0.0232
  Global summation overhead                                       0.0001
--------------------------------------------------------------------------------
  Total CPU time                                                  7.3718
--------------------------------------------------------------------------------


  Dump file written as POSCAR_N0019.vasp.grs
  CIF file written as POSCAR_N0019.vasp.cif


  Job Finished at 11:31.02 31st October    2025                               

