********************************************************************************
*                       GENERAL UTILITY LATTICE PROGRAM                        *
*                                 Julian Gale                                  *
*                       Curtin Institute for Computation                       *
*                    School of Molecular and Life Sciences                     *
*                    Curtin University, Western Australia                      *
********************************************************************************
* Version = 6.1.2 * Last modified =   3rd November 2022                        *
********************************************************************************
*  optimise     - perform optimisation run                                     *
*  conp         - constant pressure calculation                                *
*  property     - calculate properties for final geometry                      *
********************************************************************************

  Job Started  at 11:15.18 22nd October    2025                               

  Number of CPUs =     1


  Total number of configurations input =      1

********************************************************************************
*  Input for Configuration =   1 : c00004.vasp                                 *
********************************************************************************

  Formula = Ge23SiO48                                                   

  Number of irreducible atoms/shells =     120


  Total number atoms/shells =     120

  Dimensionality = 3               :  Bulk   



  Cartesian lattice vectors (Angstroms) :

       17.182800    0.000000    0.000000
        0.000000    7.513760    0.000000
        0.000000    0.000000   10.447700

  Cell parameters (Angstroms/Degrees):

  a =      17.1828    alpha =  90.0000
  b =       7.5138    beta  =  90.0000
  c =      10.4477    gamma =  90.0000

  Initial cell volume =        1348.875752 Angs**3

  Temperature of configuration =   0.00     K 

  Pressure of configuration =         0.000 GPa 

  Fractional coordinates of asymmetric unit :

--------------------------------------------------------------------------------
   No.  Atomic       x           y          z         Charge      Occupancy
        Label      (Frac)      (Frac)     (Frac)        (e)         (Frac)  
--------------------------------------------------------------------------------
      1 Ge    c    0.052090    0.000000    0.372270     4.00000    1.000000    
      2 Ge    c    0.447910 *  0.000000 *  0.372270 *   4.00000    1.000000    
      3 Ge    c    0.947910 *  0.000000 *  0.627730 *   4.00000    1.000000    
      4 Ge    c    0.556730 *  0.000000 *  0.122130 *   4.00000    1.000000    
      5 Ge    c    0.943270 *  0.000000 *  0.122130 *   4.00000    1.000000    
      6 Ge    c    0.443270 *  0.000000 *  0.877870 *   4.00000    1.000000    
      7 Ge    c    0.056730 *  0.000000 *  0.877870 *   4.00000    1.000000    
      8 Ge    c    0.160190 *  0.293910 *  0.273440 *   4.00000    1.000000    
      9 Ge    c    0.339810 *  0.706090 *  0.273440 *   4.00000    1.000000    
     10 Ge    c    0.839810 *  0.293910 *  0.726560 *   4.00000    1.000000    
     11 Ge    c    0.660190 *  0.706090 *  0.726560 *   4.00000    1.000000    
     12 Ge    c    0.839810 *  0.706090 *  0.726560 *   4.00000    1.000000    
     13 Ge    c    0.660190 *  0.293910 *  0.726560 *   4.00000    1.000000    
     14 Ge    c    0.160190 *  0.706090 *  0.273440 *   4.00000    1.000000    
     15 Ge    c    0.339810 *  0.293910 *  0.273440 *   4.00000    1.000000    
     16 Ge    c    0.660660 *  0.294090 *  0.017440 *   4.00000    1.000000    
     17 Ge    c    0.839340 *  0.705910 *  0.017440 *   4.00000    1.000000    
     18 Ge    c    0.339340 *  0.294090 *  0.982560 *   4.00000    1.000000    
     19 Ge    c    0.160660 *  0.705910 *  0.982560 *   4.00000    1.000000    
     20 Ge    c    0.339340 *  0.705910 *  0.982560 *   4.00000    1.000000    
     21 Ge    c    0.160660 *  0.294090 *  0.982560 *   4.00000    1.000000    
     22 Ge    c    0.660660 *  0.705910 *  0.017440 *   4.00000    1.000000    
     23 Ge    c    0.839340 *  0.294090 *  0.017440 *   4.00000    1.000000    
     24 Si    c    0.552090 *  0.000000 *  0.627730 *   4.00000    1.000000    
     25 O1    c    0.106570 *  0.174340 *  0.366200 *   1.73396    1.000000    
     26 O1    c    0.393430 *  0.825660 *  0.366200 *   1.73396    1.000000    
     27 O1    c    0.893430 *  0.174340 *  0.633800 *   1.73396    1.000000    
     28 O3    c    0.606570 *  0.825660 *  0.633800 *   1.33043    1.000000    
     29 O1    c    0.893430 *  0.825660 *  0.633800 *   1.73396    1.000000    
     30 O3    c    0.606570 *  0.174340 *  0.633800 *   1.33043    1.000000    
     31 O1    c    0.106570 *  0.825660 *  0.366200 *   1.73396    1.000000    
     32 O1    c    0.393430 *  0.174340 *  0.366200 *   1.73396    1.000000    
     33 O1    c    0.000000 *  0.000000 *  0.500000 *   1.73396    1.000000    
     34 O3    c    0.500000 *  0.000000 *  0.500000 *   1.33043    1.000000    
     35 O1    c    0.994520 *  0.000000 *  0.250840 *   1.73396    1.000000    
     36 O1    c    0.505480 *  0.000000 *  0.250840 *   1.73396    1.000000    
     37 O1    c    0.005480 *  0.000000 *  0.749160 *   1.73396    1.000000    
     38 O3    c    0.494520 *  0.000000 *  0.749160 *   1.33043    1.000000    
     39 O1    c    0.610230 *  0.175520 *  0.115390 *   1.73396    1.000000    
     40 O1    c    0.889770 *  0.824480 *  0.115390 *   1.73396    1.000000    
     41 O1    c    0.389770 *  0.175520 *  0.884610 *   1.73396    1.000000    
     42 O1    c    0.110230 *  0.824480 *  0.884610 *   1.73396    1.000000    
     43 O1    c    0.389770 *  0.824480 *  0.884610 *   1.73396    1.000000    
     44 O1    c    0.110230 *  0.175520 *  0.884610 *   1.73396    1.000000    
     45 O1    c    0.610230 *  0.824480 *  0.115390 *   1.73396    1.000000    
     46 O1    c    0.889770 *  0.175520 *  0.115390 *   1.73396    1.000000    
     47 O1    c    0.500000 *  0.000000 *  0.000000 *   1.73396    1.000000    
     48 O1    c    0.000000 *  0.000000 *  0.000000 *   1.73396    1.000000    
     49 O1    c    0.151750 *  0.500000 *  0.313330 *   1.73396    1.000000    
     50 O1    c    0.348250 *  0.500000 *  0.313330 *   1.73396    1.000000    
     51 O1    c    0.848250 *  0.500000 *  0.686670 *   1.73396    1.000000    
     52 O1    c    0.651750 *  0.500000 *  0.686670 *   1.73396    1.000000    
     53 O1    c    0.250000 *  0.234950 *  0.285720 *   1.73396    1.000000    
     54 O1    c    0.250000 *  0.765050 *  0.285720 *   1.73396    1.000000    
     55 O1    c    0.750000 *  0.234950 *  0.714280 *   1.73396    1.000000    
     56 O1    c    0.750000 *  0.765050 *  0.714280 *   1.73396    1.000000    
     57 O1    c    0.131410 *  0.268650 *  0.127790 *   1.73396    1.000000    
     58 O1    c    0.368590 *  0.731350 *  0.127790 *   1.73396    1.000000    
     59 O1    c    0.868590 *  0.268650 *  0.872210 *   1.73396    1.000000    
     60 O1    c    0.631410 *  0.731350 *  0.872210 *   1.73396    1.000000    
     61 O1    c    0.868590 *  0.731350 *  0.872210 *   1.73396    1.000000    
     62 O1    c    0.631410 *  0.268650 *  0.872210 *   1.73396    1.000000    
     63 O1    c    0.131410 *  0.731350 *  0.127790 *   1.73396    1.000000    
     64 O1    c    0.368590 *  0.268650 *  0.127790 *   1.73396    1.000000    
     65 O1    c    0.653920 *  0.500000 *  0.058200 *   1.73396    1.000000    
     66 O1    c    0.846080 *  0.500000 *  0.058200 *   1.73396    1.000000    
     67 O1    c    0.346080 *  0.500000 *  0.941800 *   1.73396    1.000000    
     68 O1    c    0.153920 *  0.500000 *  0.941800 *   1.73396    1.000000    
     69 O1    c    0.750000 *  0.231060 *  0.027050 *   1.73396    1.000000    
     70 O1    c    0.750000 *  0.768940 *  0.027050 *   1.73396    1.000000    
     71 O1    c    0.250000 *  0.231060 *  0.972950 *   1.73396    1.000000    
     72 O1    c    0.250000 *  0.768940 *  0.972950 *   1.73396    1.000000    
     73 O1    s    0.106570 *  0.174340 *  0.366200 *  -3.73396    1.000000    
     74 O1    s    0.393430 *  0.825660 *  0.366200 *  -3.73396    1.000000    
     75 O1    s    0.893430 *  0.174340 *  0.633800 *  -3.73396    1.000000    
     76 O3    s    0.606570 *  0.825660 *  0.633800 *  -3.33043    1.000000    
     77 O1    s    0.893430 *  0.825660 *  0.633800 *  -3.73396    1.000000    
     78 O3    s    0.606570 *  0.174340 *  0.633800 *  -3.33043    1.000000    
     79 O1    s    0.106570 *  0.825660 *  0.366200 *  -3.73396    1.000000    
     80 O1    s    0.393430 *  0.174340 *  0.366200 *  -3.73396    1.000000    
     81 O1    s    0.000000 *  0.000000 *  0.500000 *  -3.73396    1.000000    
     82 O3    s    0.500000 *  0.000000 *  0.500000 *  -3.33043    1.000000    
     83 O1    s    0.994520 *  0.000000 *  0.250840 *  -3.73396    1.000000    
     84 O1    s    0.505480 *  0.000000 *  0.250840 *  -3.73396    1.000000    
     85 O1    s    0.005480 *  0.000000 *  0.749160 *  -3.73396    1.000000    
     86 O3    s    0.494520 *  0.000000 *  0.749160 *  -3.33043    1.000000    
     87 O1    s    0.610230 *  0.175520 *  0.115390 *  -3.73396    1.000000    
     88 O1    s    0.889770 *  0.824480 *  0.115390 *  -3.73396    1.000000    
     89 O1    s    0.389770 *  0.175520 *  0.884610 *  -3.73396    1.000000    
     90 O1    s    0.110230 *  0.824480 *  0.884610 *  -3.73396    1.000000    
     91 O1    s    0.389770 *  0.824480 *  0.884610 *  -3.73396    1.000000    
     92 O1    s    0.110230 *  0.175520 *  0.884610 *  -3.73396    1.000000    
     93 O1    s    0.610230 *  0.824480 *  0.115390 *  -3.73396    1.000000    
     94 O1    s    0.889770 *  0.175520 *  0.115390 *  -3.73396    1.000000    
     95 O1    s    0.500000 *  0.000000 *  0.000000 *  -3.73396    1.000000    
     96 O1    s    0.000000 *  0.000000 *  0.000000 *  -3.73396    1.000000    
     97 O1    s    0.151750 *  0.500000 *  0.313330 *  -3.73396    1.000000    
     98 O1    s    0.348250 *  0.500000 *  0.313330 *  -3.73396    1.000000    
     99 O1    s    0.848250 *  0.500000 *  0.686670 *  -3.73396    1.000000    
    100 O1    s    0.651750 *  0.500000 *  0.686670 *  -3.73396    1.000000    
    101 O1    s    0.250000 *  0.234950 *  0.285720 *  -3.73396    1.000000    
    102 O1    s    0.250000 *  0.765050 *  0.285720 *  -3.73396    1.000000    
    103 O1    s    0.750000 *  0.234950 *  0.714280 *  -3.73396    1.000000    
    104 O1    s    0.750000 *  0.765050 *  0.714280 *  -3.73396    1.000000    
    105 O1    s    0.131410 *  0.268650 *  0.127790 *  -3.73396    1.000000    
    106 O1    s    0.368590 *  0.731350 *  0.127790 *  -3.73396    1.000000    
    107 O1    s    0.868590 *  0.268650 *  0.872210 *  -3.73396    1.000000    
    108 O1    s    0.631410 *  0.731350 *  0.872210 *  -3.73396    1.000000    
    109 O1    s    0.868590 *  0.731350 *  0.872210 *  -3.73396    1.000000    
    110 O1    s    0.631410 *  0.268650 *  0.872210 *  -3.73396    1.000000    
    111 O1    s    0.131410 *  0.731350 *  0.127790 *  -3.73396    1.000000    
    112 O1    s    0.368590 *  0.268650 *  0.127790 *  -3.73396    1.000000    
    113 O1    s    0.653920 *  0.500000 *  0.058200 *  -3.73396    1.000000    
    114 O1    s    0.846080 *  0.500000 *  0.058200 *  -3.73396    1.000000    
    115 O1    s    0.346080 *  0.500000 *  0.941800 *  -3.73396    1.000000    
    116 O1    s    0.153920 *  0.500000 *  0.941800 *  -3.73396    1.000000    
    117 O1    s    0.750000 *  0.231060 *  0.027050 *  -3.73396    1.000000    
    118 O1    s    0.750000 *  0.768940 *  0.027050 *  -3.73396    1.000000    
    119 O1    s    0.250000 *  0.231060 *  0.972950 *  -3.73396    1.000000    
    120 O1    s    0.250000 *  0.768940 *  0.972950 *  -3.73396    1.000000    
--------------------------------------------------------------------------------



********************************************************************************
*  General input information                                                   *
********************************************************************************

  Species output for all configurations : 

--------------------------------------------------------------------------------
  Species    Type    Atomic    Atomic    Charge       Radii (Angs)     Library
                     Number     Mass       (e)     Cova   Ionic  VDW   Symbol
--------------------------------------------------------------------------------
    Ge       Core       32      72.61   4.000000   1.170  0.000  1.750 Ge       
    Si       Core       14      28.09   4.000000   1.200  0.000  2.100 Si       
    O1       Core        8      16.00   1.733957   0.730  0.000  1.360 O1       
    O2       Core        8      16.00   0.870733   0.730  0.000  0.000 O2       
    O3       Core        8      16.00   1.330431   0.730  0.000  1.360 O3       
    O1       Shell       8       0.00  -3.733957   0.730  0.000  0.000 O1       
    O2       Shell       8       0.00  -2.870733   0.730  0.000  0.000 O2       
    O3       Shell       8       0.00  -3.330431   0.730  0.000  0.000 O3       
--------------------------------------------------------------------------------


  Lattice summation method               =    Ewald          (3-D)
                                         =    Parry          (2-D)
                                         =    Saunders et al (1-D)
  Accuracy factor for lattice sums       =   12.000


  Analytic derivatives to be used

  Time limit = Infinity

  Maximum range for interatomic potentials =    100000.000000 Angstroms

  General interatomic potentials :

--------------------------------------------------------------------------------
Atom  Types   Potential      Parameter       Value         Units   Cutoffs(Ang)
  1     2                                                            Min /  Max 
--------------------------------------------------------------------------------
Si   c O1   s Buckingham    Buckingham A     1315.2478    eV        0.000 16.000
                            Buckingham rho  0.31775900    Ang       
                            Buckingham C     10.141118    eV*Ang^6  
--------------------------------------------------------------------------------
Si   c O2   s Buckingham    Buckingham A     1315.2478    eV        0.000 16.000
                            Buckingham rho  0.31775900    Ang       
                            Buckingham C     10.141118    eV*Ang^6  
--------------------------------------------------------------------------------
Si   c O3   s Buckingham    Buckingham A     1315.2478    eV        0.000 16.000
                            Buckingham rho  0.31775900    Ang       
                            Buckingham C     10.141118    eV*Ang^6  
--------------------------------------------------------------------------------
Ge   c O1   s Buckingham    Buckingham A     1497.3996    eV        0.000 16.000
                            Buckingham rho  0.32564600    Ang       
                            Buckingham C     16.808599    eV*Ang^6  
--------------------------------------------------------------------------------
Ge   c O2   s Buckingham    Buckingham A     1497.3996    eV        0.000 16.000
                            Buckingham rho  0.32564600    Ang       
                            Buckingham C     16.808599    eV*Ang^6  
--------------------------------------------------------------------------------
Ge   c O3   s Buckingham    Buckingham A     1497.3996    eV        0.000 16.000
                            Buckingham rho  0.32564600    Ang       
                            Buckingham C     16.808599    eV*Ang^6  
--------------------------------------------------------------------------------
O1   s O1   s Buckingham    Buckingham A     22764.000    eV        0.000 16.000
                            Buckingham rho  0.14900000    Ang       
                            Buckingham C     10.937044    eV*Ang^6  
--------------------------------------------------------------------------------
O1   s O2   s Buckingham    Buckingham A     22764.000    eV        0.000 16.000
                            Buckingham rho  0.14900000    Ang       
                            Buckingham C     10.937044    eV*Ang^6  
--------------------------------------------------------------------------------
O1   s O3   s Buckingham    Buckingham A     22764.000    eV        0.000 16.000
                            Buckingham rho  0.14900000    Ang       
                            Buckingham C     10.937044    eV*Ang^6  
--------------------------------------------------------------------------------
O2   s O2   s Buckingham    Buckingham A     22764.000    eV        0.000 16.000
                            Buckingham rho  0.14900000    Ang       
                            Buckingham C     10.937044    eV*Ang^6  
--------------------------------------------------------------------------------
O2   s O3   s Buckingham    Buckingham A     22764.000    eV        0.000 16.000
                            Buckingham rho  0.14900000    Ang       
                            Buckingham C     10.937044    eV*Ang^6  
--------------------------------------------------------------------------------
O3   s O3   s Buckingham    Buckingham A     22764.000    eV        0.000 16.000
                            Buckingham rho  0.14900000    Ang       
                            Buckingham C     10.937044    eV*Ang^6  
--------------------------------------------------------------------------------
O1   c O1   s Spring (c-s)  Spring k 2       180.31577    eV*Ang^-2 0.000  0.800
                            Spring k 4       0.0000000    eV*Ang^-4 
--------------------------------------------------------------------------------
O2   c O2   s Spring (c-s)  Spring k 2       75.969800    eV*Ang^-2 0.000  0.800
                            Spring k 4       0.0000000    eV*Ang^-4 
--------------------------------------------------------------------------------
O3   c O3   s Spring (c-s)  Spring k 2       128.14270    eV*Ang^-2 0.000  0.800
                            Spring k 4       0.0000000    eV*Ang^-4 
--------------------------------------------------------------------------------

  General Three-body potentials :

--------------------------------------------------------------------------------
  Atoms       Potential      Parameter       Value         Units   Cutoffs(Ang)
  1 / 2 / 3                                                          Min /  Max 
--------------------------------------------------------------------------------
Si    core    Harmonic      Three-body cnst  1.2614000    eV*rad^-2 0.000  1.900
O1    shel                  Three-body angl  109.47000    degrees   0.000  1.900
O1    shel                  Three-body k4    0.0000000    eV*rad^-4 0.000  3.500
                            Three-body k3    0.0000000    eV*rad^-3 
--------------------------------------------------------------------------------
Si    core    Harmonic      Three-body cnst  1.2614000    eV*rad^-2 0.000  1.900
O1    shel                  Three-body angl  109.47000    degrees   0.000  1.900
õ(1   shel                  Three-body k4    0.0000000    eV*rad^-4 0.000  3.500
                            Three-body k3    0.0000000    eV*rad^-3 
--------------------------------------------------------------------------------
Si    core    Harmonic      Three-body cnst  1.2614000    eV*rad^-2 0.000  1.900
õ(1   shel                  Three-body angl  109.47000    degrees   0.000  1.900
õ(1   shel                  Three-body k4    0.0000000    eV*rad^-4 0.000  3.500
                            Three-body k3    0.0000000    eV*rad^-3 
--------------------------------------------------------------------------------
Si    core    Harmonic      Three-body cnst  1.2614000    eV*rad^-2 0.000  1.900
O1    shel                  Three-body angl  109.47000    degrees   0.000  1.900
O2    shel                  Three-body k4    0.0000000    eV*rad^-4 0.000  3.500
                            Three-body k3    0.0000000    eV*rad^-3 
--------------------------------------------------------------------------------
Si    core    Harmonic      Three-body cnst  1.2614000    eV*rad^-2 0.000  1.900
O1    shel                  Three-body angl  109.47000    degrees   0.000  1.900
õ(2   shel                  Three-body k4    0.0000000    eV*rad^-4 0.000  3.500
                            Three-body k3    0.0000000    eV*rad^-3 
--------------------------------------------------------------------------------
Si    core    Harmonic      Three-body cnst  1.2614000    eV*rad^-2 0.000  1.900
O2    shel                  Three-body angl  109.47000    degrees   0.000  1.900
õ(1   shel                  Three-body k4    0.0000000    eV*rad^-4 0.000  3.500
                            Three-body k3    0.0000000    eV*rad^-3 
--------------------------------------------------------------------------------
Si    core    Harmonic      Three-body cnst  1.2614000    eV*rad^-2 0.000  1.900
õ(1   shel                  Three-body angl  109.47000    degrees   0.000  1.900
õ(2   shel                  Three-body k4    0.0000000    eV*rad^-4 0.000  3.500
                            Three-body k3    0.0000000    eV*rad^-3 
--------------------------------------------------------------------------------
Si    core    Harmonic      Three-body cnst  1.2614000    eV*rad^-2 0.000  1.900
O2    shel                  Three-body angl  109.47000    degrees   0.000  1.900
O2    shel                  Three-body k4    0.0000000    eV*rad^-4 0.000  3.500
                            Three-body k3    0.0000000    eV*rad^-3 
--------------------------------------------------------------------------------
Si    core    Harmonic      Three-body cnst  1.2614000    eV*rad^-2 0.000  1.900
O2    shel                  Three-body angl  109.47000    degrees   0.000  1.900
õ(2   shel                  Three-body k4    0.0000000    eV*rad^-4 0.000  3.500
                            Three-body k3    0.0000000    eV*rad^-3 
--------------------------------------------------------------------------------
Si    core    Harmonic      Three-body cnst  1.2614000    eV*rad^-2 0.000  1.900
õ(2   shel                  Three-body angl  109.47000    degrees   0.000  1.900
õ(2   shel                  Three-body k4    0.0000000    eV*rad^-4 0.000  3.500
                            Three-body k3    0.0000000    eV*rad^-3 
--------------------------------------------------------------------------------

********************************************************************************
*  Output for configuration   1 : c00004.vasp                                  *
********************************************************************************


  Components of energy : 

--------------------------------------------------------------------------------
  Interatomic potentials     =         920.64376431 eV    
  Three-body potentials      =           0.00000000 eV    
  Monopole - monopole (real) =       -2676.00317478 eV    
  Monopole - monopole (recip)=       -1115.35404472 eV    
  Monopole - monopole (total)=       -3791.35721950 eV    
--------------------------------------------------------------------------------
  Total lattice energy       =       -2870.71345519 eV    
--------------------------------------------------------------------------------
  Total lattice energy       =         -276979.9656 kJ/(mole unit cells)
--------------------------------------------------------------------------------


  Number of variables =      363

  Maximum number of calculations  =          1000
  Maximum Hessian update interval =            10
  Maximum step size               =   0.100000000
  Maximum parameter tolerance     =   0.000010000
  Maximum function  tolerance     =   0.000010000
  Maximum gradient  tolerance     =   0.001000000
  Maximum gradient  component     =   0.010000000

  Symmetry not applied to optimisation

  Cell parameters to be optimised using strains

  Newton-Raphson optimiser to be used

  BFGS hessian update to be used

  Lower half triangular hessian to be used

  Minimiser to switch to RFO
  When gradient norm is less than     0.050000

  Dumpfile to be written after every cycle

  Start of bulk optimisation :

  Cycle:      0 Energy:     -2870.713455  Gnorm:      6.105475  CPU:    0.074
  ** Hessian calculated **
  Cycle:      1 Energy:     -2917.802504  Gnorm:      1.491132  CPU:    0.166
  ** Hessian calculated **
  Cycle:      2 Energy:     -2923.322794  Gnorm:      0.771479  CPU:    0.305
  Cycle:      3 Energy:     -2924.133643  Gnorm:      0.243895  CPU:    0.369
  Cycle:      4 Energy:     -2924.289321  Gnorm:      0.181267  CPU:    0.444
  Cycle:      5 Energy:     -2924.474862  Gnorm:      0.149105  CPU:    0.520
  Cycle:      6 Energy:     -2924.675142  Gnorm:      0.140586  CPU:    0.595
  Cycle:      7 Energy:     -2924.795211  Gnorm:      0.101556  CPU:    0.659
  Cycle:      8 Energy:     -2924.841573  Gnorm:      0.083441  CPU:    0.722
  Cycle:      9 Energy:     -2924.868399  Gnorm:      0.058661  CPU:    0.798
  Cycle:     10 Energy:     -2924.885295  Gnorm:      0.051584  CPU:    0.873
  Cycle:     11 Energy:     -2924.900103  Gnorm:      0.053070  CPU:    0.949
  ** Hessian calculated **
  Cycle:     12 Energy:     -2924.912269  Gnorm:      0.051950  CPU:    1.089
  Cycle:     13 Energy:     -2924.932574  Gnorm:      0.049995  CPU:    1.177
  ** Hessian has wrong structure
  ** Imaginary eigenvectors =   6
  Cycle:     14 Energy:     -2924.936459  Gnorm:      0.049915  CPU:    1.364
  ** Hessian has wrong structure
  ** Imaginary eigenvectors =   6
  Cycle:     15 Energy:     -2924.946421  Gnorm:      0.050147  CPU:    1.680
  ** Hessian has wrong structure
  ** Imaginary eigenvectors =   6
  Cycle:     16 Energy:     -2924.990424  Gnorm:      0.051991  CPU:    1.983
  ** Hessian has wrong structure
  ** Imaginary eigenvectors =   6
  Cycle:     17 Energy:     -2925.067695  Gnorm:      0.058226  CPU:    2.275
  ** Hessian has wrong structure
  ** Imaginary eigenvectors =   3
  ** Hessian has wrong structure
  ** Imaginary eigenvectors =   3
  Cycle:     18 Energy:     -2925.108156  Gnorm:      0.073617  CPU:    2.667
  ** Hessian has wrong structure
  ** Imaginary eigenvectors =   3
  ** Hessian has wrong structure
  ** Imaginary eigenvectors =   2
  Cycle:     19 Energy:     -2925.238036  Gnorm:      0.087452  CPU:    3.061
  ** Hessian has wrong structure
  ** Imaginary eigenvectors =   2
  ** Hessian has wrong structure
  ** Imaginary eigenvectors =   1
  Cycle:     20 Energy:     -2925.468591  Gnorm:      0.083495  CPU:    3.441
  ** Hessian has wrong structure
  ** Imaginary eigenvectors =   1
  ** Hessian has wrong structure
  ** Imaginary eigenvectors =   1
  Cycle:     21 Energy:     -2925.680891  Gnorm:      0.078319  CPU:    3.736
  ** Hessian has wrong structure
  ** Imaginary eigenvectors =   1
  Cycle:     22 Energy:     -2925.784734  Gnorm:      0.065416  CPU:    3.906
  ** Hessian has required structure
  Cycle:     23 Energy:     -2925.831434  Gnorm:      0.034344  CPU:    4.088
  ** Hessian has required structure
  Cycle:     24 Energy:     -2925.846114  Gnorm:      0.019363  CPU:    4.208
  ** Hessian has required structure
  Cycle:     25 Energy:     -2925.851821  Gnorm:      0.011568  CPU:    4.329
  ** Hessian has required structure
  Cycle:     26 Energy:     -2925.855208  Gnorm:      0.008410  CPU:    4.450
  ** Hessian has required structure
  Cycle:     27 Energy:     -2925.859939  Gnorm:      0.014258  CPU:    4.583
  ** Hessian has required structure
  Cycle:     28 Energy:     -2925.863687  Gnorm:      0.029079  CPU:    4.691
  ** Hessian has required structure
  Cycle:     29 Energy:     -2925.867346  Gnorm:      0.035272  CPU:    4.812
  ** Hessian has required structure
  Cycle:     30 Energy:     -2925.872734  Gnorm:      0.033654  CPU:    4.933
  ** Hessian has required structure
  Cycle:     31 Energy:     -2925.878400  Gnorm:      0.038483  CPU:    5.054
  ** Hessian has required structure
  Cycle:     32 Energy:     -2925.890001  Gnorm:      0.041134  CPU:    5.174
  ** Hessian has required structure
  Cycle:     33 Energy:     -2925.936927  Gnorm:      0.045145  CPU:    5.354
  ** Hessian has required structure
  Cycle:     34 Energy:     -2925.972503  Gnorm:      0.046807  CPU:    5.462
  ** Hessian has required structure
  Cycle:     35 Energy:     -2925.988210  Gnorm:      0.026438  CPU:    5.569
  ** Hessian has required structure
  Cycle:     36 Energy:     -2925.999776  Gnorm:      0.021175  CPU:    5.689
  ** Hessian has required structure
  Cycle:     37 Energy:     -2926.005238  Gnorm:      0.014346  CPU:    5.797
  ** Hessian has required structure
  Cycle:     38 Energy:     -2926.008605  Gnorm:      0.009685  CPU:    5.906
  ** Hessian has required structure
  Cycle:     39 Energy:     -2926.009591  Gnorm:      0.005053  CPU:    6.014
  ** Hessian has required structure
  Cycle:     40 Energy:     -2926.010033  Gnorm:      0.002720  CPU:    6.122
  ** Hessian has required structure
  Cycle:     41 Energy:     -2926.010153  Gnorm:      0.002455  CPU:    6.229
  ** Hessian has required structure
  Cycle:     42 Energy:     -2926.010211  Gnorm:      0.001200  CPU:    6.349
  ** Hessian has required structure
  Cycle:     43 Energy:     -2926.010226  Gnorm:      0.000720  CPU:    6.518
  ** Hessian has required structure
  Cycle:     44 Energy:     -2926.010230  Gnorm:      0.000360  CPU:    6.638
  ** Hessian has required structure
  Cycle:     45 Energy:     -2926.010231  Gnorm:      0.000319  CPU:    6.734
  ** Hessian has required structure
  Cycle:     46 Energy:     -2926.010231  Gnorm:      0.000299  CPU:    6.830
  ** Hessian has required structure
  Cycle:     47 Energy:     -2926.010231  Gnorm:      0.000294  CPU:    6.926
  ** Hessian has required structure
  Cycle:     48 Energy:     -2926.010231  Gnorm:      0.000292  CPU:    7.022
  ** Hessian has required structure
  Cycle:     49 Energy:     -2926.010219  Gnorm:      0.001408  CPU:    7.179
  ** Hessian has required structure
  Cycle:     50 Energy:     -2926.010230  Gnorm:      0.000704  CPU:    7.360
  ** Hessian has required structure
  Cycle:     51 Energy:     -2926.010232  Gnorm:      0.000493  CPU:    7.456
  ** Hessian has required structure
  Cycle:     52 Energy:     -2926.010233  Gnorm:      0.000394  CPU:    7.552
  ** Hessian has required structure
  Cycle:     53 Energy:     -2926.010233  Gnorm:      0.000345  CPU:    7.648
  ** Hessian has required structure
  Cycle:     54 Energy:     -2926.010232  Gnorm:      0.000335  CPU:    7.782
  ** Hessian has required structure
  Cycle:     55 Energy:     -2926.010232  Gnorm:      0.000333  CPU:    7.951
  ** Hessian has required structure
  Cycle:     56 Energy:     -2926.010232  Gnorm:      0.000332  CPU:    8.047
  ** Hessian has required structure
  Cycle:     57 Energy:     -2926.010232  Gnorm:      0.000332  CPU:    8.143
  ** Hessian has required structure
  Cycle:     58 Energy:     -2926.010231  Gnorm:      0.000327  CPU:    8.289
  ** Hessian has required structure
  Cycle:     59 Energy:     -2926.010232  Gnorm:      0.000229  CPU:    8.446
  ** Hessian has required structure
  Cycle:     60 Energy:     -2926.010232  Gnorm:      0.000160  CPU:    8.542
  ** Hessian has required structure
  Cycle:     61 Energy:     -2926.010232  Gnorm:      0.000112  CPU:    8.638
  ** Hessian has required structure


  **** Optimisation achieved ****


  Final energy =   -2926.01023208 eV      
  Final Gnorm  =       0.00007849

  Components of energy : 

--------------------------------------------------------------------------------
  Interatomic potentials     =         769.88670364 eV    
  Three-body potentials      =           0.00000000 eV    
  Monopole - monopole (real) =       -1440.37463490 eV    
  Monopole - monopole (recip)=       -2255.52230082 eV    
  Monopole - monopole (total)=       -3695.89693572 eV    
--------------------------------------------------------------------------------
  Total lattice energy       =       -2926.01023208 eV    
--------------------------------------------------------------------------------
  Total lattice energy       =         -282315.2592 kJ/(mole unit cells)
--------------------------------------------------------------------------------

  Final fractional coordinates of atoms :

--------------------------------------------------------------------------------
   No.  Atomic        x           y          z          Radius
        Label       (Frac)      (Frac)     (Frac)       (Angs) 
--------------------------------------------------------------------------------
     1  Ge    c     0.052090    0.000000    0.372270    0.000000
     2  Ge    c     0.448063    0.057611    0.384690    0.000000
     3  Ge    c     0.943432    0.056644    0.616765    0.000000
     4  Ge    c     0.550339    0.996829    0.128098    0.000000
     5  Ge    c     0.951961    0.061744    0.114728    0.000000
     6  Ge    c     0.447863    0.056671    0.869333    0.000000
     7  Ge    c     0.055211    0.000345    0.861519    0.000000
     8  Ge    c     0.173890    0.286371    0.299563    0.000000
     9  Ge    c     0.327514    0.772084    0.301574    0.000000
    10  Ge    c     0.850373    0.369047    0.733732    0.000000
    11  Ge    c     0.641514    0.691681    0.741214    0.000000
    12  Ge    c     0.823895    0.767548    0.732351    0.000000
    13  Ge    c     0.668059    0.292350    0.736975    0.000000
    14  Ge    c     0.147532    0.686355    0.301824    0.000000
    15  Ge    c     0.353941    0.370971    0.305595    0.000000
    16  Ge    c     0.672328    0.287781    0.055627    0.000000
    17  Ge    c     0.827750    0.771731    0.049887    0.000000
    18  Ge    c     0.356625    0.369884    0.987372    0.000000
    19  Ge    c     0.146136    0.686968    0.983553    0.000000
    20  Ge    c     0.327499    0.771102    0.983367    0.000000
    21  Ge    c     0.175220    0.286862    0.981061    0.000000
    22  Ge    c     0.648114    0.687428    0.059585    0.000000
    23  Ge    c     0.851814    0.371778    0.054098    0.000000
    24  Si    c     0.553025    0.002994    0.626883    0.000000
    25  O1    c     0.124948    0.146504    0.397647    0.000000
    26  O1    c     0.374893    0.911513    0.403319    0.000000
    27  O1    c     0.916275    0.259433    0.648298    0.000000
    28  O3    c     0.575582    0.811573    0.659204    0.000000
    29  O1    c     0.867704    0.919858    0.638286    0.000000
    30  O3    c     0.623460    0.132288    0.648112    0.000000
    31  O1    c     0.085173    0.799223    0.393729    0.000000
    32  O1    c     0.415439    0.258629    0.401758    0.000000
    33  O1    c     0.971786    0.042486    0.455323    0.000000
    34  O3    c     0.527528    0.013937    0.475130    0.000000
    35  O1    c     0.028919    0.018446    0.206992    0.000000
    36  O1    c     0.474760    0.038178    0.222123    0.000000
    37  O1    c     0.023979    0.004075    0.701391    0.000000
    38  O3    c     0.479411    0.055527    0.708320    0.000000
    39  O1    c     0.622560    0.146402    0.149856    0.000000
    40  O1    c     0.879326    0.914543    0.140694    0.000000
    41  O1    c     0.422435    0.261249    0.901698    0.000000
    42  O1    c     0.080415    0.795835    0.896195    0.000000
    43  O1    c     0.370753    0.920985    0.886101    0.000000
    44  O1    c     0.131787    0.136876    0.883555    0.000000
    45  O1    c     0.586719    0.798740    0.152962    0.000000
    46  O1    c     0.916808    0.260501    0.141461    0.000000
    47  O1    c     0.521621    0.996994    0.965707    0.000000
    48  O1    c     0.979122    0.059145    0.952328    0.000000
    49  O1    c     0.160437    0.487682    0.361687    0.000000
    50  O1    c     0.340916    0.570213    0.363198    0.000000
    51  O1    c     0.840029    0.568935    0.670162    0.000000
    52  O1    c     0.648672    0.491034    0.676300    0.000000
    53  O1    c     0.269451    0.254679    0.300320    0.000000
    54  O1    c     0.231938    0.803117    0.298642    0.000000
    55  O1    c     0.763740    0.262628    0.730049    0.000000
    56  O1    c     0.728018    0.796140    0.734919    0.000000
    57  O1    c     0.142064    0.273057    0.139355    0.000000
    58  O1    c     0.360313    0.787330    0.142729    0.000000
    59  O1    c     0.879775    0.392696    0.893161    0.000000
    60  O1    c     0.614703    0.665073    0.900869    0.000000
    61  O1    c     0.858790    0.782990    0.889846    0.000000
    62  O1    c     0.638338    0.278467    0.896567    0.000000
    63  O1    c     0.115685    0.666222    0.142656    0.000000
    64  O1    c     0.386847    0.388152    0.147599    0.000000
    65  O1    c     0.661379    0.488861    0.119611    0.000000
    66  O1    c     0.840580    0.570851    0.113997    0.000000
    67  O1    c     0.345276    0.570250    0.926131    0.000000
    68  O1    c     0.157841    0.487340    0.921592    0.000000
    69  O1    c     0.767652    0.254109    0.053545    0.000000
    70  O1    c     0.732324    0.804356    0.051574    0.000000
    71  O1    c     0.271201    0.259001    0.983371    0.000000
    72  O1    c     0.231518    0.798252    0.982511    0.000000
    73  O1    s     0.123342    0.146443    0.388367    0.000000
    74  O1    s     0.376745    0.911814    0.394248    0.000000
    75  O1    s     0.913320    0.252437    0.652394    0.000000
    76  O3    s     0.578611    0.820560    0.662556    0.000000
    77  O1    s     0.870161    0.918581    0.643966    0.000000
    78  O3    s     0.620078    0.132462    0.653232    0.000000
    79  O1    s     0.087285    0.805739    0.385472    0.000000
    80  O1    s     0.413414    0.251767    0.393518    0.000000
    81  O1    s     0.976016    0.040209    0.460431    0.000000
    82  O3    s     0.523465    0.016452    0.482073    0.000000
    83  O1    s     0.024437    0.020543    0.211122    0.000000
    84  O1    s     0.478947    0.036266    0.226046    0.000000
    85  O1    s     0.020392    0.007659    0.706870    0.000000
    86  O3    s     0.483844    0.050700    0.712912    0.000000
    87  O1    s     0.621196    0.146582    0.140920    0.000000
    88  O1    s     0.880557    0.914021    0.131719    0.000000
    89  O1    s     0.419274    0.254421    0.905867    0.000000
    90  O1    s     0.083595    0.802586    0.900338    0.000000
    91  O1    s     0.373240    0.919652    0.892337    0.000000
    92  O1    s     0.129378    0.138205    0.889434    0.000000
    93  O1    s     0.588689    0.804634    0.144208    0.000000
    94  O1    s     0.914470    0.254620    0.133039    0.000000
    95  O1    s     0.518026    0.001578    0.969926    0.000000
    96  O1    s     0.982813    0.054959    0.957131    0.000000
    97  O1    s     0.160391    0.488870    0.352647    0.000000
    98  O1    s     0.340975    0.569016    0.354323    0.000000
    99  O1    s     0.839628    0.568618    0.679357    0.000000
   100  O1    s     0.649529    0.491264    0.685327    0.000000
   101  O1    s     0.268341    0.265290    0.300619    0.000000
   102  O1    s     0.233074    0.792529    0.299065    0.000000
   103  O1    s     0.762900    0.272635    0.730842    0.000000
   104  O1    s     0.728753    0.786139    0.735209    0.000000
   105  O1    s     0.146759    0.275013    0.139368    0.000000
   106  O1    s     0.355601    0.785081    0.142641    0.000000
   107  O1    s     0.875490    0.389382    0.892916    0.000000
   108  O1    s     0.619170    0.668711    0.900236    0.000000
   109  O1    s     0.854008    0.781074    0.889809    0.000000
   110  O1    s     0.642996    0.280152    0.896166    0.000000
   111  O1    s     0.120279    0.669235    0.142617    0.000000
   112  O1    s     0.382206    0.385543    0.147458    0.000000
   113  O1    s     0.661136    0.489952    0.110435    0.000000
   114  O1    s     0.840537    0.569681    0.104850    0.000000
   115  O1    s     0.344847    0.569775    0.934817    0.000000
   116  O1    s     0.158213    0.487772    0.930452    0.000000
   117  O1    s     0.766509    0.264973    0.053714    0.000000
   118  O1    s     0.733465    0.793622    0.051994    0.000000
   119  O1    s     0.270296    0.269196    0.983502    0.000000
   120  O1    s     0.232456    0.788088    0.982661    0.000000
--------------------------------------------------------------------------------

  Final Cartesian lattice vectors (Angstroms) :

       17.654232   -0.252968   -0.055875
       -0.112482    7.885308    0.006047
       -0.034581    0.007038   10.190492


  Final cell parameters and derivatives :

--------------------------------------------------------------------------------
       a           17.656133 Angstrom     dE/de1(xx)     0.003806 eV/strain
       b            7.886112 Angstrom     dE/de2(yy)    -0.008302 eV/strain
       c           10.190553 Angstrom     dE/de3(zz)     0.002492 eV/strain
       alpha       89.913725 Degrees      dE/de4(yz)    -0.002182 eV/strain
       beta        90.376295 Degrees      dE/de5(xz)    -0.000257 eV/strain
       gamma       91.638322 Degrees      dE/de6(xy)     0.006595 eV/strain
--------------------------------------------------------------------------------

  Primitive cell volume =          1418.302894 Angs**3

  Density of cell =      2.887362 g/cm**3

  Non-primitive cell volume =          1418.302894 Angs**3


  Final internal derivatives :

--------------------------------------------------------------------------------
   No.  Atomic          a             b             c           Radius
        Label          (eV)          (eV)          (eV)        (eV/Angs)
--------------------------------------------------------------------------------
      1 Ge    c       0.000000      0.000000      0.000000      0.000000
      2 Ge    c      -0.001304      0.002874     -0.000044      0.000000
      3 Ge    c      -0.000512      0.003488      0.000747      0.000000
      4 Ge    c       0.002176     -0.002676      0.000304      0.000000
      5 Ge    c      -0.001893      0.002685      0.000452      0.000000
      6 Ge    c      -0.000946      0.002975      0.000900      0.000000
      7 Ge    c       0.000253     -0.001771      0.000958      0.000000
      8 Ge    c      -0.000014      0.002665      0.000210      0.000000
      9 Ge    c       0.001030     -0.001154      0.000967      0.000000
     10 Ge    c       0.003674      0.000551     -0.001453      0.000000
     11 Ge    c      -0.002358     -0.001749     -0.001965      0.000000
     12 Ge    c       0.000358     -0.002631      0.000263      0.000000
     13 Ge    c      -0.001094      0.001305     -0.000705      0.000000
     14 Ge    c      -0.004190     -0.000411      0.001483      0.000000
     15 Ge    c       0.002528      0.001695      0.001858      0.000000
     16 Ge    c       0.000532      0.002590      0.000200      0.000000
     17 Ge    c       0.000636     -0.001128      0.000884      0.000000
     18 Ge    c       0.003951      0.000448     -0.001541      0.000000
     19 Ge    c      -0.002464     -0.001771     -0.001796      0.000000
     20 Ge    c       0.000555     -0.002668     -0.000208      0.000000
     21 Ge    c      -0.001302      0.001131     -0.001214      0.000000
     22 Ge    c      -0.003656     -0.000487      0.001680      0.000000
     23 Ge    c       0.002161      0.001597      0.001785      0.000000
     24 Si    c       0.000591     -0.002155      0.000609      0.000000
     25 O1    c      -0.000436     -0.000719      0.002001      0.000000
     26 O1    c      -0.003958     -0.001581     -0.000122      0.000000
     27 O1    c      -0.000791     -0.002950      0.000668      0.000000
     28 O3    c       0.000150      0.001748      0.000055      0.000000
     29 O1    c      -0.002307      0.000307     -0.001635      0.000000
     30 O3    c       0.003659      0.001128      0.000196      0.000000
     31 O1    c       0.001245      0.001773     -0.002334      0.000000
     32 O1    c       0.001810     -0.003226     -0.001088      0.000000
     33 O1    c       0.000720     -0.000047     -0.000996      0.000000
     34 O3    c       0.000480     -0.000158     -0.000383      0.000000
     35 O1    c      -0.000317     -0.000256     -0.001054      0.000000
     36 O1    c      -0.000304      0.000050     -0.000477      0.000000
     37 O1    c      -0.000043     -0.000140     -0.000751      0.000000
     38 O3    c      -0.000663      0.000018     -0.000790      0.000000
     39 O1    c      -0.000926     -0.001042      0.001942      0.000000
     40 O1    c      -0.003237     -0.000998      0.000026      0.000000
     41 O1    c      -0.001602     -0.002556      0.000670      0.000000
     42 O1    c      -0.000024      0.002217     -0.000079      0.000000
     43 O1    c      -0.002104      0.000191     -0.001293      0.000000
     44 O1    c       0.003588      0.001378      0.000860      0.000000
     45 O1    c       0.000340      0.002149     -0.002574      0.000000
     46 O1    c       0.002495     -0.003598     -0.001644      0.000000
     47 O1    c       0.001150     -0.000335     -0.000461      0.000000
     48 O1    c       0.001285     -0.000020     -0.001499      0.000000
     49 O1    c       0.000634     -0.001687     -0.002488      0.000000
     50 O1    c       0.000991     -0.002187     -0.002450      0.000000
     51 O1    c      -0.001171      0.000448      0.002218      0.000000
     52 O1    c      -0.000012      0.002827      0.002434      0.000000
     53 O1    c      -0.002623     -0.001613     -0.000317      0.000000
     54 O1    c       0.002910      0.001475     -0.000229      0.000000
     55 O1    c      -0.000401     -0.001087     -0.000042      0.000000
     56 O1    c       0.000957      0.001349      0.000139      0.000000
     57 O1    c      -0.001116     -0.000097      0.000696      0.000000
     58 O1    c       0.001088      0.000180     -0.000631      0.000000
     59 O1    c       0.000544      0.000092     -0.001254      0.000000
     60 O1    c      -0.000874     -0.000064      0.001229      0.000000
     61 O1    c       0.000899      0.000064     -0.000818      0.000000
     62 O1    c      -0.001157     -0.000176      0.000727      0.000000
     63 O1    c      -0.000951     -0.000026      0.001053      0.000000
     64 O1    c       0.000996     -0.000016     -0.000902      0.000000
     65 O1    c       0.000536     -0.001247     -0.002557      0.000000
     66 O1    c       0.000634     -0.002277     -0.002573      0.000000
     67 O1    c      -0.001228      0.001878      0.002376      0.000000
     68 O1    c      -0.000516      0.001842      0.002628      0.000000
     69 O1    c      -0.001605     -0.001205     -0.000230      0.000000
     70 O1    c       0.002515      0.001066     -0.000264      0.000000
     71 O1    c      -0.002750     -0.001359      0.000093      0.000000
     72 O1    c       0.002620      0.001583      0.000184      0.000000
     73 O1    s       0.000144      0.000473     -0.000787      0.000000
     74 O1    s       0.001987      0.000801      0.000559      0.000000
     75 O1    s       0.000770      0.001940     -0.000463      0.000000
     76 O3    s      -0.000206     -0.001147     -0.000124      0.000000
     77 O1    s       0.001611     -0.000234      0.000547      0.000000
     78 O3    s      -0.001407     -0.000397     -0.000463      0.000000
     79 O1    s      -0.001428     -0.001129      0.001678      0.000000
     80 O1    s      -0.000480      0.001864      0.000703      0.000000
     81 O1    s      -0.000394     -0.000017      0.000416      0.000000
     82 O3    s      -0.000137      0.000233     -0.000073      0.000000
     83 O1    s      -0.000086      0.000477      0.000707      0.000000
     84 O1    s       0.000348     -0.000184      0.000166      0.000000
     85 O1    s       0.000136      0.000220      0.000442      0.000000
     86 O3    s      -0.000730     -0.000201      0.000385      0.000000
     87 O1    s       0.000271      0.000577     -0.000702      0.000000
     88 O1    s       0.001908      0.000596      0.000305      0.000000
     89 O1    s       0.001803      0.001689     -0.000568      0.000000
     90 O1    s      -0.000687     -0.001331     -0.000109      0.000000
     91 O1    s       0.001047     -0.000314      0.000450      0.000000
     92 O1    s      -0.001976     -0.000640     -0.000606      0.000000
     93 O1    s      -0.000676     -0.001477      0.001692      0.000000
     94 O1    s      -0.000857      0.002136      0.001023      0.000000
     95 O1    s      -0.000647      0.000501      0.000495      0.000000
     96 O1    s      -0.000785     -0.000225      0.000931      0.000000
     97 O1    s      -0.000172      0.000835      0.001547      0.000000
     98 O1    s      -0.000727      0.001162      0.001486      0.000000
     99 O1    s       0.000619     -0.000412     -0.001438      0.000000
    100 O1    s       0.000086     -0.001320     -0.001547      0.000000
    101 O1    s       0.000628      0.001565      0.000614      0.000000
    102 O1    s      -0.001131     -0.001154      0.000430      0.000000
    103 O1    s       0.000860      0.000646     -0.000165      0.000000
    104 O1    s      -0.000743     -0.001056     -0.000440      0.000000
    105 O1    s       0.000062      0.000110     -0.000306      0.000000
    106 O1    s       0.000014     -0.000230      0.000168      0.000000
    107 O1    s       0.000171      0.000111      0.000620      0.000000
    108 O1    s      -0.000292     -0.000249     -0.000816      0.000000
    109 O1    s       0.000212     -0.000060      0.000522      0.000000
    110 O1    s      -0.000132      0.000204     -0.000184      0.000000
    111 O1    s      -0.000364     -0.000252     -0.000699      0.000000
    112 O1    s       0.000405      0.000290      0.000567      0.000000
    113 O1    s      -0.000255      0.000713      0.001498      0.000000
    114 O1    s      -0.000319      0.001139      0.001623      0.000000
    115 O1    s       0.000580     -0.000877     -0.001428      0.000000
    116 O1    s       0.000419     -0.001027     -0.001699      0.000000
    117 O1    s       0.000353      0.001263      0.000479      0.000000
    118 O1    s      -0.001145     -0.000825      0.000417      0.000000
    119 O1    s       0.001036      0.000997     -0.000344      0.000000
    120 O1    s      -0.000789     -0.001489     -0.000487      0.000000
--------------------------------------------------------------------------------
  Maximum abs         0.004190      0.003598      0.002628      0.000000
--------------------------------------------------------------------------------


  Born effective charge tensors : 

-------------------------------------------------------------------------------
  Atom             x           y             z
-------------------------------------------------------------------------------
    1 Ge    x       4.1506     -0.2500      0.0968
            y       0.0772      3.9315     -0.0116
            z      -0.7828      0.1450      4.1276
-------------------------------------------------------------------------------
    2 Ge    x       4.0066     -0.2214     -0.1008
            y       0.1032      3.9327      0.0267
            z       0.7524     -0.1367      4.1721
-------------------------------------------------------------------------------
    3 Ge    x       4.1999     -0.2688     -0.4633
            y       0.1380      3.9203      0.0891
            z      -0.2379      0.0290      4.3979
-------------------------------------------------------------------------------
    4 Ge    x       4.2414     -0.1762      0.0238
            y       0.0780      3.9409      0.0055
            z      -0.6681      0.1765      3.7696
-------------------------------------------------------------------------------
    5 Ge    x       4.3016     -0.1955     -0.0700
            y       0.0791      3.9351     -0.0010
            z       0.6253     -0.1623      3.6803
-------------------------------------------------------------------------------
    6 Ge    x       4.2282     -0.2177     -0.3673
            y       0.1550      3.9503      0.0799
            z      -0.2830     -0.0168      3.8566
-------------------------------------------------------------------------------
    7 Ge    x       4.2675     -0.2256      0.3901
            y       0.1539      3.9453     -0.0686
            z       0.3187      0.0043      3.9810
-------------------------------------------------------------------------------
    8 Ge    x       4.0256      0.2510     -0.2882
            y       0.2793      4.1449     -0.0673
            z      -0.0048     -0.1431      3.5838
-------------------------------------------------------------------------------
    9 Ge    x       4.0104      0.2534      0.3111
            y       0.2755      4.1525      0.0850
            z       0.0289      0.1606      3.6195
-------------------------------------------------------------------------------
   10 Ge    x       3.9984     -0.0696     -0.1922
            y      -0.4357      4.1902      0.0991
            z      -0.0832      0.2236      3.6156
-------------------------------------------------------------------------------
   11 Ge    x       3.8665     -0.0345      0.1289
            y      -0.4219      4.2417     -0.0742
            z       0.0193     -0.2066      3.5620
-------------------------------------------------------------------------------
   12 Ge    x       4.0043      0.2471     -0.2710
            y       0.2091      4.2008     -0.0656
            z       0.0092     -0.1900      3.6148
-------------------------------------------------------------------------------
   13 Ge    x       3.9528      0.2251      0.2031
            y       0.1751      4.2105      0.0193
            z      -0.0551      0.1474      3.5576
-------------------------------------------------------------------------------
   14 Ge    x       3.9074     -0.0880     -0.2195
            y      -0.4452      4.2191      0.1045
            z      -0.0452      0.2000      3.5752
-------------------------------------------------------------------------------
   15 Ge    x       3.8924     -0.0873      0.2333
            y      -0.4470      4.2267     -0.1197
            z       0.0684     -0.2044      3.6121
-------------------------------------------------------------------------------
   16 Ge    x       4.0643      0.2449     -0.3013
            y       0.3088      4.1521     -0.0566
            z      -0.0383     -0.1569      3.5104
-------------------------------------------------------------------------------
   17 Ge    x       4.0866      0.2631      0.3177
            y       0.3052      4.1506      0.0490
            z       0.0329      0.1425      3.4678
-------------------------------------------------------------------------------
   18 Ge    x       4.0350     -0.0833     -0.2826
            y      -0.4439      4.2018      0.0904
            z      -0.1313      0.2057      3.5353
-------------------------------------------------------------------------------
   19 Ge    x       4.0328     -0.0743      0.2706
            y      -0.4396      4.1915     -0.0876
            z       0.1147     -0.2028      3.5189
-------------------------------------------------------------------------------
   20 Ge    x       4.0399      0.2399     -0.3387
            y       0.2128      4.1968     -0.0955
            z      -0.0293     -0.1908      3.5638
-------------------------------------------------------------------------------
   21 Ge    x       4.0397      0.2283      0.3215
            y       0.2107      4.1949      0.0961
            z       0.0146      0.1939      3.5516
-------------------------------------------------------------------------------
   22 Ge    x       3.9664     -0.0851     -0.2941
            y      -0.4439      4.2001      0.0825
            z      -0.0904      0.1922      3.4897
-------------------------------------------------------------------------------
   23 Ge    x       4.0076     -0.0958      0.2852
            y      -0.4419      4.2036     -0.0802
            z       0.0908     -0.1844      3.4516
-------------------------------------------------------------------------------
   24 Si    x       3.8066     -0.2493      0.4440
            y       0.1725      3.6918     -0.0907
            z       0.2009     -0.0083      4.1273
-------------------------------------------------------------------------------
   25 O1    x      -2.1670     -0.8876      0.2947
            y      -0.9431     -2.2741      0.3457
            z       0.3680      0.3524     -1.6154
-------------------------------------------------------------------------------
   26 O1    x      -2.1603     -0.8883     -0.3400
            y      -0.9386     -2.2714     -0.3891
            z      -0.4190     -0.3991     -1.6489
-------------------------------------------------------------------------------
   27 O1    x      -1.9630      0.8499      0.5179
            y       0.7947     -2.5481     -0.5440
            z       0.4721     -0.5411     -1.6447
-------------------------------------------------------------------------------
   28 O3    x      -1.7465      0.7870     -0.4239
            y       0.7156     -2.5366      0.5110
            z      -0.3693      0.4984     -1.5111
-------------------------------------------------------------------------------
   29 O1    x      -2.1803     -0.8935      0.5173
            y      -0.9281     -2.3164      0.5194
            z       0.4697      0.5475     -1.6646
-------------------------------------------------------------------------------
   30 O3    x      -2.0754     -0.8745     -0.4507
            y      -0.8920     -2.2161     -0.4323
            z      -0.3979     -0.4668     -1.5098
-------------------------------------------------------------------------------
   31 O1    x      -1.9413      0.8659      0.3415
            y       0.8216     -2.5273     -0.2947
            z       0.4159     -0.3338     -1.5858
-------------------------------------------------------------------------------
   32 O1    x      -1.9199      0.8691     -0.3744
            y       0.8194     -2.5372      0.3344
            z      -0.4552      0.3855     -1.6206
-------------------------------------------------------------------------------
   33 O1    x      -2.1302      0.2546      0.8887
            y       0.1118     -1.2770     -0.1415
            z       1.1273     -0.2590     -2.9886
-------------------------------------------------------------------------------
   34 O3    x      -1.8621      0.2119     -0.8225
            y       0.0759     -1.2055      0.1213
            z      -1.0285      0.2304     -2.9557
-------------------------------------------------------------------------------
   35 O1    x      -2.1345      0.2318     -0.8031
            y       0.1085     -1.3478      0.1683
            z      -0.7794      0.2262     -2.5828
-------------------------------------------------------------------------------
   36 O1    x      -2.1215      0.2257      0.8202
            y       0.1092     -1.3411     -0.1714
            z       0.8267     -0.2314     -2.6654
-------------------------------------------------------------------------------
   37 O1    x      -2.1329      0.2443     -0.7799
            y       0.1290     -1.3045      0.1459
            z      -0.8195      0.1786     -2.7219
-------------------------------------------------------------------------------
   38 O3    x      -2.0427      0.2559      0.7552
            y       0.1398     -1.2581     -0.1589
            z       0.7637     -0.1822     -2.4749
-------------------------------------------------------------------------------
   39 O1    x      -2.1864     -0.9007      0.3151
            y      -0.9541     -2.3062      0.3489
            z       0.3813      0.3691     -1.5277
-------------------------------------------------------------------------------
   40 O1    x      -2.2359     -0.9212     -0.2938
            y      -0.9641     -2.3023     -0.3130
            z      -0.3590     -0.3403     -1.4881
-------------------------------------------------------------------------------
   41 O1    x      -2.0205      0.8564      0.5578
            y       0.7706     -2.5613     -0.5621
            z       0.4919     -0.5525     -1.5738
-------------------------------------------------------------------------------
   42 O1    x      -2.0077      0.8342     -0.5405
            y       0.7566     -2.5495      0.5600
            z      -0.4737      0.5428     -1.5677
-------------------------------------------------------------------------------
   43 O1    x      -2.2367     -0.9086      0.5383
            y      -0.9140     -2.2895      0.5146
            z       0.4663      0.5243     -1.6074
-------------------------------------------------------------------------------
   44 O1    x      -2.2162     -0.8922     -0.5314
            y      -0.9101     -2.3026     -0.5325
            z      -0.4575     -0.5275     -1.6073
-------------------------------------------------------------------------------
   45 O1    x      -2.0086      0.8589      0.3533
            y       0.8305     -2.4962     -0.2783
            z       0.3998     -0.3176     -1.5115
-------------------------------------------------------------------------------
   46 O1    x      -2.0685      0.8816     -0.3333
            y       0.8443     -2.5033      0.2379
            z      -0.3855      0.2836     -1.4573
-------------------------------------------------------------------------------
   47 O1    x      -2.0859      0.2289     -0.7099
            y       0.1397     -1.3749      0.1726
            z      -0.5256      0.1522     -2.3747
-------------------------------------------------------------------------------
   48 O1    x      -2.1453      0.2400      0.7112
            y       0.1447     -1.3730     -0.1721
            z       0.5061     -0.1490     -2.3147
-------------------------------------------------------------------------------
   49 O1    x      -1.3549      0.1981      0.0679
            y       0.2981     -3.1453      0.0005
            z       0.0177      0.0151     -1.3915
-------------------------------------------------------------------------------
   50 O1    x      -1.3502      0.1989     -0.0710
            y       0.2998     -3.1626      0.0050
            z      -0.0234     -0.0117     -1.3888
-------------------------------------------------------------------------------
   51 O1    x      -1.3562      0.1903      0.0758
            y       0.3006     -3.1464      0.0156
            z       0.0288      0.0138     -1.4123
-------------------------------------------------------------------------------
   52 O1    x      -1.3472      0.1813     -0.0841
            y       0.3117     -3.2240     -0.0370
            z      -0.0414     -0.0272     -1.4061
-------------------------------------------------------------------------------
   53 O1    x      -3.0317     -0.2802     -0.0257
            y      -0.1837     -1.5882      0.0040
            z      -0.0535      0.0338     -1.2207
-------------------------------------------------------------------------------
   54 O1    x      -3.0340     -0.2859     -0.0017
            y      -0.1912     -1.5900     -0.0057
            z       0.0130     -0.0388     -1.2195
-------------------------------------------------------------------------------
   55 O1    x      -3.1155     -0.2846      0.0196
            y      -0.2244     -1.5625     -0.0257
            z       0.0264     -0.0578     -1.2263
-------------------------------------------------------------------------------
   56 O1    x      -3.1044     -0.2655      0.0470
            y      -0.1572     -1.5425      0.0280
            z       0.0137      0.0596     -1.2229
-------------------------------------------------------------------------------
   57 O1    x      -1.5016     -0.1055     -0.0006
            y      -0.1157     -1.4215      0.0124
            z       0.0004      0.0012     -2.7309
-------------------------------------------------------------------------------
   58 O1    x      -1.4974     -0.1082      0.0246
            y      -0.1205     -1.4219     -0.0170
            z       0.0195     -0.0079     -2.7443
-------------------------------------------------------------------------------
   59 O1    x      -1.4499      0.0133     -0.0555
            y       0.0790     -1.4374     -0.0161
            z      -0.0448     -0.0091     -2.7577
-------------------------------------------------------------------------------
   60 O1    x      -1.4445      0.0113     -0.0169
            y       0.0853     -1.4451      0.0500
            z      -0.0127      0.0225     -2.7571
-------------------------------------------------------------------------------
   61 O1    x      -1.5036     -0.1077     -0.0581
            y      -0.1135     -1.4217     -0.0213
            z      -0.0600     -0.0187     -2.7225
-------------------------------------------------------------------------------
   62 O1    x      -1.4791     -0.1080     -0.0319
            y      -0.1155     -1.4283      0.0011
            z       0.0018      0.0132     -2.7594
-------------------------------------------------------------------------------
   63 O1    x      -1.4628      0.0104     -0.0382
            y       0.0788     -1.4309      0.0010
            z      -0.0290     -0.0089     -2.7427
-------------------------------------------------------------------------------
   64 O1    x      -1.4601      0.0147      0.0621
            y       0.0831     -1.4282     -0.0048
            z       0.0493      0.0061     -2.7627
-------------------------------------------------------------------------------
   65 O1    x      -1.3770      0.1922      0.0736
            y       0.2738     -3.1393     -0.0051
            z       0.0209      0.0086     -1.3685
-------------------------------------------------------------------------------
   66 O1    x      -1.3872      0.1910     -0.0830
            y       0.2695     -3.1333      0.0029
            z      -0.0285     -0.0142     -1.3570
-------------------------------------------------------------------------------
   67 O1    x      -1.3947      0.2177      0.0895
            y       0.3238     -3.1667      0.0349
            z       0.0406      0.0166     -1.3564
-------------------------------------------------------------------------------
   68 O1    x      -1.3945      0.2167     -0.0841
            y       0.3237     -3.1529     -0.0302
            z      -0.0328     -0.0151     -1.3623
-------------------------------------------------------------------------------
   69 O1    x      -3.0546     -0.2792      0.0123
            y      -0.1844     -1.5906      0.0037
            z      -0.0048      0.0428     -1.1956
-------------------------------------------------------------------------------
   70 O1    x      -3.0519     -0.2816      0.0536
            y      -0.1818     -1.5861      0.0082
            z       0.0632     -0.0286     -1.1987
-------------------------------------------------------------------------------
   71 O1    x      -3.0946     -0.2915     -0.0244
            y      -0.2079     -1.5701     -0.0231
            z       0.0066     -0.0501     -1.2091
-------------------------------------------------------------------------------
   72 O1    x      -3.0954     -0.2981      0.0040
            y      -0.2139     -1.5701      0.0193
            z      -0.0163      0.0467     -1.2088
-------------------------------------------------------------------------------




  Elastic Constant Matrix: (Units=GPa)

-------------------------------------------------------------------------------
  Indices      1         2         3         4         5         6    
-------------------------------------------------------------------------------
       1     27.3663   11.6320    8.2339    0.1249   -0.0630   -7.2999
       2     11.6320   33.8528    6.6981    0.0833    0.2286   -7.1900
       3      8.2339    6.6981   12.9844   -0.1159    0.0100   -2.0068
       4      0.1249    0.0833   -0.1159    8.4482   -2.2678    0.1013
       5     -0.0630    0.2286    0.0100   -2.2678   15.6357    0.0215
       6     -7.2999   -7.1900   -2.0068    0.1013    0.0215   19.7661
-------------------------------------------------------------------------------


  Elastic Compliance Matrix: (Units=1/GPa)

-------------------------------------------------------------------------------
  Indices      1         2         3         4         5         6    
-------------------------------------------------------------------------------
       1    0.052033 -0.010013 -0.025839 -0.001129  0.000191  0.012957
       2   -0.010013  0.037086 -0.011452 -0.000662 -0.000683  0.008634
       3   -0.025839 -0.011452  0.098755  0.001972  0.000291 -0.003692
       4   -0.001129 -0.000662  0.001972  0.123231  0.017879 -0.001108
       5    0.000191 -0.000683  0.000291  0.017879  0.066560 -0.000313
       6    0.012957  0.008634 -0.003692 -0.001108 -0.000313  0.058148
-------------------------------------------------------------------------------

  Mechanical properties :

-------------------------------------------------------------------------------
  Convention :                    Reuss         Voigt         Hill
-------------------------------------------------------------------------------
  Bulk  Modulus (GPa)     =      10.72197      14.14794      12.43496
  Shear Modulus (GPa)     =       8.90452      11.94595      10.42524
-------------------------------------------------------------------------------
  Velocity S-wave (km/s)  =       1.75612       2.03404       1.90017
  Velocity P-wave (km/s)  =       2.79739       3.22744       3.02008
-------------------------------------------------------------------------------
  Compressibility (1/GPa) =    0.09326644
-------------------------------------------------------------------------------
  Stress axis :                     x             y             z
-------------------------------------------------------------------------------
  Youngs Moduli (GPa)     =      19.21840      26.96418      10.12602
-------------------------------------------------------------------------------
  Poissons Ratio (x)      =                     0.27000       0.26164
  Poissons Ratio (y)      =       0.19244                     0.11597
  Poissons Ratio (z)      =       0.49658       0.30881
-------------------------------------------------------------------------------


  Piezoelectric Strain Matrix: (Units=C/m**2)

-------------------------------------------------------------------------------
  Indices      1         2         3         4         5         6    
-------------------------------------------------------------------------------
       x     0.10611  -0.04263   0.08001   0.15273   0.42357  -0.03305
       y     0.03889   0.01368   0.10981   0.79929  -0.43149  -0.01690
       z     0.26181  -0.33138  -1.28334  -0.08926   0.11407  -0.13308
-------------------------------------------------------------------------------


  Piezoelectric Stress Matrix: (Units=10**-11 C/N)

-------------------------------------------------------------------------------
  Indices      1         2         3         4         5         6    
-------------------------------------------------------------------------------
       x     0.33611  -0.42354   0.61944   2.64972   3.10065  -0.15118
       y    -0.21546  -0.15197   1.11953   9.09647  -1.43948  -0.15173
       z     4.84991  -0.13819 -12.93576  -1.14194   0.59404  -0.24054
-------------------------------------------------------------------------------


  Static dielectric constant tensor : 

-------------------------------------------------------------------------------
              x         y         z
-------------------------------------------------------------------------------
       x     5.40283   0.00894  -0.05132
       y     0.00894   6.61007   0.01254
       z    -0.05132   0.01254   4.19260
--------------------------------------------------------------------------------

  High frequency dielectric constant tensor : 

-------------------------------------------------------------------------------
              x         y         z
-------------------------------------------------------------------------------
       x     1.53299  -0.00268   0.00036
       y    -0.00268   1.53852   0.00002
       z     0.00036   0.00002   1.49793
-------------------------------------------------------------------------------

  Static refractive indices : 

-------------------------------------------------------------------------------
    1 =    2.04704      2 =    2.32485      3 =    2.57103
-------------------------------------------------------------------------------

  High frequency refractive indices : 

-------------------------------------------------------------------------------
    1 =    1.22390      2 =    1.23770      3 =    1.24081
-------------------------------------------------------------------------------


  Time to end of optimisation =       8.8660 seconds


  Peak dynamic memory used =       5.01 MB 


  Timing analysis for GULP :

--------------------------------------------------------------------------------
  Task / Subroutine                                          Time (Seconds)
--------------------------------------------------------------------------------
  Calculation of reciprocal space energy and derivatives          0.6213
  Calculation of real space energy and derivatives                6.0266
  Calculation of three-body energy and derivatives                0.0278
  Calculation and manipulation of Hessian matrix                  2.9659
  Calculation of matrix inversion                                 0.0150
--------------------------------------------------------------------------------
  Total CPU time                                                  8.8661
--------------------------------------------------------------------------------


  Dump file written as c00004.vasp.grs
  CIF file written as c00004.vasp.cif


  Job Finished at 11:15.27 22nd October    2025                               

