|===============================================================================
|
|  DFTB+ release 24.1
|
|  Copyright (C) 2006 - 2024  DFTB+ developers group
|
|===============================================================================
|
|  When publishing results obtained with DFTB+, please cite the following
|  reference:
|
|  * DFTB+, a software package for efficient approximate density functional
|    theory based atomistic simulations, J. Chem. Phys. 152, 124101 (2020).
|    [doi: 10.1063/1.5143190]
|
|  You should also cite additional publications crediting the parametrization
|  data you use. Please consult the documentation of the SK-files for the
|  references.
|
|===============================================================================

Reading input file 'dftb_in.hsd'
Parser version: 14

--------------------------------------------------------------------------------
Reading SK-files:
./SKFiles/Ge-Ge.skf
./SKFiles/Ge-Si.skf
./SKFiles/Ge-O.skf
./SKFiles/Si-Si.skf
./SKFiles/Si-O.skf
./SKFiles/O-O.skf
Done.


Processed input in HSD format written to 'dftb_pin.hsd'

Starting initialization...
--------------------------------------------------------------------------------
WARNING!
-> Dipole printed for extended system : value printed is not well defined
MPI processes:               1
OpenMP threads:              8
BLACS orbital grid size:     1 x 1
BLACS atom grid size:        1 x 1
Chosen random seed:          167965691
Current stacksize:           unlimited
Mode:                        Static calculation
Self consistent charges:     Yes
SCC-tolerance:                 0.100000E-07
Max. scc iterations:                    500
Shell resolved Hubbard:      No
Spin polarisation:           No
Nr. of up electrons:           192.000000
Nr. of down electrons:         192.000000
Periodic boundaries:         Yes
Electronic solver:           Relatively robust
Mixer:                       Broyden mixer
Mixing parameter:                  0.200000
Maximal SCC-cycles:                     500
Nr. of chrg. vec. in memory:            500
Electronic temperature:              0.100000E-07 H      0.272114E-06 eV
Initial charges:             Set automatically (system chrg:   0.000E+00)
Included shells:            Ge:  s, p, d
                            Si:  s, p, d
                             O:  s, p
K-points and weights:           1:  0.500000  0.500000  0.500000     1.000000

K-points in absolute space:     1:  0.025319  0.017606  0.037774

Extra options:
                             Mulliken analysis
Force type                   original

--------------------------------------------------------------------------------

***  Geometry step: 0

 iSCC Total electronic   Diff electronic      SCC error    
    1    0.00000000E+00    0.00000000E+00    0.14541876E+01
    2   -0.19505160E+03   -0.19505160E+03    0.99414800E+00
    3   -0.19541620E+03   -0.36460235E+00    0.57899607E-01
    4   -0.19572901E+03   -0.31280376E+00    0.29843179E-01
    5   -0.19573116E+03   -0.21488996E-02    0.71669816E-02
    6   -0.19573132E+03   -0.16681891E-03    0.16694533E-02
    7   -0.19573133E+03   -0.61769410E-05    0.49020638E-03
    8   -0.19573133E+03   -0.11274562E-05    0.39956327E-04
    9   -0.19573133E+03   -0.87800402E-07    0.35611824E-04
   10   -0.19573133E+03   -0.79580786E-11    0.16743098E-05
   11   -0.19573133E+03   -0.37678660E-09    0.35881506E-06
   12   -0.19573133E+03   -0.54853899E-11    0.15677822E-06
   13   -0.19573133E+03    0.28421709E-13    0.17669220E-07
   14   -0.19573133E+03   -0.11368684E-12    0.96814379E-09

Total Energy:                     -191.7326179023 H        -5217.3100 eV
Extrapolated to 0K:               -191.7326179023 H        -5217.3100 eV
Total Mermin free energy:         -191.7326179023 H        -5217.3100 eV
Force related energy:             -191.7326179023 H        -5217.3100 eV

Volume:                              0.913789E+04 au^3   0.135410E+04 A^3
Pressure:                            0.893885E-03 au     0.262990E+11 Pa
>> Charges saved for restart in charges.bin

total energy  -1.9173262E+02 H       energy change -1.9173262E+02 H
gradient norm  1.0251586E+00 H/a0    max. gradient  3.8932234E-01 H/a0
step length    0.0000000E+00 a0      max. step      0.0000000E+00 a0

--------------------------------------------------------------------------------

***  Geometry step: 1

 iSCC Total electronic   Diff electronic      SCC error    
    1   -0.19573133E+03    0.00000000E+00    0.83508036E-01
    2   -0.19542225E+03    0.30908190E+00    0.43631767E-01
    3   -0.19542691E+03   -0.46595658E-02    0.11026360E-01
    4   -0.19542800E+03   -0.10919601E-02    0.11255734E-02
    5   -0.19542802E+03   -0.22166589E-04    0.27743959E-03
    6   -0.19542802E+03   -0.89411810E-06    0.90779253E-04
    7   -0.19542802E+03   -0.29264811E-07    0.12565853E-04
    8   -0.19542802E+03   -0.28912552E-08    0.20748256E-05
    9   -0.19542802E+03   -0.21771029E-09    0.57409170E-06
   10   -0.19542802E+03   -0.30127012E-11    0.15453144E-06
   11   -0.19542802E+03   -0.28421709E-13    0.34028990E-07
   12   -0.19542802E+03   -0.56843419E-13    0.74497679E-08

Total Energy:                     -192.0512880820 H        -5225.9814 eV
Extrapolated to 0K:               -192.0512880820 H        -5225.9814 eV
Total Mermin free energy:         -192.0512880820 H        -5225.9814 eV
Force related energy:             -192.0512880820 H        -5225.9814 eV

Volume:                              0.937321E+04 au^3   0.138897E+04 A^3
Pressure:                            0.601118E-03 au     0.176855E+11 Pa
>> Charges saved for restart in charges.bin

total energy  -1.9205129E+02 H       energy change -3.1867018E-01 H
gradient norm  5.2742372E-01 H/a0    max. gradient  1.2096787E-01 H/a0
step length    6.2487112E-01 a0      max. step      2.3730601E-01 a0

--------------------------------------------------------------------------------

***  Geometry step: 2

 iSCC Total electronic   Diff electronic      SCC error    
    1   -0.19542802E+03    0.00000000E+00    0.56891910E-01
    2   -0.19529334E+03    0.13468558E+00    0.33000391E-01
    3   -0.19529655E+03   -0.32162365E-02    0.73598591E-02
    4   -0.19529734E+03   -0.79090191E-03    0.86836631E-03
    5   -0.19529735E+03   -0.98199502E-05    0.27385278E-03
    6   -0.19529735E+03   -0.54878200E-06    0.82079836E-04
    7   -0.19529735E+03   -0.24502981E-07    0.12880715E-04
    8   -0.19529735E+03   -0.19290383E-08    0.18491425E-05
    9   -0.19529735E+03   -0.15293722E-09    0.74445732E-06
   10   -0.19529735E+03   -0.21316282E-11    0.27224081E-06
   11   -0.19529735E+03   -0.22737368E-12    0.30224667E-07
   12   -0.19529735E+03    0.56843419E-13    0.44273030E-08

Total Energy:                     -192.2174819173 H        -5230.5038 eV
Extrapolated to 0K:               -192.2174819173 H        -5230.5038 eV
Total Mermin free energy:         -192.2174819173 H        -5230.5038 eV
Force related energy:             -192.2174819173 H        -5230.5038 eV

Volume:                              0.939789E+04 au^3   0.139262E+04 A^3
Pressure:                            0.483726E-03 au     0.142317E+11 Pa
>> Charges saved for restart in charges.bin

total energy  -1.9221748E+02 H       energy change -1.6619384E-01 H
gradient norm  3.3455307E-01 H/a0    max. gradient  1.2621081E-01 H/a0
step length    4.9692366E-01 a0      max. step      1.1825866E-01 a0

--------------------------------------------------------------------------------

***  Geometry step: 3

 iSCC Total electronic   Diff electronic      SCC error    
    1   -0.19529735E+03    0.00000000E+00    0.64347861E-01
    2   -0.19498894E+03    0.30841068E+00    0.36594385E-01
    3   -0.19499171E+03   -0.27628611E-02    0.60603980E-02
    4   -0.19499247E+03   -0.76190866E-03    0.78295594E-03
    5   -0.19499248E+03   -0.89305848E-05    0.18655015E-03
    6   -0.19499248E+03   -0.44013552E-06    0.71243606E-04
    7   -0.19499248E+03   -0.12995116E-07    0.14468918E-04
    8   -0.19499248E+03   -0.12778685E-08    0.18721884E-05
    9   -0.19499248E+03   -0.99930730E-10    0.55709104E-06
   10   -0.19499248E+03   -0.17905677E-11    0.11222200E-06
   11   -0.19499248E+03   -0.28421709E-13    0.23300756E-07
   12   -0.19499248E+03    0.28421709E-13    0.53565992E-08

Total Energy:                     -192.3258392351 H        -5233.4524 eV
Extrapolated to 0K:               -192.3258392351 H        -5233.4524 eV
Total Mermin free energy:         -192.3258392351 H        -5233.4524 eV
Force related energy:             -192.3258392351 H        -5233.4524 eV

Volume:                              0.956359E+04 au^3   0.141718E+04 A^3
Pressure:                            0.310052E-03 au     0.912203E+10 Pa
>> Charges saved for restart in charges.bin

total energy  -1.9232584E+02 H       energy change -1.0835732E-01 H
gradient norm  2.4274020E-01 H/a0    max. gradient  9.8818232E-02 H/a0
step length    5.6873104E-01 a0      max. step      1.5505291E-01 a0

--------------------------------------------------------------------------------

***  Geometry step: 4

 iSCC Total electronic   Diff electronic      SCC error    
    1   -0.19499248E+03    0.00000000E+00    0.58491039E-01
    2   -0.19476667E+03    0.22581238E+00    0.26593178E-01
    3   -0.19476823E+03   -0.15687657E-02    0.52477271E-02
    4   -0.19476859E+03   -0.35865860E-03    0.72764956E-03
    5   -0.19476860E+03   -0.74728390E-05    0.18654427E-03
    6   -0.19476860E+03   -0.44773202E-06    0.88378183E-04
    7   -0.19476860E+03   -0.96826227E-08    0.10537289E-04
    8   -0.19476860E+03   -0.17820128E-08    0.24666537E-05
    9   -0.19476860E+03   -0.11903012E-09    0.52536203E-06
   10   -0.19476860E+03   -0.15916157E-11    0.13602585E-06
   11   -0.19476860E+03   -0.56843419E-13    0.35790861E-07
   12   -0.19476860E+03   -0.28421709E-13    0.76882607E-08

Total Energy:                     -192.3777809600 H        -5234.8658 eV
Extrapolated to 0K:               -192.3777809600 H        -5234.8658 eV
Total Mermin free energy:         -192.3777809600 H        -5234.8658 eV
Force related energy:             -192.3777809600 H        -5234.8658 eV

Volume:                              0.965686E+04 au^3   0.143100E+04 A^3
Pressure:                            0.199066E-03 au     0.585672E+10 Pa
>> Charges saved for restart in charges.bin

total energy  -1.9237778E+02 H       energy change -5.1941725E-02 H
gradient norm  2.2254443E-01 H/a0    max. gradient  1.1443107E-01 H/a0
step length    4.9058188E-01 a0      max. step      1.0216440E-01 a0

--------------------------------------------------------------------------------

***  Geometry step: 5

 iSCC Total electronic   Diff electronic      SCC error    
    1   -0.19476860E+03    0.00000000E+00    0.24962749E-01
    2   -0.19459502E+03    0.17357625E+00    0.14418706E-01
    3   -0.19459575E+03   -0.72948130E-03    0.30951294E-02
    4   -0.19459592E+03   -0.16691919E-03    0.62528948E-03
    5   -0.19459592E+03   -0.40536456E-05    0.13390903E-03
    6   -0.19459593E+03   -0.28077153E-06    0.56228758E-04
    7   -0.19459593E+03   -0.55674718E-08    0.84944415E-05
    8   -0.19459593E+03   -0.76821038E-09    0.23866678E-05
    9   -0.19459593E+03   -0.58577143E-10    0.46532128E-06
   10   -0.19459593E+03   -0.13358203E-11    0.73931019E-07
   11   -0.19459593E+03    0.56843419E-13    0.19420730E-07
   12   -0.19459593E+03   -0.56843419E-13    0.64596182E-08

Total Energy:                     -192.4090722112 H        -5235.7172 eV
Extrapolated to 0K:               -192.4090722112 H        -5235.7172 eV
Total Mermin free energy:         -192.4090722112 H        -5235.7172 eV
Force related energy:             -192.4090722112 H        -5235.7172 eV

Volume:                              0.973436E+04 au^3   0.144248E+04 A^3
Pressure:                            0.120607E-03 au     0.354838E+10 Pa
>> Charges saved for restart in charges.bin

total energy  -1.9240907E+02 H       energy change -3.1291251E-02 H
gradient norm  1.1826007E-01 H/a0    max. gradient  2.6543224E-02 H/a0
step length    3.7174119E-01 a0      max. step      8.4071465E-02 a0

--------------------------------------------------------------------------------

***  Geometry step: 6

 iSCC Total electronic   Diff electronic      SCC error    
    1   -0.19459593E+03    0.00000000E+00    0.13450078E-01
    2   -0.19449297E+03    0.10295206E+00    0.82578384E-02
    3   -0.19449325E+03   -0.27227180E-03    0.23781381E-02
    4   -0.19449331E+03   -0.64365779E-04    0.36727172E-03
    5   -0.19449331E+03   -0.85865898E-06    0.44373631E-04
    6   -0.19449331E+03   -0.92789918E-07    0.21452321E-04
    7   -0.19449331E+03   -0.13644694E-08    0.52965617E-05
    8   -0.19449331E+03   -0.11374368E-09    0.98733768E-06
    9   -0.19449331E+03   -0.65654149E-11    0.21464705E-06
   10   -0.19449331E+03   -0.22737368E-12    0.24182489E-07
   11   -0.19449331E+03   -0.28421709E-13    0.53106644E-08

Total Energy:                     -192.4259461287 H        -5236.1764 eV
Extrapolated to 0K:               -192.4259461287 H        -5236.1764 eV
Total Mermin free energy:         -192.4259461287 H        -5236.1764 eV
Force related energy:             -192.4259461287 H        -5236.1764 eV

Volume:                              0.978056E+04 au^3   0.144933E+04 A^3
Pressure:                            0.723652E-04 au     0.212906E+10 Pa
>> Charges saved for restart in charges.bin

total energy  -1.9242595E+02 H       energy change -1.6873917E-02 H
gradient norm  9.1990930E-02 H/a0    max. gradient  2.4506946E-02 H/a0
step length    2.8837485E-01 a0      max. step      5.6998548E-02 a0

--------------------------------------------------------------------------------

***  Geometry step: 7

 iSCC Total electronic   Diff electronic      SCC error    
    1   -0.19449331E+03    0.00000000E+00    0.22506677E-01
    2   -0.19441365E+03    0.79658991E-01    0.13327933E-01
    3   -0.19441393E+03   -0.28123069E-03    0.30799397E-02
    4   -0.19441400E+03   -0.65568435E-04    0.42277283E-03
    5   -0.19441400E+03   -0.12120248E-05    0.11579635E-03
    6   -0.19441400E+03   -0.83308834E-07    0.40027329E-04
    7   -0.19441400E+03   -0.15669173E-08    0.53087378E-05
    8   -0.19441400E+03   -0.15319301E-09    0.10864209E-05
    9   -0.19441400E+03   -0.17138291E-10    0.28956937E-06
   10   -0.19441400E+03   -0.31263880E-12    0.28659805E-07
   11   -0.19441400E+03    0.56843419E-13    0.56605152E-08

Total Energy:                     -192.4376827261 H        -5236.4958 eV
Extrapolated to 0K:               -192.4376827261 H        -5236.4958 eV
Total Mermin free energy:         -192.4376827261 H        -5236.4958 eV
Force related energy:             -192.4376827261 H        -5236.4958 eV

Volume:                              0.982846E+04 au^3   0.145643E+04 A^3
Pressure:                            0.361334E-04 au     0.106308E+10 Pa
>> Charges saved for restart in charges.bin

total energy  -1.9243768E+02 H       energy change -1.1736597E-02 H
gradient norm  8.2299328E-02 H/a0    max. gradient  3.5079761E-02 H/a0
step length    2.9937815E-01 a0      max. step      6.6522452E-02 a0

--------------------------------------------------------------------------------

***  Geometry step: 8

 iSCC Total electronic   Diff electronic      SCC error    
    1   -0.19441400E+03    0.00000000E+00    0.19612859E-01
    2   -0.19442710E+03   -0.13096150E-01    0.11038017E-01
    3   -0.19442732E+03   -0.22292420E-03    0.22246263E-02
    4   -0.19442737E+03   -0.49450730E-04    0.46488800E-03
    5   -0.19442737E+03   -0.12200102E-05    0.87755918E-04
    6   -0.19442737E+03   -0.81938452E-07    0.30640647E-04
    7   -0.19442737E+03   -0.17051889E-08    0.50889251E-05
    8   -0.19442737E+03   -0.97031716E-10    0.61323327E-06
    9   -0.19442737E+03   -0.13073986E-10    0.17894594E-06
   10   -0.19442737E+03   -0.34106051E-12    0.29477225E-07
   11   -0.19442737E+03    0.28421709E-13    0.62570336E-08

Total Energy:                     -192.4437515223 H        -5236.6609 eV
Extrapolated to 0K:               -192.4437515223 H        -5236.6609 eV
Total Mermin free energy:         -192.4437515223 H        -5236.6609 eV
Force related energy:             -192.4437515223 H        -5236.6609 eV

Volume:                              0.981179E+04 au^3   0.145396E+04 A^3
Pressure:                            0.393703E-04 au     0.115831E+10 Pa
>> Charges saved for restart in charges.bin

total energy  -1.9244375E+02 H       energy change -6.0687962E-03 H
gradient norm  6.3358831E-02 H/a0    max. gradient  1.5887784E-02 H/a0
step length    2.0750482E-01 a0      max. step      3.7659462E-02 a0

--------------------------------------------------------------------------------

***  Geometry step: 9

 iSCC Total electronic   Diff electronic      SCC error    
    1   -0.19442737E+03    0.00000000E+00    0.11077305E-01
    2   -0.19444068E+03   -0.13310845E-01    0.63336967E-02
    3   -0.19444075E+03   -0.72991198E-04    0.98792154E-03
    4   -0.19444077E+03   -0.17875734E-04    0.17326056E-03
    5   -0.19444077E+03   -0.67397769E-06    0.43962691E-04
    6   -0.19444077E+03   -0.25395451E-07    0.11787599E-04
    7   -0.19444077E+03   -0.72034823E-09    0.22430452E-05
    8   -0.19444077E+03   -0.56303406E-10    0.61272392E-06
    9   -0.19444077E+03   -0.36948222E-11    0.15009484E-06
   10   -0.19444077E+03   -0.25579538E-12    0.14660318E-07
   11   -0.19444077E+03   -0.56843419E-13    0.26469840E-08

Total Energy:                     -192.4474366923 H        -5236.7612 eV
Extrapolated to 0K:               -192.4474366923 H        -5236.7612 eV
Total Mermin free energy:         -192.4474366923 H        -5236.7612 eV
Force related energy:             -192.4474366923 H        -5236.7612 eV

Volume:                              0.980794E+04 au^3   0.145339E+04 A^3
Pressure:                            0.422031E-04 au     0.124166E+10 Pa
>> Charges saved for restart in charges.bin

total energy  -1.9244744E+02 H       energy change -3.6851700E-03 H
gradient norm  4.6754466E-02 H/a0    max. gradient  8.3257462E-03 H/a0
step length    1.3300270E-01 a0      max. step      2.4575707E-02 a0

--------------------------------------------------------------------------------

***  Geometry step: 10

 iSCC Total electronic   Diff electronic      SCC error    
    1   -0.19444077E+03    0.00000000E+00    0.12793935E-01
    2   -0.19445740E+03   -0.16630363E-01    0.53757935E-02
    3   -0.19445751E+03   -0.11180893E-03    0.16675495E-02
    4   -0.19445754E+03   -0.24772131E-04    0.23314433E-03
    5   -0.19445754E+03   -0.96727263E-06    0.52142217E-04
    6   -0.19445754E+03   -0.53716946E-07    0.18668138E-04
    7   -0.19445754E+03   -0.87908347E-09    0.34181377E-05
    8   -0.19445754E+03   -0.91489483E-10    0.64446040E-06
    9   -0.19445754E+03   -0.42916781E-11    0.15566435E-06
   10   -0.19445754E+03   -0.28421709E-12    0.16575397E-07
   11   -0.19445754E+03   -0.56843419E-13    0.37249048E-08

Total Energy:                     -192.4513261584 H        -5236.8670 eV
Extrapolated to 0K:               -192.4513261584 H        -5236.8670 eV
Total Mermin free energy:         -192.4513261584 H        -5236.8670 eV
Force related energy:             -192.4513261584 H        -5236.8670 eV

Volume:                              0.980667E+04 au^3   0.145320E+04 A^3
Pressure:                            0.451073E-04 au     0.132710E+10 Pa
>> Charges saved for restart in charges.bin

total energy  -1.9245133E+02 H       energy change -3.8894661E-03 H
gradient norm  4.3055842E-02 H/a0    max. gradient  1.0608483E-02 H/a0
step length    1.6671110E-01 a0      max. step      3.4252336E-02 a0

--------------------------------------------------------------------------------

***  Geometry step: 11

 iSCC Total electronic   Diff electronic      SCC error    
    1   -0.19445754E+03    0.00000000E+00    0.10859569E-01
    2   -0.19446103E+03   -0.34912425E-02    0.61512953E-02
    3   -0.19446112E+03   -0.86468567E-04    0.17372261E-02
    4   -0.19446114E+03   -0.19706041E-04    0.25029796E-03
    5   -0.19446114E+03   -0.69182670E-06    0.25183357E-04
    6   -0.19446114E+03   -0.45384468E-07    0.11099594E-04
    7   -0.19446114E+03   -0.23567281E-09    0.23371626E-05
    8   -0.19446114E+03   -0.25607960E-10    0.35196501E-06
    9   -0.19446114E+03   -0.15347723E-11    0.99922007E-07
   10   -0.19446114E+03    0.28421709E-13    0.14553400E-07
   11   -0.19446114E+03   -0.56843419E-13    0.30392786E-08

Total Energy:                     -192.4545786564 H        -5236.9555 eV
Extrapolated to 0K:               -192.4545786564 H        -5236.9555 eV
Total Mermin free energy:         -192.4545786564 H        -5236.9555 eV
Force related energy:             -192.4545786564 H        -5236.9555 eV

Volume:                              0.981387E+04 au^3   0.145427E+04 A^3
Pressure:                            0.426631E-04 au     0.125519E+10 Pa
>> Charges saved for restart in charges.bin

total energy  -1.9245458E+02 H       energy change -3.2524980E-03 H
gradient norm  4.4463640E-02 H/a0    max. gradient  1.6571878E-02 H/a0
step length    1.7647759E-01 a0      max. step      3.7217300E-02 a0

--------------------------------------------------------------------------------

***  Geometry step: 12

 iSCC Total electronic   Diff electronic      SCC error    
    1   -0.19446114E+03    0.00000000E+00    0.77703643E-02
    2   -0.19444880E+03    0.12335627E-01    0.48956820E-02
    3   -0.19444884E+03   -0.36029565E-04    0.12624168E-02
    4   -0.19444885E+03   -0.81923963E-05    0.17626596E-03
    5   -0.19444885E+03   -0.41784202E-06    0.36591366E-04
    6   -0.19444885E+03   -0.21356442E-07    0.13381807E-04
    7   -0.19444885E+03   -0.13764634E-09    0.15179820E-05
    8   -0.19444885E+03   -0.15489832E-10    0.27088334E-06
    9   -0.19444885E+03   -0.13642421E-11    0.69003399E-07
   10   -0.19444885E+03    0.00000000E+00    0.77745108E-08

Total Energy:                     -192.4570893576 H        -5237.0239 eV
Extrapolated to 0K:               -192.4570893576 H        -5237.0239 eV
Total Mermin free energy:         -192.4570893576 H        -5237.0239 eV
Force related energy:             -192.4570893576 H        -5237.0239 eV

Volume:                              0.983290E+04 au^3   0.145709E+04 A^3
Pressure:                            0.341935E-04 au     0.100601E+10 Pa
>> Charges saved for restart in charges.bin

total energy  -1.9245709E+02 H       energy change -2.5107013E-03 H
gradient norm  3.6916773E-02 H/a0    max. gradient  1.1475935E-02 H/a0
step length    1.7512870E-01 a0      max. step      3.6814410E-02 a0

--------------------------------------------------------------------------------

***  Geometry step: 13

 iSCC Total electronic   Diff electronic      SCC error    
    1   -0.19444885E+03    0.00000000E+00    0.47027895E-02
    2   -0.19443301E+03    0.15835753E-01    0.29691648E-02
    3   -0.19443303E+03   -0.14219964E-04    0.81292153E-03
    4   -0.19443303E+03   -0.29614138E-05    0.76097802E-04
    5   -0.19443303E+03   -0.17390826E-06    0.30426534E-04
    6   -0.19443303E+03   -0.67932433E-08    0.92015227E-05
    7   -0.19443303E+03   -0.15413093E-09    0.15836206E-05
    8   -0.19443303E+03   -0.70201622E-11    0.21370853E-06
    9   -0.19443303E+03   -0.76738615E-12    0.55283454E-07
   10   -0.19443303E+03   -0.56843419E-13    0.59609522E-08

Total Energy:                     -192.4589007870 H        -5237.0731 eV
Extrapolated to 0K:               -192.4589007870 H        -5237.0731 eV
Total Mermin free energy:         -192.4589007870 H        -5237.0731 eV
Force related energy:             -192.4589007870 H        -5237.0731 eV

Volume:                              0.985612E+04 au^3   0.146053E+04 A^3
Pressure:                            0.255337E-04 au     0.751226E+09 Pa
>> Charges saved for restart in charges.bin

total energy  -1.9245890E+02 H       energy change -1.8114294E-03 H
gradient norm  2.9280885E-02 H/a0    max. gradient  5.6649235E-03 H/a0
step length    1.4440534E-01 a0      max. step      3.1993794E-02 a0

--------------------------------------------------------------------------------

***  Geometry step: 14

 iSCC Total electronic   Diff electronic      SCC error    
    1   -0.19443303E+03    0.00000000E+00    0.67178299E-02
    2   -0.19441853E+03    0.14503594E-01    0.29062478E-02
    3   -0.19441855E+03   -0.25376865E-04    0.67102312E-03
    4   -0.19441856E+03   -0.51871043E-05    0.89978310E-04
    5   -0.19441856E+03   -0.10148199E-06    0.30753397E-04
    6   -0.19441856E+03   -0.97924158E-08    0.96005295E-05
    7   -0.19441856E+03   -0.20608582E-09    0.22940282E-05
    8   -0.19441856E+03   -0.57127636E-11    0.26253119E-06
    9   -0.19441856E+03   -0.12221335E-11    0.69010571E-07
   10   -0.19441856E+03   -0.85265128E-13    0.66617556E-08

Total Energy:                     -192.4603866456 H        -5237.1136 eV
Extrapolated to 0K:               -192.4603866456 H        -5237.1136 eV
Total Mermin free energy:         -192.4603866456 H        -5237.1136 eV
Force related energy:             -192.4603866456 H        -5237.1136 eV

Volume:                              0.988166E+04 au^3   0.146431E+04 A^3
Pressure:                            0.176600E-04 au     0.519574E+09 Pa
>> Charges saved for restart in charges.bin

total energy  -1.9246039E+02 H       energy change -1.4858586E-03 H
gradient norm  2.7061540E-02 H/a0    max. gradient  6.2243745E-03 H/a0
step length    1.3250060E-01 a0      max. step      3.0496412E-02 a0

--------------------------------------------------------------------------------

***  Geometry step: 15

 iSCC Total electronic   Diff electronic      SCC error    
    1   -0.19441856E+03    0.00000000E+00    0.74585460E-02
    2   -0.19441368E+03    0.48713209E-02    0.40840245E-02
    3   -0.19441371E+03   -0.28049381E-04    0.78646836E-03
    4   -0.19441372E+03   -0.61669052E-05    0.12846282E-03
    5   -0.19441372E+03   -0.11639332E-06    0.30725600E-04
    6   -0.19441372E+03   -0.10487753E-07    0.83674791E-05
    7   -0.19441372E+03   -0.23064217E-09    0.15515071E-05
    8   -0.19441372E+03   -0.87538865E-11    0.30125365E-06
    9   -0.19441372E+03   -0.21032065E-11    0.88056447E-07
   10   -0.19441372E+03   -0.11368684E-12    0.73894748E-08

Total Energy:                     -192.4616142488 H        -5237.1470 eV
Extrapolated to 0K:               -192.4616142488 H        -5237.1470 eV
Total Mermin free energy:         -192.4616142488 H        -5237.1470 eV
Force related energy:             -192.4616142488 H        -5237.1470 eV

Volume:                              0.990262E+04 au^3   0.146742E+04 A^3
Pressure:                            0.144442E-04 au     0.424962E+09 Pa
>> Charges saved for restart in charges.bin

total energy  -1.9246161E+02 H       energy change -1.2276032E-03 H
gradient norm  2.5352609E-02 H/a0    max. gradient  6.3097309E-03 H/a0
step length    1.2223837E-01 a0      max. step      2.6946922E-02 a0

--------------------------------------------------------------------------------

***  Geometry step: 16

 iSCC Total electronic   Diff electronic      SCC error    
    1   -0.19441372E+03    0.00000000E+00    0.76080239E-02
    2   -0.19441509E+03   -0.13754614E-02    0.42194331E-02
    3   -0.19441512E+03   -0.21630080E-04    0.71611872E-03
    4   -0.19441512E+03   -0.49997377E-05    0.98939803E-04
    5   -0.19441512E+03   -0.12740219E-06    0.27949671E-04
    6   -0.19441512E+03   -0.90117567E-08    0.73295818E-05
    7   -0.19441512E+03   -0.19835511E-09    0.16891558E-05
    8   -0.19441512E+03   -0.11027623E-10    0.32068677E-06
    9   -0.19441512E+03   -0.20747848E-11    0.84821630E-07
   10   -0.19441512E+03   -0.11368684E-12    0.81833127E-08

Total Energy:                     -192.4625888547 H        -5237.1735 eV
Extrapolated to 0K:               -192.4625888547 H        -5237.1735 eV
Total Mermin free energy:         -192.4625888547 H        -5237.1735 eV
Force related energy:             -192.4625888547 H        -5237.1735 eV

Volume:                              0.992051E+04 au^3   0.147007E+04 A^3
Pressure:                            0.142824E-04 au     0.420201E+09 Pa
>> Charges saved for restart in charges.bin

total energy  -1.9246259E+02 H       energy change -9.7460592E-04 H
gradient norm  2.3217604E-02 H/a0    max. gradient  3.9579208E-03 H/a0
step length    1.1699471E-01 a0      max. step      2.3507448E-02 a0

--------------------------------------------------------------------------------

***  Geometry step: 17

 iSCC Total electronic   Diff electronic      SCC error    
    1   -0.19441512E+03    0.00000000E+00    0.44394174E-02
    2   -0.19441749E+03   -0.23711593E-02    0.25323850E-02
    3   -0.19441750E+03   -0.10797191E-04    0.52019789E-03
    4   -0.19441751E+03   -0.23158552E-05    0.90845247E-04
    5   -0.19441751E+03   -0.69570234E-07    0.21935678E-04
    6   -0.19441751E+03   -0.46356661E-08    0.46926781E-05
    7   -0.19441751E+03   -0.12548185E-09    0.12547794E-05
    8   -0.19441751E+03   -0.55706550E-11    0.24087513E-06
    9   -0.19441751E+03   -0.99475983E-12    0.56151889E-07
   10   -0.19441751E+03   -0.11368684E-12    0.67002643E-08

Total Energy:                     -192.4633699745 H        -5237.1948 eV
Extrapolated to 0K:               -192.4633699745 H        -5237.1948 eV
Total Mermin free energy:         -192.4633699745 H        -5237.1948 eV
Force related energy:             -192.4633699745 H        -5237.1948 eV

Volume:                              0.993406E+04 au^3   0.147208E+04 A^3
Pressure:                            0.145268E-04 au     0.427393E+09 Pa
>> Charges saved for restart in charges.bin

total energy  -1.9246337E+02 H       energy change -7.8111979E-04 H
gradient norm  2.0955266E-02 H/a0    max. gradient  4.0474863E-03 H/a0
step length    9.7460786E-02 a0      max. step      1.7354128E-02 a0

--------------------------------------------------------------------------------

***  Geometry step: 18

 iSCC Total electronic   Diff electronic      SCC error    
    1   -0.19441751E+03    0.00000000E+00    0.40715611E-02
    2   -0.19442005E+03   -0.25424088E-02    0.19341235E-02
    3   -0.19442007E+03   -0.17874376E-04    0.69877934E-03
    4   -0.19442007E+03   -0.34843716E-05    0.10681857E-03
    5   -0.19442007E+03   -0.74112506E-07    0.23833328E-04
    6   -0.19442007E+03   -0.73488877E-08    0.70300335E-05
    7   -0.19442007E+03   -0.16132162E-09    0.14816748E-05
    8   -0.19442007E+03   -0.59969807E-11    0.25514984E-06
    9   -0.19442007E+03   -0.82422957E-12    0.50779805E-07
   10   -0.19442007E+03    0.00000000E+00    0.82369715E-08

Total Energy:                     -192.4643027982 H        -5237.2201 eV
Extrapolated to 0K:               -192.4643027982 H        -5237.2201 eV
Total Mermin free energy:         -192.4643027982 H        -5237.2201 eV
Force related energy:             -192.4643027982 H        -5237.2201 eV

Volume:                              0.995062E+04 au^3   0.147453E+04 A^3
Pressure:                            0.142089E-04 au     0.418039E+09 Pa
>> Charges saved for restart in charges.bin

total energy  -1.9246430E+02 H       energy change -9.3282372E-04 H
gradient norm  2.1534657E-02 H/a0    max. gradient  4.8268521E-03 H/a0
step length    1.2687125E-01 a0      max. step      2.0284057E-02 a0

--------------------------------------------------------------------------------

***  Geometry step: 19

 iSCC Total electronic   Diff electronic      SCC error    
    1   -0.19442007E+03    0.00000000E+00    0.40169197E-02
    2   -0.19442046E+03   -0.38616515E-03    0.17301886E-02
    3   -0.19442047E+03   -0.17490135E-04    0.56923727E-03
    4   -0.19442048E+03   -0.33725520E-05    0.86110607E-04
    5   -0.19442048E+03   -0.61315006E-07    0.15459620E-04
    6   -0.19442048E+03   -0.70847932E-08    0.51636009E-05
    7   -0.19442048E+03   -0.85407237E-10    0.12243712E-05
    8   -0.19442048E+03   -0.28137492E-11    0.19113890E-06
    9   -0.19442048E+03   -0.68212103E-12    0.57252423E-07
   10   -0.19442048E+03    0.85265128E-13    0.58381726E-08

Total Energy:                     -192.4650849698 H        -5237.2414 eV
Extrapolated to 0K:               -192.4650849698 H        -5237.2414 eV
Total Mermin free energy:         -192.4650849698 H        -5237.2414 eV
Force related energy:             -192.4650849698 H        -5237.2414 eV

Volume:                              0.996673E+04 au^3   0.147692E+04 A^3
Pressure:                            0.127196E-04 au     0.374225E+09 Pa
>> Charges saved for restart in charges.bin

total energy  -1.9246508E+02 H       energy change -7.8217159E-04 H
gradient norm  2.2603281E-02 H/a0    max. gradient  4.8477897E-03 H/a0
step length    1.2302800E-01 a0      max. step      2.2713320E-02 a0

--------------------------------------------------------------------------------

***  Geometry step: 20

 iSCC Total electronic   Diff electronic      SCC error    
    1   -0.19442048E+03    0.00000000E+00    0.40739605E-02
    2   -0.19441817E+03    0.23046978E-02    0.23441556E-02
    3   -0.19441818E+03   -0.11265123E-04    0.53076004E-03
    4   -0.19441819E+03   -0.24764062E-05    0.10119953E-03
    5   -0.19441819E+03   -0.83021035E-07    0.23215222E-04
    6   -0.19441819E+03   -0.57490865E-08    0.45648424E-05
    7   -0.19441819E+03   -0.89443120E-10    0.10858467E-05
    8   -0.19441819E+03   -0.57696070E-11    0.32341056E-06
    9   -0.19441819E+03   -0.82422957E-12    0.45948661E-07
   10   -0.19441819E+03   -0.28421709E-13    0.53252265E-08

Total Energy:                     -192.4657604415 H        -5237.2598 eV
Extrapolated to 0K:               -192.4657604415 H        -5237.2598 eV
Total Mermin free energy:         -192.4657604415 H        -5237.2598 eV
Force related energy:             -192.4657604415 H        -5237.2598 eV

Volume:                              0.998237E+04 au^3   0.147923E+04 A^3
Pressure:                            0.103497E-04 au     0.304498E+09 Pa
>> Charges saved for restart in charges.bin

total energy  -1.9246576E+02 H       energy change -6.7547176E-04 H
gradient norm  2.0775134E-02 H/a0    max. gradient  4.5555565E-03 H/a0
step length    1.1174256E-01 a0      max. step      2.1942402E-02 a0

--------------------------------------------------------------------------------

***  Geometry step: 21

 iSCC Total electronic   Diff electronic      SCC error    
    1   -0.19441819E+03    0.00000000E+00    0.46399739E-02
    2   -0.19441353E+03    0.46581444E-02    0.26912225E-02
    3   -0.19441354E+03   -0.95275798E-05    0.55651298E-03
    4   -0.19441354E+03   -0.21785081E-05    0.91161972E-04
    5   -0.19441354E+03   -0.88438924E-07    0.21241510E-04
    6   -0.19441354E+03   -0.40229793E-08    0.41754540E-05
    7   -0.19441354E+03   -0.94416919E-10    0.11235775E-05
    8   -0.19441354E+03   -0.63380412E-11    0.37887548E-06
    9   -0.19441354E+03   -0.73896445E-12    0.48677904E-07
   10   -0.19441354E+03    0.00000000E+00    0.39879082E-08

Total Energy:                     -192.4663099422 H        -5237.2748 eV
Extrapolated to 0K:               -192.4663099422 H        -5237.2748 eV
Total Mermin free energy:         -192.4663099422 H        -5237.2748 eV
Force related energy:             -192.4663099422 H        -5237.2748 eV

Volume:                              0.999823E+04 au^3   0.148159E+04 A^3
Pressure:                            0.689972E-05 au     0.202997E+09 Pa
>> Charges saved for restart in charges.bin

total energy  -1.9246631E+02 H       energy change -5.4950064E-04 H
gradient norm  1.5209794E-02 H/a0    max. gradient  3.5272694E-03 H/a0
step length    1.0144318E-01 a0      max. step      1.9295296E-02 a0

--------------------------------------------------------------------------------

***  Geometry step: 22

 iSCC Total electronic   Diff electronic      SCC error    
    1   -0.19441354E+03    0.00000000E+00    0.28296896E-02
    2   -0.19441161E+03    0.19330712E-02    0.13945109E-02
    3   -0.19441161E+03   -0.79153409E-05    0.44752927E-03
    4   -0.19441162E+03   -0.17412652E-05    0.71345852E-04
    5   -0.19441162E+03   -0.39890580E-07    0.17447225E-04
    6   -0.19441162E+03   -0.22904487E-08    0.35909369E-05
    7   -0.19441162E+03   -0.73669071E-10    0.69419223E-06
    8   -0.19441162E+03   -0.22168933E-11    0.26856934E-06
    9   -0.19441162E+03   -0.34106051E-12    0.40816225E-07
   10   -0.19441162E+03    0.56843419E-13    0.33328140E-08

Total Energy:                     -192.4666209895 H        -5237.2832 eV
Extrapolated to 0K:               -192.4666209895 H        -5237.2832 eV
Total Mermin free energy:         -192.4666209895 H        -5237.2832 eV
Force related energy:             -192.4666209895 H        -5237.2832 eV

Volume:                              0.100084E+05 au^3   0.148309E+04 A^3
Pressure:                            0.497304E-05 au     0.146312E+09 Pa
>> Charges saved for restart in charges.bin

total energy  -1.9246662E+02 H       energy change -3.1104732E-04 H
gradient norm  1.1544889E-02 H/a0    max. gradient  2.4507418E-03 H/a0
step length    6.3673486E-02 a0      max. step      1.2053083E-02 a0

--------------------------------------------------------------------------------

***  Geometry step: 23

 iSCC Total electronic   Diff electronic      SCC error    
    1   -0.19441162E+03    0.00000000E+00    0.22596117E-02
    2   -0.19441304E+03   -0.14226339E-02    0.95453109E-03
    3   -0.19441304E+03   -0.53214611E-05    0.27400812E-03
    4   -0.19441304E+03   -0.12398794E-05    0.51899395E-04
    5   -0.19441304E+03   -0.18817786E-07    0.95890265E-05
    6   -0.19441304E+03   -0.10115571E-08    0.18046976E-05
    7   -0.19441304E+03   -0.61731953E-10    0.32776349E-06
    8   -0.19441304E+03   -0.13358203E-11    0.12235619E-06
    9   -0.19441304E+03   -0.56843419E-13    0.26163043E-07
   10   -0.19441304E+03    0.00000000E+00    0.27023659E-08

Total Energy:                     -192.4668231128 H        -5237.2887 eV
Extrapolated to 0K:               -192.4668231128 H        -5237.2887 eV
Total Mermin free energy:         -192.4668231128 H        -5237.2887 eV
Force related energy:             -192.4668231128 H        -5237.2887 eV

Volume:                              0.100146E+05 au^3   0.148401E+04 A^3
Pressure:                            0.500537E-05 au     0.147263E+09 Pa
>> Charges saved for restart in charges.bin

total energy  -1.9246682E+02 H       energy change -2.0212333E-04 H
gradient norm  1.0953947E-02 H/a0    max. gradient  2.3541550E-03 H/a0
step length    4.5392982E-02 a0      max. step      8.8774987E-03 a0

--------------------------------------------------------------------------------

***  Geometry step: 24

 iSCC Total electronic   Diff electronic      SCC error    
    1   -0.19441304E+03    0.00000000E+00    0.23594755E-02
    2   -0.19441550E+03   -0.24506250E-02    0.13191307E-02
    3   -0.19441550E+03   -0.42703822E-05    0.26711365E-03
    4   -0.19441550E+03   -0.10117213E-05    0.35123824E-04
    5   -0.19441550E+03   -0.16081174E-07    0.10775541E-04
    6   -0.19441550E+03   -0.87601393E-09    0.15148492E-05
    7   -0.19441550E+03   -0.34248160E-10    0.38025500E-06
    8   -0.19441550E+03   -0.85265128E-12    0.93280686E-07
    9   -0.19441550E+03   -0.85265128E-13    0.24154442E-07
   10   -0.19441550E+03   -0.85265128E-13    0.34197756E-08

Total Energy:                     -192.4670101561 H        -5237.2938 eV
Extrapolated to 0K:               -192.4670101561 H        -5237.2938 eV
Total Mermin free energy:         -192.4670101561 H        -5237.2938 eV
Force related energy:             -192.4670101561 H        -5237.2938 eV

Volume:                              0.100212E+05 au^3   0.148499E+04 A^3
Pressure:                            0.552996E-05 au     0.162697E+09 Pa
>> Charges saved for restart in charges.bin

total energy  -1.9246701E+02 H       energy change -1.8704323E-04 H
gradient norm  1.0560385E-02 H/a0    max. gradient  1.9290538E-03 H/a0
step length    4.9047887E-02 a0      max. step      9.4557298E-03 a0

--------------------------------------------------------------------------------

***  Geometry step: 25

 iSCC Total electronic   Diff electronic      SCC error    
    1   -0.19441550E+03    0.00000000E+00    0.20911452E-02
    2   -0.19441715E+03   -0.16511633E-02    0.11620505E-02
    3   -0.19441715E+03   -0.21746714E-05    0.21001448E-03
    4   -0.19441715E+03   -0.52815025E-06    0.29145605E-04
    5   -0.19441715E+03   -0.12556228E-07    0.80182244E-05
    6   -0.19441715E+03   -0.53933036E-09    0.87284338E-06
    7   -0.19441715E+03   -0.17308821E-10    0.30065826E-06
    8   -0.19441715E+03   -0.76738615E-12    0.98673374E-07
    9   -0.19441715E+03    0.00000000E+00    0.22080646E-07
   10   -0.19441715E+03    0.00000000E+00    0.31894638E-08

Total Energy:                     -192.4671735370 H        -5237.2983 eV
Extrapolated to 0K:               -192.4671735370 H        -5237.2983 eV
Total Mermin free energy:         -192.4671735370 H        -5237.2983 eV
Force related energy:             -192.4671735370 H        -5237.2983 eV

Volume:                              0.100283E+05 au^3   0.148604E+04 A^3
Pressure:                            0.595156E-05 au     0.175101E+09 Pa
>> Charges saved for restart in charges.bin

total energy  -1.9246717E+02 H       energy change -1.6338098E-04 H
gradient norm  1.0000101E-02 H/a0    max. gradient  1.9215629E-03 H/a0
step length    4.9297999E-02 a0      max. step      9.4578901E-03 a0

--------------------------------------------------------------------------------

***  Geometry step: 26

 iSCC Total electronic   Diff electronic      SCC error    
    1   -0.19441715E+03    0.00000000E+00    0.16236717E-02
    2   -0.19441695E+03    0.20248357E-03    0.97352411E-03
    3   -0.19441695E+03   -0.25980400E-05    0.26883611E-03
    4   -0.19441696E+03   -0.58883828E-06    0.29674310E-04
    5   -0.19441696E+03   -0.13843788E-07    0.76282901E-05
    6   -0.19441696E+03   -0.58955152E-09    0.12931398E-05
    7   -0.19441696E+03   -0.12448709E-10    0.38606652E-06
    8   -0.19441696E+03   -0.48316906E-12    0.12256937E-06
    9   -0.19441696E+03   -0.85265128E-13    0.21218209E-07
   10   -0.19441696E+03    0.00000000E+00    0.22915252E-08

Total Energy:                     -192.4673557683 H        -5237.3032 eV
Extrapolated to 0K:               -192.4673557683 H        -5237.3032 eV
Total Mermin free energy:         -192.4673557683 H        -5237.3032 eV
Force related energy:             -192.4673557683 H        -5237.3032 eV

Volume:                              0.100380E+05 au^3   0.148748E+04 A^3
Pressure:                            0.547445E-05 au     0.161064E+09 Pa
>> Charges saved for restart in charges.bin

total energy  -1.9246736E+02 H       energy change -1.8223123E-04 H
gradient norm  1.0251140E-02 H/a0    max. gradient  2.8649866E-03 H/a0
step length    6.0958407E-02 a0      max. step      1.1824253E-02 a0

--------------------------------------------------------------------------------

***  Geometry step: 27

 iSCC Total electronic   Diff electronic      SCC error    
    1   -0.19441696E+03    0.00000000E+00    0.18474311E-02
    2   -0.19441535E+03    0.16013751E-02    0.92976273E-03
    3   -0.19441536E+03   -0.29703887E-05    0.26047910E-03
    4   -0.19441536E+03   -0.68451109E-06    0.24495720E-04
    5   -0.19441536E+03   -0.13501392E-07    0.66008715E-05
    6   -0.19441536E+03   -0.66003736E-09    0.15103853E-05
    7   -0.19441536E+03   -0.10913936E-10    0.42914452E-06
    8   -0.19441536E+03   -0.36948222E-12    0.10402371E-06
    9   -0.19441536E+03   -0.28421709E-13    0.17695252E-07
   10   -0.19441536E+03    0.14210855E-12    0.22737665E-08

Total Energy:                     -192.4675438640 H        -5237.3083 eV
Extrapolated to 0K:               -192.4675438640 H        -5237.3083 eV
Total Mermin free energy:         -192.4675438640 H        -5237.3083 eV
Force related energy:             -192.4675438640 H        -5237.3083 eV

Volume:                              0.100486E+05 au^3   0.148904E+04 A^3
Pressure:                            0.425415E-05 au     0.125161E+09 Pa
>> Charges saved for restart in charges.bin

total energy  -1.9246754E+02 H       energy change -1.8809577E-04 H
gradient norm  1.1614999E-02 H/a0    max. gradient  3.9808433E-03 H/a0
step length    6.5473182E-02 a0      max. step      1.3016577E-02 a0

--------------------------------------------------------------------------------

***  Geometry step: 28

 iSCC Total electronic   Diff electronic      SCC error    
    1   -0.19441536E+03    0.00000000E+00    0.18363912E-02
    2   -0.19441288E+03    0.24768982E-02    0.11901540E-02
    3   -0.19441288E+03   -0.29181219E-05    0.35856720E-03
    4   -0.19441288E+03   -0.70438298E-06    0.35539431E-04
    5   -0.19441288E+03   -0.20220142E-07    0.75375025E-05
    6   -0.19441288E+03   -0.11614247E-08    0.14447630E-05
    7   -0.19441288E+03   -0.21373125E-10    0.37496932E-06
    8   -0.19441288E+03   -0.42632564E-12    0.99430859E-07
    9   -0.19441288E+03   -0.85265128E-13    0.21991091E-07
   10   -0.19441288E+03   -0.28421709E-13    0.27037883E-08

Total Energy:                     -192.4677678296 H        -5237.3144 eV
Extrapolated to 0K:               -192.4677678296 H        -5237.3144 eV
Total Mermin free energy:         -192.4677678296 H        -5237.3144 eV
Force related energy:             -192.4677678296 H        -5237.3144 eV

Volume:                              0.100607E+05 au^3   0.149084E+04 A^3
Pressure:                            0.239044E-05 au     0.703291E+08 Pa
>> Charges saved for restart in charges.bin

total energy  -1.9246777E+02 H       energy change -2.2396562E-04 H
gradient norm  1.2645407E-02 H/a0    max. gradient  3.3359631E-03 H/a0
step length    8.1459416E-02 a0      max. step      1.7813085E-02 a0

--------------------------------------------------------------------------------

***  Geometry step: 29

 iSCC Total electronic   Diff electronic      SCC error    
    1   -0.19441288E+03    0.00000000E+00    0.20408872E-02
    2   -0.19441083E+03    0.20551674E-02    0.13309977E-02
    3   -0.19441083E+03   -0.29289988E-05    0.40141757E-03
    4   -0.19441083E+03   -0.65977210E-06    0.38743995E-04
    5   -0.19441083E+03   -0.29184775E-07    0.10925458E-04
    6   -0.19441083E+03   -0.16825936E-08    0.23683768E-05
    7   -0.19441083E+03   -0.28023805E-10    0.51825886E-06
    8   -0.19441083E+03   -0.65369932E-12    0.10821151E-06
    9   -0.19441083E+03   -0.11368684E-12    0.25007078E-07
   10   -0.19441083E+03    0.56843419E-13    0.29435303E-08

Total Energy:                     -192.4680112315 H        -5237.3211 eV
Extrapolated to 0K:               -192.4680112315 H        -5237.3211 eV
Total Mermin free energy:         -192.4680112315 H        -5237.3211 eV
Force related energy:             -192.4680112315 H        -5237.3211 eV

Volume:                              0.100725E+05 au^3   0.149258E+04 A^3
Pressure:                            0.394160E-06 au     0.115966E+08 Pa
>> Charges saved for restart in charges.bin

total energy  -1.9246801E+02 H       energy change -2.4340188E-04 H
gradient norm  1.2487419E-02 H/a0    max. gradient  2.4040164E-03 H/a0
step length    9.3630452E-02 a0      max. step      2.1825512E-02 a0

--------------------------------------------------------------------------------

***  Geometry step: 30

 iSCC Total electronic   Diff electronic      SCC error    
    1   -0.19441083E+03    0.00000000E+00    0.26042855E-02
    2   -0.19441101E+03   -0.17841492E-03    0.15069415E-02
    3   -0.19441102E+03   -0.46822327E-05    0.47694731E-03
    4   -0.19441102E+03   -0.92980989E-06    0.45610470E-04
    5   -0.19441102E+03   -0.27777389E-07    0.98727257E-05
    6   -0.19441102E+03   -0.19643380E-08    0.28091681E-05
    7   -0.19441102E+03   -0.23050006E-10    0.79287787E-06
    8   -0.19441102E+03   -0.59685590E-12    0.93059428E-07
    9   -0.19441102E+03   -0.85265128E-13    0.24813696E-07
   10   -0.19441102E+03    0.00000000E+00    0.29061917E-08

Total Energy:                     -192.4682422011 H        -5237.3273 eV
Extrapolated to 0K:               -192.4682422011 H        -5237.3273 eV
Total Mermin free energy:         -192.4682422011 H        -5237.3273 eV
Force related energy:             -192.4682422011 H        -5237.3273 eV

Volume:                              0.100812E+05 au^3   0.149387E+04 A^3
Pressure:                           -0.595522E-06 au    -0.175209E+08 Pa
>> Charges saved for restart in charges.bin

total energy  -1.9246824E+02 H       energy change -2.3096955E-04 H
gradient norm  1.0897995E-02 H/a0    max. gradient  1.9030836E-03 H/a0
step length    9.2196884E-02 a0      max. step      2.2173328E-02 a0

--------------------------------------------------------------------------------

***  Geometry step: 31

 iSCC Total electronic   Diff electronic      SCC error    
    1   -0.19441102E+03    0.00000000E+00    0.22553529E-02
    2   -0.19441312E+03   -0.21057498E-02    0.12310280E-02
    3   -0.19441313E+03   -0.53320961E-05    0.42772814E-03
    4   -0.19441313E+03   -0.10535840E-05    0.54493296E-04
    5   -0.19441313E+03   -0.13544053E-07    0.50272776E-05
    6   -0.19441313E+03   -0.13502301E-08    0.15352758E-05
    7   -0.19441313E+03   -0.14779289E-10    0.46023322E-06
    8   -0.19441313E+03   -0.19895197E-12    0.76075389E-07
    9   -0.19441313E+03   -0.85265128E-13    0.18115667E-07
   10   -0.19441313E+03    0.28421709E-13    0.25323459E-08

Total Energy:                     -192.4684347098 H        -5237.3326 eV
Extrapolated to 0K:               -192.4684347098 H        -5237.3326 eV
Total Mermin free energy:         -192.4684347098 H        -5237.3326 eV
Force related energy:             -192.4684347098 H        -5237.3326 eV

Volume:                              0.100859E+05 au^3   0.149458E+04 A^3
Pressure:                           -0.672311E-06 au    -0.197801E+08 Pa
>> Charges saved for restart in charges.bin

total energy  -1.9246843E+02 H       energy change -1.9250870E-04 H
gradient norm  1.0358833E-02 H/a0    max. gradient  2.2609274E-03 H/a0
step length    7.6332760E-02 a0      max. step      1.7955070E-02 a0

--------------------------------------------------------------------------------

***  Geometry step: 32

 iSCC Total electronic   Diff electronic      SCC error    
    1   -0.19441313E+03    0.00000000E+00    0.24161185E-02
    2   -0.19441719E+03   -0.40605353E-02    0.94022182E-03
    3   -0.19441720E+03   -0.58546693E-05    0.31335586E-03
    4   -0.19441720E+03   -0.11971268E-05    0.56801411E-04
    5   -0.19441720E+03   -0.11621722E-07    0.60179636E-05
    6   -0.19441720E+03   -0.96073904E-09    0.15461109E-05
    7   -0.19441720E+03   -0.19838353E-10    0.43015691E-06
    8   -0.19441720E+03   -0.36948222E-12    0.93450422E-07
    9   -0.19441720E+03   -0.56843419E-13    0.14947831E-07
   10   -0.19441720E+03    0.28421709E-13    0.37937209E-08

Total Energy:                     -192.4686290214 H        -5237.3379 eV
Extrapolated to 0K:               -192.4686290214 H        -5237.3379 eV
Total Mermin free energy:         -192.4686290214 H        -5237.3379 eV
Force related energy:             -192.4686290214 H        -5237.3379 eV

Volume:                              0.100882E+05 au^3   0.149492E+04 A^3
Pressure:                            0.283226E-06 au     0.833278E+07 Pa
>> Charges saved for restart in charges.bin

total energy  -1.9246863E+02 H       energy change -1.9431162E-04 H
gradient norm  1.1430521E-02 H/a0    max. gradient  2.5811466E-03 H/a0
step length    7.9946172E-02 a0      max. step      1.7360757E-02 a0

--------------------------------------------------------------------------------

***  Geometry step: 33

 iSCC Total electronic   Diff electronic      SCC error    
    1   -0.19441720E+03    0.00000000E+00    0.21454097E-02
    2   -0.19442107E+03   -0.38725809E-02    0.86051707E-03
    3   -0.19442107E+03   -0.44859640E-05    0.32724394E-03
    4   -0.19442107E+03   -0.97217048E-06    0.40949723E-04
    5   -0.19442107E+03   -0.12817424E-07    0.57904935E-05
    6   -0.19442107E+03   -0.10837482E-08    0.15134071E-05
    7   -0.19442107E+03   -0.22538416E-10    0.54430704E-06
    8   -0.19442107E+03   -0.45474735E-12    0.95991278E-07
    9   -0.19442107E+03   -0.56843419E-13    0.14572617E-07
   10   -0.19442107E+03    0.85265128E-13    0.23413373E-08

Total Energy:                     -192.4688399137 H        -5237.3436 eV
Extrapolated to 0K:               -192.4688399137 H        -5237.3436 eV
Total Mermin free energy:         -192.4688399137 H        -5237.3436 eV
Force related energy:             -192.4688399137 H        -5237.3436 eV

Volume:                              0.100903E+05 au^3   0.149522E+04 A^3
Pressure:                            0.146534E-05 au     0.431116E+08 Pa
>> Charges saved for restart in charges.bin

total energy  -1.9246884E+02 H       energy change -2.1089233E-04 H
gradient norm  1.2268929E-02 H/a0    max. gradient  2.2857514E-03 H/a0
step length    9.1293039E-02 a0      max. step      1.9931982E-02 a0

--------------------------------------------------------------------------------

***  Geometry step: 34

 iSCC Total electronic   Diff electronic      SCC error    
    1   -0.19442107E+03    0.00000000E+00    0.21297746E-02
    2   -0.19442372E+03   -0.26435086E-02    0.12447379E-02
    3   -0.19442372E+03   -0.41560666E-05    0.41295730E-03
    4   -0.19442372E+03   -0.94709262E-06    0.48005384E-04
    5   -0.19442372E+03   -0.22743109E-07    0.99197875E-05
    6   -0.19442372E+03   -0.16657395E-08    0.26512881E-05
    7   -0.19442372E+03   -0.20122570E-10    0.61991124E-06
    8   -0.19442372E+03   -0.56843419E-12    0.11104724E-06
    9   -0.19442372E+03   -0.19895197E-12    0.21141329E-07
   10   -0.19442372E+03    0.28421709E-13    0.20439415E-08

Total Energy:                     -192.4691071018 H        -5237.3509 eV
Extrapolated to 0K:               -192.4691071018 H        -5237.3509 eV
Total Mermin free energy:         -192.4691071018 H        -5237.3509 eV
Force related energy:             -192.4691071018 H        -5237.3509 eV

Volume:                              0.100935E+05 au^3   0.149570E+04 A^3
Pressure:                            0.239881E-05 au     0.705754E+08 Pa
>> Charges saved for restart in charges.bin

total energy  -1.9246911E+02 H       energy change -2.6718808E-04 H
gradient norm  1.2567987E-02 H/a0    max. gradient  2.2797251E-03 H/a0
step length    1.2652602E-01 a0      max. step      2.8384649E-02 a0

--------------------------------------------------------------------------------

***  Geometry step: 35

 iSCC Total electronic   Diff electronic      SCC error    
    1   -0.19442372E+03    0.00000000E+00    0.35110927E-02
    2   -0.19442358E+03    0.14524485E-03    0.15807833E-02
    3   -0.19442358E+03   -0.41784087E-05    0.39147185E-03
    4   -0.19442358E+03   -0.97968515E-06    0.42862442E-04
    5   -0.19442358E+03   -0.36986620E-07    0.11815503E-04
    6   -0.19442358E+03   -0.17105606E-08    0.28488231E-05
    7   -0.19442358E+03   -0.25181635E-10    0.51681581E-06
    8   -0.19442358E+03   -0.11084467E-11    0.13320061E-06
    9   -0.19442358E+03   -0.19895197E-12    0.19083167E-07
   10   -0.19442358E+03   -0.56843419E-13    0.31635086E-08

Total Energy:                     -192.4693944325 H        -5237.3587 eV
Extrapolated to 0K:               -192.4693944325 H        -5237.3587 eV
Total Mermin free energy:         -192.4693944325 H        -5237.3587 eV
Force related energy:             -192.4693944325 H        -5237.3587 eV

Volume:                              0.100976E+05 au^3   0.149632E+04 A^3
Pressure:                            0.241578E-05 au     0.710746E+08 Pa
>> Charges saved for restart in charges.bin

total energy  -1.9246939E+02 H       energy change -2.8733067E-04 H
gradient norm  1.2225748E-02 H/a0    max. gradient  2.2974959E-03 H/a0
step length    1.4441045E-01 a0      max. step      3.2982862E-02 a0

--------------------------------------------------------------------------------

***  Geometry step: 36

 iSCC Total electronic   Diff electronic      SCC error    
    1   -0.19442358E+03    0.00000000E+00    0.31887525E-02
    2   -0.19442149E+03    0.20934224E-02    0.17763318E-02
    3   -0.19442149E+03   -0.49246282E-05    0.35688444E-03
    4   -0.19442150E+03   -0.11443202E-05    0.44992106E-04
    5   -0.19442150E+03   -0.41262041E-07    0.13618851E-04
    6   -0.19442150E+03   -0.14080968E-08    0.25818984E-05
    7   -0.19442150E+03   -0.27881697E-10    0.51586647E-06
    8   -0.19442150E+03   -0.15347723E-11    0.16299698E-06
    9   -0.19442150E+03   -0.14210855E-12    0.21964009E-07
   10   -0.19442150E+03    0.28421709E-13    0.23317304E-08

Total Energy:                     -192.4696617266 H        -5237.3660 eV
Extrapolated to 0K:               -192.4696617266 H        -5237.3660 eV
Total Mermin free energy:         -192.4696617266 H        -5237.3660 eV
Force related energy:             -192.4696617266 H        -5237.3660 eV

Volume:                              0.101013E+05 au^3   0.149686E+04 A^3
Pressure:                            0.155958E-05 au     0.458844E+08 Pa
>> Charges saved for restart in charges.bin

total energy  -1.9246966E+02 H       energy change -2.6729412E-04 H
gradient norm  1.1820431E-02 H/a0    max. gradient  2.5711472E-03 H/a0
step length    1.3768670E-01 a0      max. step      3.1692855E-02 a0

--------------------------------------------------------------------------------

***  Geometry step: 37

 iSCC Total electronic   Diff electronic      SCC error    
    1   -0.19442150E+03    0.00000000E+00    0.28970756E-02
    2   -0.19442006E+03    0.14407296E-02    0.16077143E-02
    3   -0.19442006E+03   -0.37891348E-05    0.32176193E-03
    4   -0.19442006E+03   -0.88716388E-06    0.28346385E-04
    5   -0.19442006E+03   -0.24652167E-07    0.12172554E-04
    6   -0.19442006E+03   -0.94135544E-09    0.20373075E-05
    7   -0.19442006E+03   -0.21685764E-10    0.41694158E-06
    8   -0.19442006E+03   -0.79580786E-12    0.13334152E-06
    9   -0.19442006E+03   -0.17053026E-12    0.23461427E-07
   10   -0.19442006E+03    0.00000000E+00    0.22693962E-08

Total Energy:                     -192.4698798533 H        -5237.3719 eV
Extrapolated to 0K:               -192.4698798533 H        -5237.3719 eV
Total Mermin free energy:         -192.4698798533 H        -5237.3719 eV
Force related energy:             -192.4698798533 H        -5237.3719 eV

Volume:                              0.101027E+05 au^3   0.149707E+04 A^3
Pressure:                            0.771111E-06 au     0.226868E+08 Pa
>> Charges saved for restart in charges.bin

total energy  -1.9246988E+02 H       energy change -2.1812670E-04 H
gradient norm  1.1719181E-02 H/a0    max. gradient  2.6144429E-03 H/a0
step length    1.0465741E-01 a0      max. step      2.3704666E-02 a0

--------------------------------------------------------------------------------

***  Geometry step: 38

 iSCC Total electronic   Diff electronic      SCC error    
    1   -0.19442006E+03    0.00000000E+00    0.19001729E-02
    2   -0.19442007E+03   -0.12479889E-04    0.10516639E-02
    3   -0.19442008E+03   -0.32508348E-05    0.30501327E-03
    4   -0.19442008E+03   -0.77061253E-06    0.45005903E-04
    5   -0.19442008E+03   -0.12424749E-07    0.91450463E-05
    6   -0.19442008E+03   -0.99484510E-09    0.23210124E-05
    7   -0.19442008E+03   -0.22254198E-10    0.51806302E-06
    8   -0.19442008E+03   -0.54001248E-12    0.78465257E-07
    9   -0.19442008E+03   -0.85265128E-13    0.16907769E-07
   10   -0.19442008E+03   -0.28421709E-13    0.28995442E-08

Total Energy:                     -192.4700883167 H        -5237.3776 eV
Extrapolated to 0K:               -192.4700883167 H        -5237.3776 eV
Total Mermin free energy:         -192.4700883167 H        -5237.3776 eV
Force related energy:             -192.4700883167 H        -5237.3776 eV

Volume:                              0.101034E+05 au^3   0.149717E+04 A^3
Pressure:                            0.371584E-06 au     0.109324E+08 Pa
>> Charges saved for restart in charges.bin

total energy  -1.9247009E+02 H       energy change -2.0846336E-04 H
gradient norm  1.0810701E-02 H/a0    max. gradient  2.7179751E-03 H/a0
step length    8.9678459E-02 a0      max. step      1.9302060E-02 a0

--------------------------------------------------------------------------------

***  Geometry step: 39

 iSCC Total electronic   Diff electronic      SCC error    
    1   -0.19442008E+03    0.00000000E+00    0.24284060E-02
    2   -0.19442152E+03   -0.14481690E-02    0.10474490E-02
    3   -0.19442153E+03   -0.48312473E-05    0.28003283E-03
    4   -0.19442153E+03   -0.10841753E-05    0.53709951E-04
    5   -0.19442153E+03   -0.14791965E-07    0.46332470E-05
    6   -0.19442153E+03   -0.14273382E-08    0.16263006E-05
    7   -0.19442153E+03   -0.35441872E-10    0.63285174E-06
    8   -0.19442153E+03   -0.54001248E-12    0.99168369E-07
    9   -0.19442153E+03   -0.85265128E-13    0.21406374E-07
   10   -0.19442153E+03    0.56843419E-13    0.48614264E-08

Total Energy:                     -192.4702932274 H        -5237.3832 eV
Extrapolated to 0K:               -192.4702932274 H        -5237.3832 eV
Total Mermin free energy:         -192.4702932274 H        -5237.3832 eV
Force related energy:             -192.4702932274 H        -5237.3832 eV

Volume:                              0.101048E+05 au^3   0.149737E+04 A^3
Pressure:                            0.167321E-06 au     0.492276E+07 Pa
>> Charges saved for restart in charges.bin

total energy  -1.9247029E+02 H       energy change -2.0491070E-04 H
gradient norm  1.0177723E-02 H/a0    max. gradient  2.3817197E-03 H/a0
step length    9.6018137E-02 a0      max. step      1.9622716E-02 a0

--------------------------------------------------------------------------------

***  Geometry step: 40

 iSCC Total electronic   Diff electronic      SCC error    
    1   -0.19442153E+03    0.00000000E+00    0.22234450E-02
    2   -0.19442439E+03   -0.28560538E-02    0.96250648E-03
    3   -0.19442439E+03   -0.40319555E-05    0.21969070E-03
    4   -0.19442439E+03   -0.81533483E-06    0.48223751E-04
    5   -0.19442439E+03   -0.10513702E-07    0.72295075E-05
    6   -0.19442439E+03   -0.81050189E-09    0.18472399E-05
    7   -0.19442439E+03   -0.22993163E-10    0.46454654E-06
    8   -0.19442439E+03   -0.62527761E-12    0.11068097E-06
    9   -0.19442439E+03   -0.56843419E-13    0.21313352E-07
   10   -0.19442439E+03   -0.28421709E-13    0.28732972E-08

Total Energy:                     -192.4704567221 H        -5237.3876 eV
Extrapolated to 0K:               -192.4704567221 H        -5237.3876 eV
Total Mermin free energy:         -192.4704567221 H        -5237.3876 eV
Force related energy:             -192.4704567221 H        -5237.3876 eV

Volume:                              0.101070E+05 au^3   0.149770E+04 A^3
Pressure:                            0.460041E-06 au     0.135349E+08 Pa
>> Charges saved for restart in charges.bin

total energy  -1.9247046E+02 H       energy change -1.6349475E-04 H
gradient norm  9.4795446E-03 H/a0    max. gradient  2.1431991E-03 H/a0
step length    8.6157164E-02 a0      max. step      1.7163446E-02 a0

--------------------------------------------------------------------------------

***  Geometry step: 41

 iSCC Total electronic   Diff electronic      SCC error    
    1   -0.19442439E+03    0.00000000E+00    0.20719103E-02
    2   -0.19442816E+03   -0.37701222E-02    0.85895226E-03
    3   -0.19442817E+03   -0.41825300E-05    0.23643951E-03
    4   -0.19442817E+03   -0.83282779E-06    0.52237919E-04
    5   -0.19442817E+03   -0.89199830E-08    0.68485699E-05
    6   -0.19442817E+03   -0.76943252E-09    0.14424374E-05
    7   -0.19442817E+03   -0.15347723E-10    0.34219294E-06
    8   -0.19442817E+03   -0.65369932E-12    0.84396051E-07
    9   -0.19442817E+03    0.00000000E+00    0.19015096E-07
   10   -0.19442817E+03   -0.85265128E-13    0.25539331E-08

Total Energy:                     -192.4706058650 H        -5237.3917 eV
Extrapolated to 0K:               -192.4706058650 H        -5237.3917 eV
Total Mermin free energy:         -192.4706058650 H        -5237.3917 eV
Force related energy:             -192.4706058650 H        -5237.3917 eV

Volume:                              0.101104E+05 au^3   0.149820E+04 A^3
Pressure:                            0.118851E-05 au     0.349670E+08 Pa
>> Charges saved for restart in charges.bin

total energy  -1.9247061E+02 H       energy change -1.4914291E-04 H
gradient norm  9.2688719E-03 H/a0    max. gradient  1.7783482E-03 H/a0
step length    9.3241941E-02 a0      max. step      1.8592191E-02 a0

--------------------------------------------------------------------------------

***  Geometry step: 42

 iSCC Total electronic   Diff electronic      SCC error    
    1   -0.19442817E+03    0.00000000E+00    0.20395617E-02
    2   -0.19443090E+03   -0.27329267E-02    0.90568234E-03
    3   -0.19443090E+03   -0.28848631E-05    0.22675346E-03
    4   -0.19443090E+03   -0.58120543E-06    0.41930184E-04
    5   -0.19443090E+03   -0.66517032E-08    0.79149643E-05
    6   -0.19443090E+03   -0.56726890E-09    0.15159750E-05
    7   -0.19443090E+03   -0.96349595E-11    0.26009496E-06
    8   -0.19443090E+03   -0.34106051E-12    0.80443376E-07
    9   -0.19443090E+03   -0.28421709E-13    0.17660015E-07
   10   -0.19443090E+03    0.56843419E-13    0.16164465E-08

Total Energy:                     -192.4707431965 H        -5237.3954 eV
Extrapolated to 0K:               -192.4707431965 H        -5237.3954 eV
Total Mermin free energy:         -192.4707431965 H        -5237.3954 eV
Force related energy:             -192.4707431965 H        -5237.3954 eV

Volume:                              0.101157E+05 au^3   0.149899E+04 A^3
Pressure:                            0.162949E-05 au     0.479413E+08 Pa
>> Charges saved for restart in charges.bin

total energy  -1.9247074E+02 H       energy change -1.3733152E-04 H
gradient norm  9.1118738E-03 H/a0    max. gradient  1.9566563E-03 H/a0
step length    9.7921310E-02 a0      max. step      1.9920446E-02 a0

--------------------------------------------------------------------------------

***  Geometry step: 43

 iSCC Total electronic   Diff electronic      SCC error    
    1   -0.19443090E+03    0.00000000E+00    0.21638940E-02
    2   -0.19443253E+03   -0.16262733E-02    0.87818705E-03
    3   -0.19443253E+03   -0.28754261E-05    0.22580411E-03
    4   -0.19443253E+03   -0.61791553E-06    0.31703265E-04
    5   -0.19443253E+03   -0.76624360E-08    0.79090745E-05
    6   -0.19443253E+03   -0.62900085E-09    0.20845383E-05
    7   -0.19443253E+03   -0.14495072E-10    0.49782554E-06
    8   -0.19443253E+03   -0.28421709E-12    0.79459345E-07
    9   -0.19443253E+03   -0.56843419E-13    0.17365676E-07
   10   -0.19443253E+03   -0.28421709E-13    0.18323494E-08

Total Energy:                     -192.4708903094 H        -5237.3994 eV
Extrapolated to 0K:               -192.4708903094 H        -5237.3994 eV
Total Mermin free energy:         -192.4708903094 H        -5237.3994 eV
Force related energy:             -192.4708903094 H        -5237.3994 eV

Volume:                              0.101224E+05 au^3   0.149999E+04 A^3
Pressure:                            0.168024E-05 au     0.494342E+08 Pa
>> Charges saved for restart in charges.bin

total energy  -1.9247089E+02 H       energy change -1.4711283E-04 H
gradient norm  8.9488018E-03 H/a0    max. gradient  2.1303298E-03 H/a0
step length    1.1131925E-01 a0      max. step      2.2925932E-02 a0

--------------------------------------------------------------------------------

***  Geometry step: 44

 iSCC Total electronic   Diff electronic      SCC error    
    1   -0.19443253E+03    0.00000000E+00    0.13098066E-02
    2   -0.19443261E+03   -0.72753264E-04    0.70600732E-03
    3   -0.19443261E+03   -0.21364507E-05    0.22899129E-03
    4   -0.19443261E+03   -0.47615916E-06    0.26381446E-04
    5   -0.19443261E+03   -0.65774088E-08    0.50121956E-05
    6   -0.19443261E+03   -0.57465854E-09    0.15041766E-05
    7   -0.19443261E+03   -0.81286089E-11    0.37575579E-06
    8   -0.19443261E+03   -0.19895197E-12    0.54971930E-07
    9   -0.19443261E+03    0.56843419E-13    0.14644233E-07
   10   -0.19443261E+03   -0.28421709E-13    0.20740183E-08

Total Energy:                     -192.4710290417 H        -5237.4032 eV
Extrapolated to 0K:               -192.4710290417 H        -5237.4032 eV
Total Mermin free energy:         -192.4710290417 H        -5237.4032 eV
Force related energy:             -192.4710290417 H        -5237.4032 eV

Volume:                              0.101287E+05 au^3   0.150092E+04 A^3
Pressure:                            0.130136E-05 au     0.382874E+08 Pa
>> Charges saved for restart in charges.bin

total energy  -1.9247103E+02 H       energy change -1.3873232E-04 H
gradient norm  8.7972932E-03 H/a0    max. gradient  2.2681830E-03 H/a0
step length    1.0046778E-01 a0      max. step      2.1144138E-02 a0

--------------------------------------------------------------------------------

***  Geometry step: 45

 iSCC Total electronic   Diff electronic      SCC error    
    1   -0.19443261E+03    0.00000000E+00    0.18523084E-02
    2   -0.19443146E+03    0.11517586E-02    0.84998912E-03
    3   -0.19443146E+03   -0.28287014E-05    0.27590267E-03
    4   -0.19443146E+03   -0.61123430E-06    0.30840906E-04
    5   -0.19443146E+03   -0.80773077E-08    0.35930844E-05
    6   -0.19443146E+03   -0.71136697E-09    0.10373840E-05
    7   -0.19443146E+03   -0.99760200E-11    0.33877994E-06
    8   -0.19443146E+03   -0.22737368E-12    0.41430965E-07
    9   -0.19443146E+03    0.56843419E-13    0.11230804E-07
   10   -0.19443146E+03    0.00000000E+00    0.15202986E-08

Total Energy:                     -192.4711716451 H        -5237.4071 eV
Extrapolated to 0K:               -192.4711716451 H        -5237.4071 eV
Total Mermin free energy:         -192.4711716451 H        -5237.4071 eV
Force related energy:             -192.4711716451 H        -5237.4071 eV

Volume:                              0.101347E+05 au^3   0.150180E+04 A^3
Pressure:                            0.391152E-06 au     0.115081E+08 Pa
>> Charges saved for restart in charges.bin

total energy  -1.9247117E+02 H       energy change -1.4260345E-04 H
gradient norm  8.6315915E-03 H/a0    max. gradient  1.8413347E-03 H/a0
step length    1.0021945E-01 a0      max. step      2.3784383E-02 a0

--------------------------------------------------------------------------------

***  Geometry step: 46

 iSCC Total electronic   Diff electronic      SCC error    
    1   -0.19443146E+03    0.00000000E+00    0.14834550E-02
    2   -0.19443065E+03    0.80639821E-03    0.65758769E-03
    3   -0.19443066E+03   -0.20161644E-05    0.23060726E-03
    4   -0.19443066E+03   -0.41007877E-06    0.28189619E-04
    5   -0.19443066E+03   -0.50931419E-08    0.29165890E-05
    6   -0.19443066E+03   -0.40628834E-09    0.75827552E-06
    7   -0.19443066E+03   -0.80433438E-11    0.24669752E-06
    8   -0.19443066E+03   -0.22737368E-12    0.64935342E-07
    9   -0.19443066E+03   -0.28421709E-13    0.11995365E-07
   10   -0.19443066E+03    0.56843419E-13    0.20844935E-08

Total Energy:                     -192.4712765855 H        -5237.4099 eV
Extrapolated to 0K:               -192.4712765855 H        -5237.4099 eV
Total Mermin free energy:         -192.4712765855 H        -5237.4099 eV
Force related energy:             -192.4712765855 H        -5237.4099 eV

Volume:                              0.101374E+05 au^3   0.150220E+04 A^3
Pressure:                           -0.408775E-06 au    -0.120266E+08 Pa
>> Charges saved for restart in charges.bin

total energy  -1.9247128E+02 H       energy change -1.0494034E-04 H
gradient norm  7.9475465E-03 H/a0    max. gradient  1.4838564E-03 H/a0
step length    6.4767313E-02 a0      max. step      1.7681736E-02 a0

--------------------------------------------------------------------------------

***  Geometry step: 47

 iSCC Total electronic   Diff electronic      SCC error    
    1   -0.19443066E+03    0.00000000E+00    0.14002284E-02
    2   -0.19443097E+03   -0.31854116E-03    0.62017214E-03
    3   -0.19443098E+03   -0.20471145E-05    0.20881412E-03
    4   -0.19443098E+03   -0.41127018E-06    0.26335902E-04
    5   -0.19443098E+03   -0.48312927E-08    0.64376382E-05
    6   -0.19443098E+03   -0.41609383E-09    0.15055101E-05
    7   -0.19443098E+03   -0.64517280E-11    0.27232231E-06
    8   -0.19443098E+03   -0.17053026E-12    0.80885184E-07
    9   -0.19443098E+03   -0.28421709E-13    0.17520327E-07
   10   -0.19443098E+03    0.28421709E-13    0.17707760E-08

Total Energy:                     -192.4713698257 H        -5237.4124 eV
Extrapolated to 0K:               -192.4713698257 H        -5237.4124 eV
Total Mermin free energy:         -192.4713698257 H        -5237.4124 eV
Force related energy:             -192.4713698257 H        -5237.4124 eV

Volume:                              0.101380E+05 au^3   0.150230E+04 A^3
Pressure:                           -0.672845E-06 au    -0.197958E+08 Pa
>> Charges saved for restart in charges.bin

total energy  -1.9247137E+02 H       energy change -9.3240204E-05 H
gradient norm  7.0770870E-03 H/a0    max. gradient  1.6562668E-03 H/a0
step length    5.3950269E-02 a0      max. step      1.6074782E-02 a0

--------------------------------------------------------------------------------

***  Geometry step: 48

 iSCC Total electronic   Diff electronic      SCC error    
    1   -0.19443098E+03    0.00000000E+00    0.11993841E-02
    2   -0.19443187E+03   -0.89227838E-03    0.70696690E-03
    3   -0.19443187E+03   -0.16814834E-05    0.18778885E-03
    4   -0.19443187E+03   -0.35251549E-06    0.20385342E-04
    5   -0.19443187E+03   -0.46085802E-08    0.59550942E-05
    6   -0.19443187E+03   -0.34768277E-09    0.12117556E-05
    7   -0.19443187E+03   -0.62811978E-11    0.21461444E-06
    8   -0.19443187E+03   -0.17053026E-12    0.66800342E-07
    9   -0.19443187E+03   -0.28421709E-13    0.14991985E-07
   10   -0.19443187E+03    0.56843419E-13    0.17047590E-08

Total Energy:                     -192.4714483340 H        -5237.4146 eV
Extrapolated to 0K:               -192.4714483340 H        -5237.4146 eV
Total Mermin free energy:         -192.4714483340 H        -5237.4146 eV
Force related energy:             -192.4714483340 H        -5237.4146 eV

Volume:                              0.101383E+05 au^3   0.150234E+04 A^3
Pressure:                           -0.782579E-06 au    -0.230243E+08 Pa
>> Charges saved for restart in charges.bin

total energy  -1.9247145E+02 H       energy change -7.8508339E-05 H
gradient norm  6.6362519E-03 H/a0    max. gradient  1.5227561E-03 H/a0
step length    4.5395690E-02 a0      max. step      1.3512912E-02 a0

--------------------------------------------------------------------------------

***  Geometry step: 49

 iSCC Total electronic   Diff electronic      SCC error    
    1   -0.19443187E+03    0.00000000E+00    0.13336901E-02
    2   -0.19443408E+03   -0.22110313E-02    0.77608457E-03
    3   -0.19443408E+03   -0.18333870E-05    0.19037254E-03
    4   -0.19443408E+03   -0.39506423E-06    0.18687325E-04
    5   -0.19443408E+03   -0.58765863E-08    0.63497302E-05
    6   -0.19443408E+03   -0.38426151E-09    0.11272661E-05
    7   -0.19443408E+03   -0.71338491E-11    0.22000008E-06
    8   -0.19443408E+03   -0.36948222E-12    0.65219793E-07
    9   -0.19443408E+03    0.00000000E+00    0.16816051E-07
   10   -0.19443408E+03    0.00000000E+00    0.17540609E-08

Total Energy:                     -192.4715300420 H        -5237.4168 eV
Extrapolated to 0K:               -192.4715300420 H        -5237.4168 eV
Total Mermin free energy:         -192.4715300420 H        -5237.4168 eV
Force related energy:             -192.4715300420 H        -5237.4168 eV

Volume:                              0.101379E+05 au^3   0.150229E+04 A^3
Pressure:                           -0.410806E-06 au    -0.120863E+08 Pa
>> Charges saved for restart in charges.bin

total energy  -1.9247153E+02 H       energy change -8.1708003E-05 H
gradient norm  6.7363175E-03 H/a0    max. gradient  1.3067903E-03 H/a0
step length    5.4361106E-02 a0      max. step      1.5671385E-02 a0

--------------------------------------------------------------------------------

***  Geometry step: 50

 iSCC Total electronic   Diff electronic      SCC error    
    1   -0.19443408E+03    0.00000000E+00    0.12319722E-02
    2   -0.19443671E+03   -0.26208768E-02    0.62921918E-03
    3   -0.19443671E+03   -0.15023358E-05    0.17360611E-03
    4   -0.19443671E+03   -0.30718263E-06    0.15632045E-04
    5   -0.19443671E+03   -0.56304259E-08    0.64567388E-05
    6   -0.19443671E+03   -0.29598368E-09    0.10214572E-05
    7   -0.19443671E+03   -0.50874860E-11    0.17955500E-06
    8   -0.19443671E+03   -0.22737368E-12    0.52449713E-07
    9   -0.19443671E+03   -0.28421709E-13    0.14411297E-07
   10   -0.19443671E+03    0.56843419E-13    0.12882699E-08

Total Energy:                     -192.4716060020 H        -5237.4189 eV
Extrapolated to 0K:               -192.4716060020 H        -5237.4189 eV
Total Mermin free energy:         -192.4716060020 H        -5237.4189 eV
Force related energy:             -192.4716060020 H        -5237.4189 eV

Volume:                              0.101377E+05 au^3   0.150226E+04 A^3
Pressure:                            0.350823E-06 au     0.103216E+08 Pa
>> Charges saved for restart in charges.bin

total energy  -1.9247161E+02 H       energy change -7.5959943E-05 H
gradient norm  7.2224030E-03 H/a0    max. gradient  1.6820134E-03 H/a0
step length    6.4564956E-02 a0      max. step      1.7835479E-02 a0

--------------------------------------------------------------------------------

***  Geometry step: 51

 iSCC Total electronic   Diff electronic      SCC error    
    1   -0.19443671E+03    0.00000000E+00    0.10071619E-02
    2   -0.19443819E+03   -0.14789203E-02    0.63498761E-03
    3   -0.19443819E+03   -0.11843565E-05    0.21166912E-03
    4   -0.19443819E+03   -0.23431926E-06    0.18997981E-04
    5   -0.19443819E+03   -0.52774851E-08    0.48554692E-05
    6   -0.19443819E+03   -0.24579094E-09    0.10601739E-05
    7   -0.19443819E+03   -0.29558578E-11    0.22481563E-06
    8   -0.19443819E+03    0.56843419E-13    0.38352573E-07
    9   -0.19443819E+03   -0.85265128E-13    0.85436156E-08

Total Energy:                     -192.4716869062 H        -5237.4211 eV
Extrapolated to 0K:               -192.4716869062 H        -5237.4211 eV
Total Mermin free energy:         -192.4716869062 H        -5237.4211 eV
Force related energy:             -192.4716869062 H        -5237.4211 eV

Volume:                              0.101391E+05 au^3   0.150246E+04 A^3
Pressure:                            0.819396E-06 au     0.241075E+08 Pa
>> Charges saved for restart in charges.bin

total energy  -1.9247169E+02 H       energy change -8.0904195E-05 H
gradient norm  7.3472250E-03 H/a0    max. gradient  1.7625319E-03 H/a0
step length    7.9776950E-02 a0      max. step      2.0251491E-02 a0

--------------------------------------------------------------------------------

***  Geometry step: 52

 iSCC Total electronic   Diff electronic      SCC error    
    1   -0.19443819E+03    0.00000000E+00    0.13826458E-02
    2   -0.19443892E+03   -0.72889967E-03    0.84118527E-03
[...]
    8   -0.19443084E+03   -0.28421709E-13    0.41420831E-08

Total Energy:                     -192.4746514032 H        -5237.5017 eV
Extrapolated to 0K:               -192.4746514032 H        -5237.5017 eV
Total Mermin free energy:         -192.4746514032 H        -5237.5017 eV
Force related energy:             -192.4746514032 H        -5237.5017 eV

Volume:                              0.999955E+04 au^3   0.148178E+04 A^3
Pressure:                            0.429216E-09 au     0.126280E+05 Pa
>> Charges saved for restart in charges.bin

total energy  -1.9247465E+02 H       energy change -9.1744491E-07 H
gradient norm  7.9746435E-04 H/a0    max. gradient  2.1075978E-04 H/a0
step length    1.7265882E-02 a0      max. step      3.6848586E-03 a0

--------------------------------------------------------------------------------

***  Geometry step: 183

 iSCC Total electronic   Diff electronic      SCC error    
    1   -0.19443084E+03    0.00000000E+00    0.92417221E-04
    2   -0.19443074E+03    0.99693234E-04    0.39738368E-04
    3   -0.19443074E+03   -0.65090546E-08    0.70378824E-05
    4   -0.19443074E+03   -0.13855015E-08    0.15617037E-05
    5   -0.19443074E+03   -0.16257218E-10    0.19579344E-06
    6   -0.19443074E+03   -0.11084467E-11    0.67848400E-07
    7   -0.19443074E+03   -0.56843419E-13    0.87550238E-08

Total Energy:                     -192.4746518959 H        -5237.5018 eV
Extrapolated to 0K:               -192.4746518959 H        -5237.5018 eV
Total Mermin free energy:         -192.4746518959 H        -5237.5018 eV
Force related energy:             -192.4746518959 H        -5237.5018 eV

Volume:                              0.999961E+04 au^3   0.148179E+04 A^3
Pressure:                           -0.305242E-07 au    -0.898053E+06 Pa
>> Charges saved for restart in charges.bin

total energy  -1.9247465E+02 H       energy change -4.9274573E-07 H
gradient norm  6.7429212E-04 H/a0    max. gradient  1.8770941E-04 H/a0
step length    1.2022390E-03 a0      max. step      2.9436139E-04 a0

--------------------------------------------------------------------------------

***  Geometry step: 184

 iSCC Total electronic   Diff electronic      SCC error    
    1   -0.19443074E+03    0.00000000E+00    0.21583778E-03
    2   -0.19443055E+03    0.18931102E-03    0.95647933E-04
    3   -0.19443055E+03   -0.31507597E-07    0.27601149E-04
    4   -0.19443055E+03   -0.70688202E-08    0.61134560E-05
    5   -0.19443055E+03   -0.70258466E-10    0.42623509E-06
    6   -0.19443055E+03   -0.48601123E-11    0.13784055E-06
    7   -0.19443055E+03   -0.85265128E-13    0.17045681E-07
    8   -0.19443055E+03   -0.14210855E-12    0.38460151E-08

Total Energy:                     -192.4746526419 H        -5237.5018 eV
Extrapolated to 0K:               -192.4746526419 H        -5237.5018 eV
Total Mermin free energy:         -192.4746526419 H        -5237.5018 eV
Force related energy:             -192.4746526419 H        -5237.5018 eV

Volume:                              0.999973E+04 au^3   0.148181E+04 A^3
Pressure:                           -0.852484E-07 au    -0.250809E+07 Pa
>> Charges saved for restart in charges.bin

total energy  -1.9247465E+02 H       energy change -7.4598427E-07 H
gradient norm  8.4600798E-04 H/a0    max. gradient  2.5239705E-04 H/a0
step length    3.1487920E-03 a0      max. step      6.2882668E-04 a0

--------------------------------------------------------------------------------

***  Geometry step: 185

 iSCC Total electronic   Diff electronic      SCC error    
    1   -0.19443055E+03    0.00000000E+00    0.11009681E-03
    2   -0.19443056E+03   -0.37490405E-05    0.48185314E-04
    3   -0.19443056E+03   -0.93987751E-08    0.13681195E-04
    4   -0.19443056E+03   -0.21539108E-08    0.15385831E-05
    5   -0.19443056E+03   -0.32002845E-10    0.26627010E-06
    6   -0.19443056E+03   -0.31548097E-11    0.68301544E-07
    7   -0.19443056E+03    0.00000000E+00    0.89265009E-08

Total Energy:                     -192.4746533010 H        -5237.5018 eV
Extrapolated to 0K:               -192.4746533010 H        -5237.5018 eV
Total Mermin free energy:         -192.4746533010 H        -5237.5018 eV
Force related energy:             -192.4746533010 H        -5237.5018 eV

Volume:                              0.999958E+04 au^3   0.148179E+04 A^3
Pressure:                           -0.133794E-06 au    -0.393634E+07 Pa
>> Charges saved for restart in charges.bin

total energy  -1.9247465E+02 H       energy change -6.5914327E-07 H
gradient norm  8.3188291E-04 H/a0    max. gradient  2.9868836E-04 H/a0
step length    3.5693909E-03 a0      max. step      8.2753917E-04 a0

--------------------------------------------------------------------------------

***  Geometry step: 186

 iSCC Total electronic   Diff electronic      SCC error    
    1   -0.19443056E+03    0.00000000E+00    0.11075926E-03
    2   -0.19443074E+03   -0.18458619E-03    0.53017075E-04
    3   -0.19443074E+03   -0.17508654E-07    0.18634911E-04
    4   -0.19443074E+03   -0.36745007E-08    0.26065284E-05
    5   -0.19443074E+03   -0.63806738E-10    0.34230156E-06
    6   -0.19443074E+03   -0.53717031E-11    0.70078587E-07
    7   -0.19443074E+03   -0.56843419E-13    0.11130755E-07
    8   -0.19443074E+03   -0.28421709E-13    0.23956472E-08

Total Energy:                     -192.4746542978 H        -5237.5018 eV
Extrapolated to 0K:               -192.4746542978 H        -5237.5018 eV
Total Mermin free energy:         -192.4746542978 H        -5237.5018 eV
Force related energy:             -192.4746542978 H        -5237.5018 eV

Volume:                              0.999862E+04 au^3   0.148164E+04 A^3
Pressure:                           -0.138001E-07 au    -0.406012E+06 Pa
>> Charges saved for restart in charges.bin

total energy  -1.9247465E+02 H       energy change -9.9679647E-07 H
gradient norm  7.5186632E-04 H/a0    max. gradient  2.2018673E-04 H/a0
step length    1.3053598E-02 a0      max. step      2.9439781E-03 a0

--------------------------------------------------------------------------------

***  Geometry step: 187

 iSCC Total electronic   Diff electronic      SCC error    
    1   -0.19443074E+03    0.00000000E+00    0.10165566E-03
    2   -0.19443078E+03   -0.37081897E-04    0.64346806E-04
    3   -0.19443078E+03   -0.80999598E-08    0.21278484E-04
    4   -0.19443078E+03   -0.18437163E-08    0.19138903E-05
    5   -0.19443078E+03   -0.30070169E-10    0.17571041E-06
    6   -0.19443078E+03   -0.28421709E-11    0.42753264E-07
    7   -0.19443078E+03    0.85265128E-13    0.88978354E-08

Total Energy:                     -192.4746550090 H        -5237.5018 eV
Extrapolated to 0K:               -192.4746550090 H        -5237.5018 eV
Total Mermin free energy:         -192.4746550090 H        -5237.5018 eV
Force related energy:             -192.4746550090 H        -5237.5018 eV

Volume:                              0.999846E+04 au^3   0.148162E+04 A^3
Pressure:                           -0.212006E-07 au    -0.623743E+06 Pa
>> Charges saved for restart in charges.bin

total energy  -1.9247466E+02 H       energy change -7.1114982E-07 H
gradient norm  6.0833343E-04 H/a0    max. gradient  1.3934041E-04 H/a0
step length    4.9056644E-03 a0      max. step      1.1876259E-03 a0

--------------------------------------------------------------------------------

***  Geometry step: 188

 iSCC Total electronic   Diff electronic      SCC error    
    1   -0.19443078E+03    0.00000000E+00    0.14864514E-03
    2   -0.19443079E+03   -0.12136006E-04    0.66824861E-04
    3   -0.19443079E+03   -0.17615378E-07    0.19883198E-04
    4   -0.19443079E+03   -0.38080259E-08    0.26539414E-05
    5   -0.19443079E+03   -0.52153837E-10    0.31832604E-06
    6   -0.19443079E+03   -0.43485215E-11    0.80350985E-07
    7   -0.19443079E+03   -0.56843419E-13    0.11842243E-07
    8   -0.19443079E+03    0.14210855E-12    0.29066580E-08

Total Energy:                     -192.4746556079 H        -5237.5019 eV
Extrapolated to 0K:               -192.4746556079 H        -5237.5019 eV
Total Mermin free energy:         -192.4746556079 H        -5237.5019 eV
Force related energy:             -192.4746556079 H        -5237.5019 eV

Volume:                              0.999822E+04 au^3   0.148158E+04 A^3
Pressure:                           -0.120057E-07 au    -0.353221E+06 Pa
>> Charges saved for restart in charges.bin

total energy  -1.9247466E+02 H       energy change -5.9892264E-07 H
gradient norm  6.7154675E-04 H/a0    max. gradient  2.0321941E-04 H/a0
step length    5.3104738E-03 a0      max. step      1.1922646E-03 a0

--------------------------------------------------------------------------------

***  Geometry step: 189

 iSCC Total electronic   Diff electronic      SCC error    
    1   -0.19443079E+03    0.00000000E+00    0.67915395E-04
    2   -0.19443081E+03   -0.22010941E-04    0.33574734E-04
    3   -0.19443081E+03   -0.44361741E-08    0.11227501E-04
    4   -0.19443081E+03   -0.10441568E-08    0.15988608E-05
    5   -0.19443081E+03   -0.18275159E-10    0.31422199E-06
    6   -0.19443081E+03   -0.13926638E-11    0.59612611E-07
    7   -0.19443081E+03   -0.56843419E-13    0.59032468E-08

Total Energy:                     -192.4746560183 H        -5237.5019 eV
Extrapolated to 0K:               -192.4746560183 H        -5237.5019 eV
Total Mermin free energy:         -192.4746560183 H        -5237.5019 eV
Force related energy:             -192.4746560183 H        -5237.5019 eV

Volume:                              0.999821E+04 au^3   0.148158E+04 A^3
Pressure:                           -0.312065E-08 au    -0.918127E+05 Pa
>> Charges saved for restart in charges.bin

total energy  -1.9247466E+02 H       energy change -4.1038180E-07 H
gradient norm  5.4312186E-04 H/a0    max. gradient  1.3415296E-04 H/a0
step length    1.3787275E-03 a0      max. step      3.0962046E-04 a0

--------------------------------------------------------------------------------

***  Geometry step: 190

 iSCC Total electronic   Diff electronic      SCC error    
    1   -0.19443081E+03    0.00000000E+00    0.14743830E-03
    2   -0.19443074E+03    0.72278556E-04    0.66650987E-04
    3   -0.19443074E+03   -0.16264153E-07    0.20507802E-04
    4   -0.19443074E+03   -0.37437928E-08    0.27847392E-05
    5   -0.19443074E+03   -0.81683993E-10    0.60363850E-06
    6   -0.19443074E+03   -0.65654149E-11    0.10332242E-06
    7   -0.19443074E+03   -0.85265128E-13    0.11125689E-07
    8   -0.19443074E+03   -0.28421709E-13    0.27616696E-08

Total Energy:                     -192.4746565502 H        -5237.5019 eV
Extrapolated to 0K:               -192.4746565502 H        -5237.5019 eV
Total Mermin free energy:         -192.4746565502 H        -5237.5019 eV
Force related energy:             -192.4746565502 H        -5237.5019 eV

Volume:                              0.999815E+04 au^3   0.148157E+04 A^3
Pressure:                           -0.106954E-07 au    -0.314670E+06 Pa
>> Charges saved for restart in charges.bin

total energy  -1.9247466E+02 H       energy change -5.3193196E-07 H
gradient norm  4.9874930E-04 H/a0    max. gradient  1.0654554E-04 H/a0
step length    3.1841876E-03 a0      max. step      7.6929724E-04 a0

--------------------------------------------------------------------------------

***  Geometry step: 191

 iSCC Total electronic   Diff electronic      SCC error    
    1   -0.19443074E+03    0.00000000E+00    0.67610322E-04
    2   -0.19443070E+03    0.38415137E-04    0.28583439E-04
    3   -0.19443070E+03   -0.60553020E-08    0.97758279E-05
    4   -0.19443070E+03   -0.11351062E-08    0.14246544E-05
    5   -0.19443070E+03   -0.20492052E-10    0.25376212E-06
    6   -0.19443070E+03   -0.16200374E-11    0.54668980E-07
    7   -0.19443070E+03   -0.85265128E-13    0.10064706E-07
    8   -0.19443070E+03    0.00000000E+00    0.21882256E-08

Total Energy:                     -192.4746570995 H        -5237.5019 eV
Extrapolated to 0K:               -192.4746570995 H        -5237.5019 eV
Total Mermin free energy:         -192.4746570995 H        -5237.5019 eV
Force related energy:             -192.4746570995 H        -5237.5019 eV

Volume:                              0.999745E+04 au^3   0.148147E+04 A^3
Pressure:                            0.251154E-07 au     0.738920E+06 Pa
>> Charges saved for restart in charges.bin

total energy  -1.9247466E+02 H       energy change -5.4925198E-07 H
gradient norm  5.5072381E-04 H/a0    max. gradient  1.1848289E-04 H/a0
step length    9.2348324E-03 a0      max. step      2.1792213E-03 a0

--------------------------------------------------------------------------------

***  Geometry step: 192

 iSCC Total electronic   Diff electronic      SCC error    
    1   -0.19443070E+03    0.00000000E+00    0.54909809E-04
    2   -0.19443072E+03   -0.21645111E-04    0.33455181E-04
    3   -0.19443072E+03   -0.34225991E-08    0.10303876E-04
    4   -0.19443072E+03   -0.77488949E-09    0.11420966E-05
    5   -0.19443072E+03   -0.16001422E-10    0.27849942E-06
    6   -0.19443072E+03   -0.11652901E-11    0.51470348E-07
    7   -0.19443072E+03   -0.28421709E-13    0.52409188E-08

Total Energy:                     -192.4746574253 H        -5237.5019 eV
Extrapolated to 0K:               -192.4746574253 H        -5237.5019 eV
Total Mermin free energy:         -192.4746574253 H        -5237.5019 eV
Force related energy:             -192.4746574253 H        -5237.5019 eV

Volume:                              0.999742E+04 au^3   0.148147E+04 A^3
Pressure:                            0.318543E-07 au     0.937185E+06 Pa
>> Charges saved for restart in charges.bin

total energy  -1.9247466E+02 H       energy change -3.2578981E-07 H
gradient norm  4.7889878E-04 H/a0    max. gradient  1.4402548E-04 H/a0
step length    1.2814071E-03 a0      max. step      2.5243287E-04 a0

--------------------------------------------------------------------------------

***  Geometry step: 193

 iSCC Total electronic   Diff electronic      SCC error    
    1   -0.19443072E+03    0.00000000E+00    0.14614436E-03
    2   -0.19443072E+03    0.20676071E-05    0.91793077E-04
    3   -0.19443072E+03   -0.21691193E-07    0.30364163E-04
    4   -0.19443072E+03   -0.45007766E-08    0.30623206E-05
    5   -0.19443072E+03   -0.10686563E-09    0.80152192E-06
    6   -0.19443072E+03   -0.77591267E-11    0.14536105E-06
    7   -0.19443072E+03   -0.85265128E-13    0.15427418E-07
    8   -0.19443072E+03    0.85265128E-13    0.38043448E-08

Total Energy:                     -192.4746579537 H        -5237.5019 eV
Extrapolated to 0K:               -192.4746579537 H        -5237.5019 eV
Total Mermin free energy:         -192.4746579537 H        -5237.5019 eV
Force related energy:             -192.4746579537 H        -5237.5019 eV

Volume:                              0.999715E+04 au^3   0.148142E+04 A^3
Pressure:                            0.145181E-07 au     0.427137E+06 Pa
>> Charges saved for restart in charges.bin

total energy  -1.9247466E+02 H       energy change -5.2840943E-07 H
gradient norm  4.7903874E-04 H/a0    max. gradient  1.0781575E-04 H/a0
step length    4.8022205E-03 a0      max. step      1.0603892E-03 a0

--------------------------------------------------------------------------------

***  Geometry step: 194

 iSCC Total electronic   Diff electronic      SCC error    
    1   -0.19443072E+03    0.00000000E+00    0.19335666E-03
    2   -0.19443069E+03    0.31025862E-04    0.77394010E-04
    3   -0.19443069E+03   -0.32247044E-07    0.18036694E-04
    4   -0.19443069E+03   -0.53415761E-08    0.29436363E-05
    5   -0.19443069E+03   -0.69576345E-10    0.71696161E-06
    6   -0.19443069E+03   -0.64801498E-11    0.10305692E-06
    7   -0.19443069E+03   -0.28421709E-13    0.98474882E-08

Total Energy:                     -192.4746587762 H        -5237.5019 eV
Extrapolated to 0K:               -192.4746587762 H        -5237.5019 eV
Total Mermin free energy:         -192.4746587762 H        -5237.5019 eV
Force related energy:             -192.4746587762 H        -5237.5019 eV

Volume:                              0.999565E+04 au^3   0.148120E+04 A^3
Pressure:                            0.560208E-07 au     0.164819E+07 Pa
>> Charges saved for restart in charges.bin

total energy  -1.9247466E+02 H       energy change -8.2257267E-07 H
gradient norm  6.0658549E-04 H/a0    max. gradient  1.9195556E-04 H/a0
step length    2.4961372E-02 a0      max. step      5.6357333E-03 a0

--------------------------------------------------------------------------------

***  Geometry step: 195

 iSCC Total electronic   Diff electronic      SCC error    
    1   -0.19443069E+03    0.00000000E+00    0.54566622E-04
    2   -0.19443066E+03    0.31535420E-04    0.35222917E-04
    3   -0.19443066E+03   -0.33774654E-08    0.11952319E-04
    4   -0.19443066E+03   -0.73754336E-09    0.98669901E-06
    5   -0.19443066E+03   -0.16314061E-10    0.25617682E-06
    6   -0.19443066E+03   -0.90949470E-12    0.49122439E-07
    7   -0.19443066E+03   -0.28421709E-13    0.57199574E-08

Total Energy:                     -192.4746590575 H        -5237.5020 eV
Extrapolated to 0K:               -192.4746590575 H        -5237.5020 eV
Total Mermin free energy:         -192.4746590575 H        -5237.5020 eV
Force related energy:             -192.4746590575 H        -5237.5020 eV

Volume:                              0.999569E+04 au^3   0.148121E+04 A^3
Pressure:                            0.564189E-07 au     0.165990E+07 Pa
>> Charges saved for restart in charges.bin

total energy  -1.9247466E+02 H       energy change -2.8123850E-07 H
gradient norm  4.2340970E-04 H/a0    max. gradient  1.0336071E-04 H/a0
step length    9.5604894E-04 a0      max. step      2.5298158E-04 a0

--------------------------------------------------------------------------------

***  Geometry step: 196

 iSCC Total electronic   Diff electronic      SCC error    
    1   -0.19443066E+03    0.00000000E+00    0.13824511E-03
    2   -0.19443053E+03    0.12580779E-03    0.68007804E-04
    3   -0.19443053E+03   -0.13938944E-07    0.21400484E-04
    4   -0.19443053E+03   -0.28526586E-08    0.21075702E-05
    5   -0.19443053E+03   -0.68752115E-10    0.50108523E-06
    6   -0.19443053E+03   -0.45190518E-11    0.98073586E-07
    7   -0.19443053E+03   -0.28421709E-13    0.10107594E-07
    8   -0.19443053E+03   -0.56843419E-13    0.26116975E-08

Total Energy:                     -192.4746594963 H        -5237.5020 eV
Extrapolated to 0K:               -192.4746594963 H        -5237.5020 eV
Total Mermin free energy:         -192.4746594963 H        -5237.5020 eV
Force related energy:             -192.4746594963 H        -5237.5020 eV

Volume:                              0.999581E+04 au^3   0.148123E+04 A^3
Pressure:                           -0.159580E-08 au    -0.469499E+05 Pa
>> Charges saved for restart in charges.bin

total energy  -1.9247466E+02 H       energy change -4.3887295E-07 H
gradient norm  3.9507489E-04 H/a0    max. gradient  8.6890940E-05 H/a0
step length    2.9387419E-03 a0      max. step      6.5791922E-04 a0

Geometry converged

--------------------------------------------------------------------------------
DFTB+ running times                          cpu [s]             wall clock [s]
--------------------------------------------------------------------------------
Pre-SCC initialisation                 +      14.62 (  0.8%)       2.48 (  1.0%)
SCC                                    +    1703.23 ( 89.1%)     215.26 ( 90.0%)
Post-SCC processing                    +     193.74 ( 10.1%)      21.43 (  9.0%)
--------------------------------------------------------------------------------
Missing                                +       0.01 (  0.0%)       0.01 (  0.0%)
Total                                  =    1911.60 (100.0%)     239.17 (100.0%)
--------------------------------------------------------------------------------
