   72
Geometry Step: 0
   Ge      2.40431475      5.97964120      2.86007496      3.17254249
   Ge      5.63175625      9.04835880      5.76240004      3.17254249
   Ge      0.40675625     13.49364120      5.76240004      3.17254249
   Ge      7.62931475      1.53435880      2.86007496      3.17254249
   Si      1.51640887      3.67434600      7.70763040      3.09724486
   Si      6.51966213      3.67434600      0.91484460      3.10066634
   Si      6.51966213     11.35365400      0.91484460      3.09724486
   Si      1.51640887     11.35365400      7.70763040      3.10066634
   Si      6.74140887     11.18834600      7.70763040      3.10066634
   Si      1.29466213     11.18834600      0.91484460      3.09724486
   Si      1.29466213      3.83965400      0.91484460      3.10066634
   Si      6.74140887      3.83965400      7.70763040      3.09724486
   Si      5.63175625      5.97964120      5.76240004      3.12125174
   Si      2.40431475      9.04835880      2.86007496      3.12125174
   Si      7.62931475     13.49364120      2.86007496      3.12125174
   Si      0.40675625      1.53435880      5.76240004      3.12125174
   Si      2.56407553      5.97964120      5.91760459      3.12383403
   Si      5.47199547      5.97964120      2.70487041      3.12419165
   Si      5.47199547      9.04835880      2.70487041      3.12383403
   Si      2.56407553      9.04835880      5.91760459      3.12419165
   Si      7.78907553     13.49364120      5.91760459      3.12419165
   Si      0.24699547     13.49364120      2.70487041      3.12383403
   Si      0.24699547      1.53435880      2.70487041      3.12419165
   Si      7.78907553      1.53435880      5.91760459      3.12383403
    O      5.22500000      3.40534480      0.00000000      6.43928586
    O      5.22500000     11.62265520      0.00000000      6.43928586
    O      0.00000000     10.91934480      0.00000000      6.43928586
    O      0.00000000      4.10865520      0.00000000      6.43928586
    O      1.37088378      2.46609480      6.65223946      6.42821528
    O      6.66518722      2.46609480      1.97023554      6.40913640
    O      6.66518722     12.56190520      1.97023554      6.42821528
    O      1.37088378     12.56190520      6.65223946      6.40913640
    O      6.59588378      9.98009480      6.65223946      6.40913640
    O      1.44018722      9.98009480      1.97023554      6.42821528
    O      1.44018722      5.04790520      1.97023554      6.40913640
    O      6.59588378      5.04790520      6.65223946      6.42821528
    O      1.68921648      5.05992760      6.90746472      6.43118869
    O      6.34685452      5.05992760      1.71501028      6.43084438
    O      6.34685452      9.96807240      1.71501028      6.43118869
    O      1.68921648      9.96807240      6.90746472      6.43084438
    O      6.91421648     12.57392760      6.90746472      6.43084438
    O      1.12185452     12.57392760      1.71501028      6.43118869
    O      1.12185452      2.45407240      1.71501028      6.43084438
    O      6.91421648      2.45407240      6.90746472      6.43118869
    O      2.61250000      3.75700000      0.00000000      6.44014552
    O      7.83750000      3.75700000      0.00000000      6.44014552
    O      7.83750000     11.27100000      0.00000000      6.44014552
    O      2.61250000     11.27100000      0.00000000      6.44014552
    O      3.91513367      5.85340600      2.31599678      6.45039502
    O      4.12093733      5.85340600      6.30647822      6.46332461
    O      4.12093733      9.17459400      6.30647822      6.45039502
    O      3.91513367      9.17459400      2.31599678      6.46332461
    O      9.14013367     13.36740600      2.31599678      6.46332461
    O     -1.10406267     13.36740600      6.30647822      6.45039502
    O     -1.10406267      1.66059400      6.30647822      6.46332461
    O      9.14013367      1.66059400      2.31599678      6.45039502
    O      2.34641400      5.50175080      4.39573775      6.43807317
    O      5.68965700      5.50175080      4.22673724      6.45158864
    O      5.68965700      9.52624920      4.22673724      6.43807317
    O      2.34641400      9.52624920      4.39573775      6.45158864
    O      7.57141400     13.01575080      4.39573775      6.45158864
    O      0.46465700     13.01575080      4.22673724      6.43807317
    O      0.46465700      2.01224920      4.22673724      6.45158864
    O      7.57141400      2.01224920      4.39573775      6.43807317
    O      1.92565329      7.51400000      2.75574301      6.43225902
    O      6.11041771      7.51400000      5.86673199      6.43225902
    O      7.15065329      0.00000000      2.75574301      6.43225902
    O      0.88541771      0.00000000      5.86673199      6.43225902
    O      2.09724095      7.51400000      6.06591116      6.44581229
    O      5.93883005      7.51400000      2.55656384      6.44581229
    O      7.32224095      0.00000000      6.06591116      6.44581229
    O      0.71383005      0.00000000      2.55656384      6.44581229
   72
Geometry Step: 1
   Ge      2.40220465      5.97909225      2.85782879      3.19950611
   Ge      5.63386635      9.04890775      5.76464621      3.19357412
   Ge      0.40886635     13.49309225      5.76464621      3.20904582
   Ge      7.62720465      1.53490775      2.85782879      3.20567493
   Si      1.51603682      3.67387657      7.70938825      3.10132767
   Si      6.51955912      3.67432148      0.91261657      3.09975218
   Si      6.52003418     11.35412343      0.91308675      3.09490423
   Si      1.51651188     11.35367852      7.70985843      3.09673727
   Si      6.74151188     11.18832148      7.70985843      3.09378059
   Si      1.29503418     11.18787657      0.91308675      3.09754724
   Si      1.29455912      3.83967852      0.91261657      3.10020146
   Si      6.74103682      3.84012343      7.70938825      3.09811678
   Si      5.63422553      5.97848878      5.76440812      3.12014544
   Si      2.40184547      9.04951122      2.85806688      3.12537310
   Si      7.62684547     13.49248878      2.85806688      3.11720142
   Si      0.40922553      1.53551122      5.76440812      3.12376135
   Si      2.56198505      5.97791199      5.91937582      3.12412026
   Si      5.47354791      5.97834846      2.70250961      3.12616093
   Si      5.47408595      9.05008801      2.70309918      3.12556397
   Si      2.56252309      9.04965154      5.91996539      3.12442460
   Si      7.78752309     13.49234846      5.91996539      3.11839105
   Si      0.24908595     13.49191199      2.70309918      3.12894639
   Si      0.24854791      1.53565154      2.70250961      3.13030164
   Si      7.78698505      1.53608801      5.91937582      3.12690012
    O      5.22517589      3.39941457      0.00021019      6.44682995
    O      5.22482411     11.62858543     -0.00021019      6.44568224
    O     -0.00017589     10.91341457     -0.00021019      6.46086736
    O      0.00017589      4.11458543      0.00021019      6.46152328
    O      1.37803340      2.46160031      6.64965745      6.42423348
    O      6.61907510      2.49989941      1.93634798      6.39577074
    O      6.65803760     12.56639969      1.97281755      6.42326972
    O      1.41699590     12.52810059      6.68612702      6.38741212
    O      6.64199590     10.01389941      6.68612702      6.39136496
    O      1.43303760      9.97560031      1.97281755      6.42735258
    O      1.39407510      5.01410059      1.93634798      6.39403226
    O      6.60303340      5.05239969      6.64965745      6.42182838
    O      1.68320840      5.06656195      6.90770821      6.42872811
    O      6.35280783      5.06635778      1.71460986      6.43421756
    O      6.35286260      9.96143805      1.71476679      6.43199594
    O      1.68326317      9.96164222      6.90786514      6.43094322
    O      6.90826317     12.58035778      6.90786514      6.41904818
    O      1.12786260     12.58056195      1.71476679      6.42242887
    O      1.12780783      2.44764222      1.71460986      6.42878898
    O      6.90820840      2.44743805      6.90770821      6.41953356
    O      2.61233401      3.75706396      0.00016249      6.44674201
    O      7.83733401      3.75693604      0.00016249      6.44305300
    O      7.83766599     11.27093604     -0.00016249      6.44260575
    O      2.61266599     11.27106396     -0.00016249      6.44602937
    O      3.97708320      5.84492927      2.28450860      6.43378757
    O      4.12132870      5.85006906      6.31630967      6.46828137
    O      4.05898780      9.18307073      6.33796640      6.43604519
    O      3.91474230      9.17793094      2.30616533      6.46705975
    O      9.13974230     13.36406906      2.30616533      6.47043222
    O     -1.16601220     13.35892927      6.33796640      6.43520112
    O     -1.10367130      1.66393094      6.31630967      6.48241821
    O      9.20208320      1.66907073      2.28450860      6.44887721
    O      2.33980572      5.47243385      4.45967683      6.42293760
    O      5.69375996      5.49159980      4.22666226      6.45574718
    O      5.69626528      9.55556615      4.16279817      6.42495201
    O      2.34231104      9.53640020      4.39581274      6.45901546
    O      7.56731104     13.00559980      4.39581274      6.44291790
    O      0.47126528     12.98643385      4.16279817      6.40705360
    O      0.46875996      2.02240020      4.22666226      6.45286921
    O      7.56480572      2.04156615      4.45967683      6.42075309
    O      1.89593318      7.57679035      2.74813179      6.41763322
    O      6.14013782      7.45120965      5.87434321      6.41610758
    O      7.12093318     -0.06279035      2.74813179      6.43627412
    O      0.91513782      0.06279035      5.87434321      6.42934543
    O      2.08706244      7.51401746      6.07042150      6.44979295
    O      5.94900856      7.51398254      2.55205350      6.45111502
    O      7.31206244     -0.00001746      6.07042150      6.45733453
    O      0.72400856      0.00001746      2.55205350      6.45830817
   72
Geometry Step: 2
   Ge      2.40124238      5.97778840      2.85670345      3.22203395
   Ge      5.63286021      9.04693787      5.76325426      3.22103922
   Ge      0.42145236     13.54364056      5.76888589      3.23583340
   Ge      7.63062068      1.53247240      2.85625529      3.22736318
   Si      1.51521710      3.67083636      7.72439513      3.09607092
   Si      6.51650788      3.69363614      0.89374691      3.09486466
   Si      6.51840139     11.35361311      0.91180372      3.09462396
   Si      1.51800673     11.33327505      7.74399053      3.09467449
   Si      6.75836085     11.20363004      7.75557048      3.09334943
   Si      1.29322757     11.18565926      0.90908011      3.09521037
   Si      1.29005464      3.81787026      0.88988332      3.09670087
   Si      6.75605737      3.84355642      7.73614182      3.09751612
   Si      5.62708571      5.95141638      5.76381734      3.12315096
   Si      2.40747256      9.07516465      2.85686949      3.12412812
   Si      7.62250012     13.50974520      2.85185359      3.12132593
   Si      0.39882873      1.55943743      5.76471821      3.11988287
   Si      2.56294719      5.98404669      5.94599649      3.12588390
   Si      5.50205510      5.97798627      2.70601650      3.12448581
   Si      5.47236223      9.04177490      2.67504703      3.12603887
   Si      2.53384693      9.04729318      5.91401586      3.12369715
   Si      7.78994303     13.51992141      5.92604635      3.12622042
   Si      0.23262095     13.52674186      2.66682197      3.13204376
   Si      0.23938872      1.53695757      2.69793402      3.12555663
   Si      7.81452212      1.52903379      5.94922923      3.12656554
    O      5.21447884      3.39256527     -0.00851708      6.43507768
    O      5.21564193     11.63581612     -0.00749182      6.43628800
    O     -0.02702255     10.90938676     -0.01975995      6.44708569
    O     -0.02765517      4.11913736     -0.02031246      6.44751098
    O      1.39182989      2.45963405      6.64970962      6.41998745
    O      6.57994760      2.50175200      1.93085355      6.39202054
    O      6.64592872     12.57317488      1.97665025      6.42276515
    O      1.45589565     12.52742935      6.69170857      6.39511304
    O      6.68204988     10.01757269      6.69442909      6.39624398
    O      1.42083791      9.97142390      1.97553968      6.42097811
    O      1.35651236      5.01496281      1.93302095      6.39622444
    O      6.61649121      5.05558224      6.64964800      6.42245822
    O      1.67254132      5.07455179      6.91156421      6.42904723
    O      6.36386988      5.07624774      1.71301462      6.42902983
    O      6.36403654      9.95376343      1.71149349      6.42749779
    O      1.67149954      9.95494021      6.91173765      6.42957307
    O      6.89856419     12.59004185      6.91061432      6.42965046
    O      1.13669587     12.59301934      1.71430042      6.42560623
    O      1.13790933      2.43780846      1.71345307      6.42711471
    O      6.89793644      2.44137885      6.91310986      6.42552877
    O      2.62372862      3.75653994     -0.00776919      6.44777888
    O      7.85068110      3.75827695     -0.00895299      6.44822063
    O      7.85089167     11.27009838     -0.00918242      6.44811425
    O      2.62372536     11.27203223     -0.00824038      6.44807617
    O      3.99154802      5.83428256      2.24754201      6.43792698
    O      4.12311323      5.84552931      6.33178632      6.46453666
    O      4.04556469      9.19455014      6.37551234      6.43890645
    O      3.91398067      9.18288136      2.29097222      6.46398385
    O      9.16482959     13.36192179      2.29741774      6.47243916
    O     -1.22027055     13.35175016      6.36491228      6.43975414
    O     -1.12933656      1.66726454      6.32557288      6.47095501
    O      9.25585487      1.67714423      2.25762489      6.43814521
    O      2.32798664      5.43545086      4.47704098      6.42596305
    O      5.69975091      5.47598528      4.22724204      6.45121227
    O      5.70851176      9.59337400      4.14745957      6.42437685
    O      2.33654784      9.55260849      4.39729164      6.45040551
    O      7.56121898     12.99133838      4.40066831      6.44674994
    O      0.48285776     12.95079978      4.14377734      6.41558910
    O      0.47404422      2.03903359      4.22374600      6.44703212
    O      7.55353507      2.07944402      4.48072922      6.41736097
    O      1.85749734      7.59492307      2.73835324      6.41849959
    O      6.17890711      7.43520417      5.88456758      6.41847410
    O      7.09476847     -0.12537014      2.74179223      6.42120833
    O      0.93966069      0.02850140      5.88077264      6.41854136
    O      2.07119217      7.51466262      6.07708871      6.44484337
    O      5.96503179      7.51548475      2.54573802      6.44532368
    O      7.30515479     -0.03124704      6.07486427      6.45594584
    O      0.72972380     -0.03308823      2.54802991      6.45657462
   72
Geometry Step: 3
   Ge      2.40254893      5.98090277      2.85900778      3.24928284
   Ge      5.63467093      9.04877991      5.76459134      3.24882971
   Ge      0.41560086     13.57344069      5.77505338      3.26583352
   Ge      7.64138079      1.51181566      2.85168229      3.25740534
   Si      1.49932135      3.67370575      7.73944049      3.09410183
   Si      6.51722853      3.72101648      0.86484161      3.09395019
   Si      6.52196795     11.35487946      0.90704977      3.09089286
   Si      1.50377245     11.30940940      7.77964029      3.09258929
   Si      6.77012470     11.22635726      7.80792881      3.09138963
   Si      1.28584233     11.18651125      0.89884719      3.09174523
   Si      1.28071859      3.79487782      0.85741711      3.09447651
   Si      6.76520577      3.84739467      7.76758733      3.09539085
   Si      5.61987773      5.92222211      5.76420600      3.12453224
   Si      2.41634023      9.10544161      2.85807690      3.12603107
   Si      7.63276673     13.50966894      2.84976176      3.12659936
   Si      0.38698307      1.56850382      5.76818977      3.12309171
   Si      2.56567622      5.99481671      5.97499078      3.12799199
   Si      5.53279498      5.98196134      2.71520128      3.12337863
   Si      5.47024564      9.03302998      2.64677305      3.12816794
   Si      2.50215264      9.04657593      5.90734986      3.12237358
   Si      7.77843662     13.55115538      5.92928206      3.13136447
   Si      0.21019117     13.56822426      2.63232190      3.13905944
   Si      0.24648124      1.52234057      2.69688674      3.12813506
   Si      7.84308951      1.50690692      5.98814758      3.13272001
    O      5.20791783      3.38011674     -0.01484149      6.43812133
    O      5.21736012     11.64847872     -0.00606161      6.44028283
    O     -0.04716855     10.90342279     -0.03375500      6.45360327
    O     -0.05576978      4.12549592     -0.04175803      6.45408634
    O      1.41312016      2.45812428      6.65184154      6.41663001
    O      6.53828476      2.48556874      1.93938547      6.39671249
    O      6.62638541     12.57999359      1.97901845      6.41796683
    O      1.49088398     12.54347354      6.68357109      6.40032412
    O      6.72456709     10.01021451      6.69465431      6.39873110
    O      1.39669052      9.97159055      1.97349123      6.41452920
    O      1.31072306      5.02382836      1.93500200      6.39917658
    O      6.64071741      5.05119533      6.65737342      6.41837423
    O      1.65012968      5.07631960      6.92719855      6.42660111
    O      6.38775778      5.08602904      1.70365182      6.42307751
    O      6.38501439      9.94636336      1.70031519      6.42432689
    O      1.64921473      9.94620900      6.92115565      6.42335030
    O      6.88308974     12.60307053      6.91637269      6.42461601
    O      1.15223269     12.60548381      1.70701107      6.42426862
    O      1.15540742      2.42196932      1.71020748      6.42047606
    O      6.88125483      2.43596394      6.92525696      6.42306781
    O      2.64480296      3.75523386     -0.02427056      6.43832020
    O      7.87470370      3.76028054     -0.02590923      6.43950250
    O      7.86753069     11.26925783     -0.02080952      6.43923862
    O      2.63743899     11.27261094     -0.01934982      6.43873207
    O      3.99125113      5.82041907      2.20092339      6.44252089
    O      4.12457537      5.83825710      6.35777732      6.45736368
    O      4.04445685      9.20897254      6.42277273      6.44386369
    O      3.91188529      9.19022314      2.26547347      6.45657917
    O      9.18936114     13.36043421      2.28562841      6.47234159
    O     -1.23477765     13.34434173      6.39239597      6.44848426
    O     -1.15412533      1.67160977      6.33995611      6.46911355
    O      9.27458499      1.68693211      2.22657981      6.44561775
    O      2.31194990      5.38826079      4.47924755      6.42800677
    O      5.70861254      5.44971095      4.22539182      6.43953453
    O      5.72461857      9.64084187      4.14277785      6.42563462
    O      2.32793947      9.57895153      4.39802137      6.43871324
    O      7.55313775     12.97355775      4.40403213      6.43514570
    O      0.49616852     12.91386668      4.14091482      6.41687043
    O      0.48166113      2.06311502      4.21817933      6.43570111
    O      7.53856989      2.12493478      4.48346000      6.41903570
    O      1.80831420      7.59529664      2.72591410      6.42016631
    O      6.22858522      7.43038724      5.89752859      6.42034848
    O      7.06450013     -0.14514421      2.73365566      6.41896454
    O      0.96842203      0.01008272      5.88908004      6.41620954
    O      2.04475716      7.51240389      6.08720857      6.43594751
    O      5.99158657      7.51515348      2.53606799      6.43651437
    O      7.29700950     -0.05836723      6.08016349      6.44168084
    O      0.73551878     -0.06247231      2.54302373      6.44219239
   72
Geometry Step: 4
   Ge      2.40132606      5.98089543      2.85866947      3.26870379
   Ge      5.63902399      9.05227447      5.76784667      3.26973315
   Ge      0.40161671     13.58429907      5.77956113      3.28518432
   Ge      7.65245998      1.49329597      2.84770701      3.27920149
   Si      1.49585673      3.67372591      7.75639301      3.09420190
   Si      6.52293550      3.72672332      0.84551668      3.09762397
   Si      6.52966747     11.35846797      0.89895873      3.09127004
   Si      1.50229370     11.30957008      7.79956072      3.09117973
   Si      6.79823447     11.23332672      7.84680646      3.09327057
   Si      1.27256391     11.19040366      0.88034781      3.09190802
   Si      1.26775920      3.78947137      0.82973373      3.09621203
   Si      6.78996775      3.85063692      7.80071221      3.09621746
   Si      5.62487467      5.91184710      5.76933017      3.12941823
   Si      2.41360965      9.11543226      2.85570585      3.12997603
   Si      7.64753857     13.51448094      2.84717965      3.13311218
   Si      0.37839960      1.55945471      5.77436211      3.13033380
   Si      2.56139009      5.99395081      5.98472902      3.13311046
   Si      5.54200642      5.98211532      2.71678154      3.12883801
   Si      5.47380380      9.03436746      2.63885276      3.13483791
   Si      2.49181741      9.05004007      5.90831994      3.12629619
   Si      7.78693331     13.57319359      5.93786544      3.13673060
   Si      0.18468627     13.59349091      2.61678733      3.14404281
   Si      0.23563204      1.50159826      2.69024385      3.13388485
   Si      7.86700859      1.49046583      6.00874974      3.14186654
    O      5.19386359      3.36819037     -0.02948656      6.42824890
    O      5.21338049     11.66021859     -0.00995424      6.43094476
    O     -0.07241316     10.90130404     -0.05120668      6.43336716
    O     -0.09040875      4.12847329     -0.06956959      6.43420634
    O      1.43446801      2.45554685      6.65385113      6.41499022
    O      6.50441708      2.47209585      1.94500091      6.39544675
    O      6.60724229     12.58828931      1.98192007      6.41465590
    O      1.51817510     12.55529731      6.68024698      6.39559113
    O      6.76406046     10.01038583      6.70295801      6.39747415
    O      1.36846633      9.97427665      1.96899637      6.41317101
    O      1.26923714      5.02811234      1.93265482      6.39707231
    O      6.66915936      5.04207749      6.66993228      6.41820303
    O      1.62491195      5.07912924      6.94597463      6.42484910
    O      6.41790590      5.10009573      1.69277465      6.42033843
    O      6.41090843      9.93841758      1.68477722      6.42199563
    O      1.62093410      9.93616955      6.93409344      6.42068178
    O      6.86823289     12.61775536      6.92411639      6.42806526
    O      1.16598857     12.62178354      1.69894083      6.42667530
    O      1.17567768      2.40271777      1.70511244      6.42197743
    O      6.86721193      2.42912439      6.93955650      6.42922712
    O      2.65490943      3.75400670     -0.03463621      6.44602829
    O      7.89440056      3.76236955     -0.03942134      6.45062702
    O      7.87680109     11.26909435     -0.02620466      6.45180494
    O      2.63625827     11.27189464     -0.02048366      6.44802169
    O      3.99717128      5.80845035      2.15950058      6.43698843
    O      4.12606855      5.82997342      6.38961712      6.45413707
    O      4.03826185      9.22106619      6.46437328      6.43899974
    O      3.90967955      9.19816680      2.23410275      6.45324411
    O      9.21760443     13.36185984      2.27653589      6.45890967
    O     -1.25313503     13.34241474      6.40852640      6.43881379
    O     -1.18140495      1.67466718      6.35324100      6.45980653
    O      9.29801706      1.69305530      2.20489971      6.43832206
    O      2.29877176      5.34703863      4.48782867      6.42107128
    O      5.71809085      5.41770451      4.22387719      6.43364221
    O      5.73778622      9.68163715      4.13435583      6.41993221
    O      2.31878354      9.61050987      4.39885665      6.43396407
    O      7.54611840     12.95840820      4.40895594      6.42999289
    O      0.50444141     12.89151635      4.13475346      6.41210940
    O      0.48859019      2.08725470      4.21341473      6.43355874
    O      7.52896169      2.15783749      4.49199461      6.41665292
    O      1.76547434      7.60242611      2.71558275      6.41497842
    O      6.27136362      7.42238099      5.90819723      6.41502531
    O      7.04064691     -0.15814129      2.72685129      6.41314033
    O      0.99108774      0.00913058      5.89600766      6.41127220
    O      2.01280062      7.51007770      6.09829386      6.43218469
    O      6.02368589      7.51529497      2.52538673      6.43198492
    O      7.29181922     -0.07781488      6.08547698      6.44053335
    O      0.73839152     -0.08326527      2.53790671      6.43991793
   72
Geometry Step: 5
   Ge      2.39715676      5.97656058      2.85520089      3.28048996
   Ge      5.64586057      9.05704256      5.77298286      3.28039397
   Ge      0.39591226     13.59807336      5.77953011      3.29381226
   Ge      7.65889222      1.48911869      2.84760112      3.29041053
   Si      1.48208860      3.67093200      7.77426053      3.09448665
   Si      6.53132593      3.71507042      0.83400663      3.09744265
   Si      6.53978365     11.36286292      0.88928012      3.09304669
   Si      1.48976847     11.32082530      7.81429911      3.09388802
   Si      6.80251446     11.23674092      7.86736748      3.09427894
   Si      1.26036740     11.19792242      0.86304263      3.09343257
   Si      1.25629121      3.79194937      0.81110003      3.09756677
   Si      6.79173378      3.84514817      7.82291600      3.09389919
   Si      5.63857809      5.90798402      5.77882955      3.13442863
   Si      2.40343430      9.11405342      2.84995077      3.13642150
   Si      7.65446198     13.53133353      2.84431951      3.14154679
   Si      0.37315061      1.55073345      5.77947834      3.13641048
   Si      2.55309602      5.98221972      5.98551005      3.13859018
   Si      5.53996622      5.97733825      2.71123131      3.13520982
   Si      5.48039797      9.04158769      2.64066382      3.14065001
   Si      2.49358260      9.05361912      5.91402401      3.13332826
   Si      7.79659101     13.58999460      5.94779261      3.14232043
   Si      0.17742128     13.60749308      2.61333758      3.14970495
   Si      0.22256037      1.48617598      2.68328280      3.13965068
   Si      7.86799576      1.48461520      6.01464765      3.14461126
    O      5.18900676      3.35745026     -0.03837186      6.43380651
    O      5.21048919     11.67089793     -0.01312319      6.43834636
    O     -0.08211946     10.89871345     -0.05757884      6.43814418
    O     -0.10217420      4.13165684     -0.08190703      6.43863939
    O      1.44900622      2.45114605      6.65438203      6.41429009
    O      6.48331026      2.46209006      1.94760718      6.38866755
    O      6.59356229     12.59956674      1.98693983      6.41461562
    O      1.53571095     12.56359165      6.68106497      6.39417108
    O      6.79244713     10.01275081      6.71320538      6.39331654
    O      1.34204929      9.97748293      1.96430169      6.41215551
    O      1.23902116      5.03120030      1.92939423      6.39227048
    O      6.69209663      5.03575750      6.67976381      6.41614873
    O      1.60343354      5.08746936      6.96101314      6.42255138
    O      6.44689585      5.11595203      1.68321542      6.42046163
    O      6.43495812      9.92947069      1.66964920      6.42030478
    O      1.59164251      9.92889650      6.94929660      6.42109380
    O      6.85697975     12.63064102      6.93329562      6.42944632
    O      1.17281109     12.64025135      1.69245571      6.42781228
    O      1.19304660      2.38629543      1.69782373      6.42401139
    O      6.85988338      2.42013077      6.95224353      6.42753513
    O      2.66334977      3.75268281     -0.04722182      6.43847549
    O      7.91592828      3.76456994     -0.05538156      6.44261513
    O      7.89556495     11.26941149     -0.03833759      6.44462930
    O      2.64238897     11.27098309     -0.02913577      6.44184936
    O      3.99968800      5.80039457      2.12957345      6.42995998
    O      4.12767139      5.82312627      6.41899396      6.45588573
    O      4.03597166      9.22926677      6.49412044      6.43293095
    O      3.90782736      9.20471609      2.20487399      6.45257664
    O      9.23294780     13.36460338      2.26835865      6.46148628
    O     -1.26964593     13.34411649      6.41834975      6.43970401
    O     -1.19119866      1.67698752      6.36577515      6.46041290
    O      9.31581610      1.69582980      2.19057853      6.43290962
    O      2.29001014      5.31760903      4.49343994      6.41486315
    O      5.72572982      5.38788071      4.22540578      6.43399435
    O      5.74653401      9.71071189      4.13180437      6.41234451
    O      2.31135859      9.64004142      4.39969405      6.43242707
    O      7.54190371     12.95016035      4.41354672      6.43159583
    O      0.50765365     12.88484344      4.13067740      6.40918542
    O      0.49261547      2.10494183      4.21161694      6.43164860
    O      7.52558004      2.17456226      4.49876869      6.40890423
    O      1.73487312      7.60815318      2.70908713      6.40713656
    O      6.30164402      7.42048805      5.91499921      6.40882113