********************************************************************************
*                       GENERAL UTILITY LATTICE PROGRAM                        *
*                                 Julian Gale                                  *
*                       Curtin Institute for Computation                       *
*                    School of Molecular and Life Sciences                     *
*                    Curtin University, Western Australia                      *
********************************************************************************
* Version = 6.1.2 * Last modified =   3rd November 2022                        *
********************************************************************************
*  optimise     - perform optimisation run                                     *
*  conp         - constant pressure calculation                                *
*  property     - calculate properties for final geometry                      *
********************************************************************************

  Job Started  at 10:48.54  7th October    2025                               

  Number of CPUs =     1


  Total number of configurations input =      1

********************************************************************************
*  Input for Configuration =   1 : c00014.vasp                                 *
********************************************************************************

  Formula = Ge2Si22O48                                                  

  Number of irreducible atoms/shells =     120


  Total number atoms/shells =     120

  Dimensionality = 3               :  Bulk   



  Cartesian lattice vectors (Angstroms) :

       17.182800    0.000000    0.000000
        0.000000    7.513760    0.000000
        0.000000    0.000000   10.447700

  Cell parameters (Angstroms/Degrees):

  a =      17.1828    alpha =  90.0000
  b =       7.5138    beta  =  90.0000
  c =      10.4477    gamma =  90.0000

  Initial cell volume =        1348.875752 Angs**3

  Temperature of configuration =   0.00     K 

  Pressure of configuration =         0.000 GPa 

  Fractional coordinates of asymmetric unit :

--------------------------------------------------------------------------------
   No.  Atomic       x           y          z         Charge      Occupancy
        Label      (Frac)      (Frac)     (Frac)        (e)         (Frac)  
--------------------------------------------------------------------------------
      1 Ge    c    0.052090    0.000000    0.372270     4.00000    1.000000    
      2 Ge    c    0.339340 *  0.294090 *  0.982560 *   4.00000    1.000000    
      3 Si    c    0.447910 *  0.000000 *  0.372270 *   4.00000    1.000000    
      4 Si    c    0.947910 *  0.000000 *  0.627730 *   4.00000    1.000000    
      5 Si    c    0.552090 *  0.000000 *  0.627730 *   4.00000    1.000000    
      6 Si    c    0.556730 *  0.000000 *  0.122130 *   4.00000    1.000000    
      7 Si    c    0.943270 *  0.000000 *  0.122130 *   4.00000    1.000000    
      8 Si    c    0.443270 *  0.000000 *  0.877870 *   4.00000    1.000000    
      9 Si    c    0.056730 *  0.000000 *  0.877870 *   4.00000    1.000000    
     10 Si    c    0.160190 *  0.293910 *  0.273440 *   4.00000    1.000000    
     11 Si    c    0.339810 *  0.706090 *  0.273440 *   4.00000    1.000000    
     12 Si    c    0.839810 *  0.293910 *  0.726560 *   4.00000    1.000000    
     13 Si    c    0.660190 *  0.706090 *  0.726560 *   4.00000    1.000000    
     14 Si    c    0.839810 *  0.706090 *  0.726560 *   4.00000    1.000000    
     15 Si    c    0.660190 *  0.293910 *  0.726560 *   4.00000    1.000000    
     16 Si    c    0.160190 *  0.706090 *  0.273440 *   4.00000    1.000000    
     17 Si    c    0.339810 *  0.293910 *  0.273440 *   4.00000    1.000000    
     18 Si    c    0.660660 *  0.294090 *  0.017440 *   4.00000    1.000000    
     19 Si    c    0.839340 *  0.705910 *  0.017440 *   4.00000    1.000000    
     20 Si    c    0.160660 *  0.705910 *  0.982560 *   4.00000    1.000000    
     21 Si    c    0.339340 *  0.705910 *  0.982560 *   4.00000    1.000000    
     22 Si    c    0.160660 *  0.294090 *  0.982560 *   4.00000    1.000000    
     23 Si    c    0.660660 *  0.705910 *  0.017440 *   4.00000    1.000000    
     24 Si    c    0.839340 *  0.294090 *  0.017440 *   4.00000    1.000000    
     25 O3    c    0.106570 *  0.174340 *  0.366200 *   1.33043    1.000000    
     26 O2    c    0.393430 *  0.825660 *  0.366200 *   0.87073    1.000000    
     27 O2    c    0.893430 *  0.174340 *  0.633800 *   0.87073    1.000000    
     28 O2    c    0.606570 *  0.825660 *  0.633800 *   0.87073    1.000000    
     29 O2    c    0.893430 *  0.825660 *  0.633800 *   0.87073    1.000000    
     30 O2    c    0.606570 *  0.174340 *  0.633800 *   0.87073    1.000000    
     31 O3    c    0.106570 *  0.825660 *  0.366200 *   1.33043    1.000000    
     32 O2    c    0.393430 *  0.174340 *  0.366200 *   0.87073    1.000000    
     33 O3    c    0.000000 *  0.000000 *  0.500000 *   1.33043    1.000000    
     34 O2    c    0.500000 *  0.000000 *  0.500000 *   0.87073    1.000000    
     35 O3    c    0.994520 *  0.000000 *  0.250840 *   1.33043    1.000000    
     36 O2    c    0.505480 *  0.000000 *  0.250840 *   0.87073    1.000000    
     37 O2    c    0.005480 *  0.000000 *  0.749160 *   0.87073    1.000000    
     38 O2    c    0.494520 *  0.000000 *  0.749160 *   0.87073    1.000000    
     39 O2    c    0.610230 *  0.175520 *  0.115390 *   0.87073    1.000000    
     40 O2    c    0.889770 *  0.824480 *  0.115390 *   0.87073    1.000000    
     41 O3    c    0.389770 *  0.175520 *  0.884610 *   1.33043    1.000000    
     42 O2    c    0.110230 *  0.824480 *  0.884610 *   0.87073    1.000000    
     43 O2    c    0.389770 *  0.824480 *  0.884610 *   0.87073    1.000000    
     44 O2    c    0.110230 *  0.175520 *  0.884610 *   0.87073    1.000000    
     45 O2    c    0.610230 *  0.824480 *  0.115390 *   0.87073    1.000000    
     46 O2    c    0.889770 *  0.175520 *  0.115390 *   0.87073    1.000000    
     47 O2    c    0.500000 *  0.000000 *  0.000000 *   0.87073    1.000000    
     48 O2    c    0.000000 *  0.000000 *  0.000000 *   0.87073    1.000000    
     49 O2    c    0.151750 *  0.500000 *  0.313330 *   0.87073    1.000000    
     50 O2    c    0.348250 *  0.500000 *  0.313330 *   0.87073    1.000000    
     51 O2    c    0.848250 *  0.500000 *  0.686670 *   0.87073    1.000000    
     52 O2    c    0.651750 *  0.500000 *  0.686670 *   0.87073    1.000000    
     53 O2    c    0.250000 *  0.234950 *  0.285720 *   0.87073    1.000000    
     54 O2    c    0.250000 *  0.765050 *  0.285720 *   0.87073    1.000000    
     55 O2    c    0.750000 *  0.234950 *  0.714280 *   0.87073    1.000000    
     56 O2    c    0.750000 *  0.765050 *  0.714280 *   0.87073    1.000000    
     57 O2    c    0.131410 *  0.268650 *  0.127790 *   0.87073    1.000000    
     58 O2    c    0.368590 *  0.731350 *  0.127790 *   0.87073    1.000000    
     59 O2    c    0.868590 *  0.268650 *  0.872210 *   0.87073    1.000000    
     60 O2    c    0.631410 *  0.731350 *  0.872210 *   0.87073    1.000000    
     61 O2    c    0.868590 *  0.731350 *  0.872210 *   0.87073    1.000000    
     62 O2    c    0.631410 *  0.268650 *  0.872210 *   0.87073    1.000000    
     63 O2    c    0.131410 *  0.731350 *  0.127790 *   0.87073    1.000000    
     64 O3    c    0.368590 *  0.268650 *  0.127790 *   1.33043    1.000000    
     65 O2    c    0.653920 *  0.500000 *  0.058200 *   0.87073    1.000000    
     66 O2    c    0.846080 *  0.500000 *  0.058200 *   0.87073    1.000000    
     67 O3    c    0.346080 *  0.500000 *  0.941800 *   1.33043    1.000000    
     68 O2    c    0.153920 *  0.500000 *  0.941800 *   0.87073    1.000000    
     69 O2    c    0.750000 *  0.231060 *  0.027050 *   0.87073    1.000000    
     70 O2    c    0.750000 *  0.768940 *  0.027050 *   0.87073    1.000000    
     71 O3    c    0.250000 *  0.231060 *  0.972950 *   1.33043    1.000000    
     72 O2    c    0.250000 *  0.768940 *  0.972950 *   0.87073    1.000000    
     73 O3    s    0.106570 *  0.174340 *  0.366200 *  -3.33043    1.000000    
     74 O2    s    0.393430 *  0.825660 *  0.366200 *  -2.87073    1.000000    
     75 O2    s    0.893430 *  0.174340 *  0.633800 *  -2.87073    1.000000    
     76 O2    s    0.606570 *  0.825660 *  0.633800 *  -2.87073    1.000000    
     77 O2    s    0.893430 *  0.825660 *  0.633800 *  -2.87073    1.000000    
     78 O2    s    0.606570 *  0.174340 *  0.633800 *  -2.87073    1.000000    
     79 O3    s    0.106570 *  0.825660 *  0.366200 *  -3.33043    1.000000    
     80 O2    s    0.393430 *  0.174340 *  0.366200 *  -2.87073    1.000000    
     81 O3    s    0.000000 *  0.000000 *  0.500000 *  -3.33043    1.000000    
     82 O2    s    0.500000 *  0.000000 *  0.500000 *  -2.87073    1.000000    
     83 O3    s    0.994520 *  0.000000 *  0.250840 *  -3.33043    1.000000    
     84 O2    s    0.505480 *  0.000000 *  0.250840 *  -2.87073    1.000000    
     85 O2    s    0.005480 *  0.000000 *  0.749160 *  -2.87073    1.000000    
     86 O2    s    0.494520 *  0.000000 *  0.749160 *  -2.87073    1.000000    
     87 O2    s    0.610230 *  0.175520 *  0.115390 *  -2.87073    1.000000    
     88 O2    s    0.889770 *  0.824480 *  0.115390 *  -2.87073    1.000000    
     89 O3    s    0.389770 *  0.175520 *  0.884610 *  -3.33043    1.000000    
     90 O2    s    0.110230 *  0.824480 *  0.884610 *  -2.87073    1.000000    
     91 O2    s    0.389770 *  0.824480 *  0.884610 *  -2.87073    1.000000    
     92 O2    s    0.110230 *  0.175520 *  0.884610 *  -2.87073    1.000000    
     93 O2    s    0.610230 *  0.824480 *  0.115390 *  -2.87073    1.000000    
     94 O2    s    0.889770 *  0.175520 *  0.115390 *  -2.87073    1.000000    
     95 O2    s    0.500000 *  0.000000 *  0.000000 *  -2.87073    1.000000    
     96 O2    s    0.000000 *  0.000000 *  0.000000 *  -2.87073    1.000000    
     97 O2    s    0.151750 *  0.500000 *  0.313330 *  -2.87073    1.000000    
     98 O2    s    0.348250 *  0.500000 *  0.313330 *  -2.87073    1.000000    
     99 O2    s    0.848250 *  0.500000 *  0.686670 *  -2.87073    1.000000    
    100 O2    s    0.651750 *  0.500000 *  0.686670 *  -2.87073    1.000000    
    101 O2    s    0.250000 *  0.234950 *  0.285720 *  -2.87073    1.000000    
    102 O2    s    0.250000 *  0.765050 *  0.285720 *  -2.87073    1.000000    
    103 O2    s    0.750000 *  0.234950 *  0.714280 *  -2.87073    1.000000    
    104 O2    s    0.750000 *  0.765050 *  0.714280 *  -2.87073    1.000000    
    105 O2    s    0.131410 *  0.268650 *  0.127790 *  -2.87073    1.000000    
    106 O2    s    0.368590 *  0.731350 *  0.127790 *  -2.87073    1.000000    
    107 O2    s    0.868590 *  0.268650 *  0.872210 *  -2.87073    1.000000    
    108 O2    s    0.631410 *  0.731350 *  0.872210 *  -2.87073    1.000000    
    109 O2    s    0.868590 *  0.731350 *  0.872210 *  -2.87073    1.000000    
    110 O2    s    0.631410 *  0.268650 *  0.872210 *  -2.87073    1.000000    
    111 O2    s    0.131410 *  0.731350 *  0.127790 *  -2.87073    1.000000    
    112 O3    s    0.368590 *  0.268650 *  0.127790 *  -3.33043    1.000000    
    113 O2    s    0.653920 *  0.500000 *  0.058200 *  -2.87073    1.000000    
    114 O2    s    0.846080 *  0.500000 *  0.058200 *  -2.87073    1.000000    
    115 O3    s    0.346080 *  0.500000 *  0.941800 *  -3.33043    1.000000    
    116 O2    s    0.153920 *  0.500000 *  0.941800 *  -2.87073    1.000000    
    117 O2    s    0.750000 *  0.231060 *  0.027050 *  -2.87073    1.000000    
    118 O2    s    0.750000 *  0.768940 *  0.027050 *  -2.87073    1.000000    
    119 O3    s    0.250000 *  0.231060 *  0.972950 *  -3.33043    1.000000    
    120 O2    s    0.250000 *  0.768940 *  0.972950 *  -2.87073    1.000000    
--------------------------------------------------------------------------------



********************************************************************************
*  General input information                                                   *
********************************************************************************

  Species output for all configurations : 

--------------------------------------------------------------------------------
  Species    Type    Atomic    Atomic    Charge       Radii (Angs)     Library
                     Number     Mass       (e)     Cova   Ionic  VDW   Symbol
--------------------------------------------------------------------------------
    Ge       Core       32      72.61   4.000000   1.170  0.000  1.750 Ge       
    Si       Core       14      28.09   4.000000   1.200  0.000  2.100 Si       
    O1       Core        8      16.00   1.733957   0.730  0.000  0.000 O1       
    O2       Core        8      16.00   0.870733   0.730  0.000  1.360 O2       
    O3       Core        8      16.00   1.330431   0.730  0.000  1.360 O3       
    O1       Shell       8       0.00  -3.733957   0.730  0.000  0.000 O1       
    O2       Shell       8       0.00  -2.870733   0.730  0.000  0.000 O2       
    O3       Shell       8       0.00  -3.330431   0.730  0.000  0.000 O3       
--------------------------------------------------------------------------------


  Lattice summation method               =    Ewald          (3-D)
                                         =    Parry          (2-D)
                                         =    Saunders et al (1-D)
  Accuracy factor for lattice sums       =   12.000


  Analytic derivatives to be used

  Time limit = Infinity

  Maximum range for interatomic potentials =    100000.000000 Angstroms

  General interatomic potentials :

--------------------------------------------------------------------------------
Atom  Types   Potential      Parameter       Value         Units   Cutoffs(Ang)
  1     2                                                            Min /  Max 
--------------------------------------------------------------------------------
Si   c O1   s Buckingham    Buckingham A     1315.2478    eV        0.000 16.000
                            Buckingham rho  0.31775900    Ang       
                            Buckingham C     10.141118    eV*Ang^6  
--------------------------------------------------------------------------------
Si   c O2   s Buckingham    Buckingham A     1315.2478    eV        0.000 16.000
                            Buckingham rho  0.31775900    Ang       
                            Buckingham C     10.141118    eV*Ang^6  
--------------------------------------------------------------------------------
Si   c O3   s Buckingham    Buckingham A     1315.2478    eV        0.000 16.000
                            Buckingham rho  0.31775900    Ang       
                            Buckingham C     10.141118    eV*Ang^6  
--------------------------------------------------------------------------------
Ge   c O1   s Buckingham    Buckingham A     1497.3996    eV        0.000 16.000
                            Buckingham rho  0.32564600    Ang       
                            Buckingham C     16.808599    eV*Ang^6  
--------------------------------------------------------------------------------
Ge   c O2   s Buckingham    Buckingham A     1497.3996    eV        0.000 16.000
                            Buckingham rho  0.32564600    Ang       
                            Buckingham C     16.808599    eV*Ang^6  
--------------------------------------------------------------------------------
Ge   c O3   s Buckingham    Buckingham A     1497.3996    eV        0.000 16.000
                            Buckingham rho  0.32564600    Ang       
                            Buckingham C     16.808599    eV*Ang^6  
--------------------------------------------------------------------------------
O1   s O1   s Buckingham    Buckingham A     22764.000    eV        0.000 16.000
                            Buckingham rho  0.14900000    Ang       
                            Buckingham C     10.937044    eV*Ang^6  
--------------------------------------------------------------------------------
O1   s O2   s Buckingham    Buckingham A     22764.000    eV        0.000 16.000
                            Buckingham rho  0.14900000    Ang       
                            Buckingham C     10.937044    eV*Ang^6  
--------------------------------------------------------------------------------
O1   s O3   s Buckingham    Buckingham A     22764.000    eV        0.000 16.000
                            Buckingham rho  0.14900000    Ang       
                            Buckingham C     10.937044    eV*Ang^6  
--------------------------------------------------------------------------------
O2   s O2   s Buckingham    Buckingham A     22764.000    eV        0.000 16.000
                            Buckingham rho  0.14900000    Ang       
                            Buckingham C     10.937044    eV*Ang^6  
--------------------------------------------------------------------------------
O2   s O3   s Buckingham    Buckingham A     22764.000    eV        0.000 16.000
                            Buckingham rho  0.14900000    Ang       
                            Buckingham C     10.937044    eV*Ang^6  
--------------------------------------------------------------------------------
O3   s O3   s Buckingham    Buckingham A     22764.000    eV        0.000 16.000
                            Buckingham rho  0.14900000    Ang       
                            Buckingham C     10.937044    eV*Ang^6  
--------------------------------------------------------------------------------
O1   c O1   s Spring (c-s)  Spring k 2       180.31577    eV*Ang^-2 0.000  0.800
                            Spring k 4       0.0000000    eV*Ang^-4 
--------------------------------------------------------------------------------
O2   c O2   s Spring (c-s)  Spring k 2       75.969800    eV*Ang^-2 0.000  0.800
                            Spring k 4       0.0000000    eV*Ang^-4 
--------------------------------------------------------------------------------
O3   c O3   s Spring (c-s)  Spring k 2       128.14270    eV*Ang^-2 0.000  0.800
                            Spring k 4       0.0000000    eV*Ang^-4 
--------------------------------------------------------------------------------

  General Three-body potentials :

--------------------------------------------------------------------------------
  Atoms       Potential      Parameter       Value         Units   Cutoffs(Ang)
  1 / 2 / 3                                                          Min /  Max 
--------------------------------------------------------------------------------
Si    core    Harmonic      Three-body cnst  1.2614000    eV*rad^-2 0.000  1.900
O1    shel                  Three-body angl  109.47000    degrees   0.000  1.900
O1    shel                  Three-body k4    0.0000000    eV*rad^-4 0.000  3.500
                            Three-body k3    0.0000000    eV*rad^-3 
--------------------------------------------------------------------------------
Si    core    Harmonic      Three-body cnst  1.2614000    eV*rad^-2 0.000  1.900
O1    shel                  Three-body angl  109.47000    degrees   0.000  1.900
õ(1   shel                  Three-body k4    0.0000000    eV*rad^-4 0.000  3.500
                            Three-body k3    0.0000000    eV*rad^-3 
--------------------------------------------------------------------------------
Si    core    Harmonic      Three-body cnst  1.2614000    eV*rad^-2 0.000  1.900
õ(1   shel                  Three-body angl  109.47000    degrees   0.000  1.900
õ(1   shel                  Three-body k4    0.0000000    eV*rad^-4 0.000  3.500
                            Three-body k3    0.0000000    eV*rad^-3 
--------------------------------------------------------------------------------
Si    core    Harmonic      Three-body cnst  1.2614000    eV*rad^-2 0.000  1.900
O1    shel                  Three-body angl  109.47000    degrees   0.000  1.900
O2    shel                  Three-body k4    0.0000000    eV*rad^-4 0.000  3.500
                            Three-body k3    0.0000000    eV*rad^-3 
--------------------------------------------------------------------------------
Si    core    Harmonic      Three-body cnst  1.2614000    eV*rad^-2 0.000  1.900
O1    shel                  Three-body angl  109.47000    degrees   0.000  1.900
õ(2   shel                  Three-body k4    0.0000000    eV*rad^-4 0.000  3.500
                            Three-body k3    0.0000000    eV*rad^-3 
--------------------------------------------------------------------------------
Si    core    Harmonic      Three-body cnst  1.2614000    eV*rad^-2 0.000  1.900
O2    shel                  Three-body angl  109.47000    degrees   0.000  1.900
õ(1   shel                  Three-body k4    0.0000000    eV*rad^-4 0.000  3.500
                            Three-body k3    0.0000000    eV*rad^-3 
--------------------------------------------------------------------------------
Si    core    Harmonic      Three-body cnst  1.2614000    eV*rad^-2 0.000  1.900
õ(1   shel                  Three-body angl  109.47000    degrees   0.000  1.900
õ(2   shel                  Three-body k4    0.0000000    eV*rad^-4 0.000  3.500
                            Three-body k3    0.0000000    eV*rad^-3 
--------------------------------------------------------------------------------
Si    core    Harmonic      Three-body cnst  1.2614000    eV*rad^-2 0.000  1.900
O2    shel                  Three-body angl  109.47000    degrees   0.000  1.900
O2    shel                  Three-body k4    0.0000000    eV*rad^-4 0.000  3.500
                            Three-body k3    0.0000000    eV*rad^-3 
--------------------------------------------------------------------------------
Si    core    Harmonic      Three-body cnst  1.2614000    eV*rad^-2 0.000  1.900
O2    shel                  Three-body angl  109.47000    degrees   0.000  1.900
õ(2   shel                  Three-body k4    0.0000000    eV*rad^-4 0.000  3.500
                            Three-body k3    0.0000000    eV*rad^-3 
--------------------------------------------------------------------------------
Si    core    Harmonic      Three-body cnst  1.2614000    eV*rad^-2 0.000  1.900
õ(2   shel                  Three-body angl  109.47000    degrees   0.000  1.900
õ(2   shel                  Three-body k4    0.0000000    eV*rad^-4 0.000  3.500
                            Three-body k3    0.0000000    eV*rad^-3 
--------------------------------------------------------------------------------

********************************************************************************
*  Output for configuration   1 : c00014.vasp                                  *
********************************************************************************


  Components of energy : 

--------------------------------------------------------------------------------
  Interatomic potentials     =         752.31450448 eV    
  Three-body potentials      =           0.01561127 eV    
  Monopole - monopole (real) =       -2676.00317478 eV    
  Monopole - monopole (recip)=       -1115.35404472 eV    
  Monopole - monopole (total)=       -3791.35721950 eV    
--------------------------------------------------------------------------------
  Total lattice energy       =       -3039.02710375 eV    
--------------------------------------------------------------------------------
  Total lattice energy       =         -293219.6597 kJ/(mole unit cells)
--------------------------------------------------------------------------------


  Number of variables =      363

  Maximum number of calculations  =          1000
  Maximum Hessian update interval =            10
  Maximum step size               =   0.100000000
  Maximum parameter tolerance     =   0.000010000
  Maximum function  tolerance     =   0.000010000
  Maximum gradient  tolerance     =   0.001000000
  Maximum gradient  component     =   0.010000000

  Symmetry not applied to optimisation

  Cell parameters to be optimised using strains

  Newton-Raphson optimiser to be used

  BFGS hessian update to be used

  Lower half triangular hessian to be used

  Minimiser to switch to RFO
  When gradient norm is less than     0.050000

  Dumpfile to be written after every cycle

  Start of bulk optimisation :

  Cycle:      0 Energy:     -3039.027104  Gnorm:      4.280603  CPU:    0.098
  ** Hessian calculated **
  Cycle:      1 Energy:     -3050.916140  Gnorm:      3.505877  CPU:    0.285
  ** Hessian calculated **
  Cycle:      2 Energy:     -3071.045072  Gnorm:      0.764210  CPU:    0.484
  ** Hessian calculated **
  Cycle:      3 Energy:     -3073.125431  Gnorm:      0.512321  CPU:    0.700
  ** Hessian calculated **
  Cycle:      4 Energy:     -3073.870191  Gnorm:      0.270341  CPU:    0.899
  Cycle:      5 Energy:     -3074.078426  Gnorm:      0.163752  CPU:    1.003
  Cycle:      6 Energy:     -3074.221775  Gnorm:      0.127936  CPU:    1.126
  Cycle:      7 Energy:     -3074.360040  Gnorm:      0.102406  CPU:    1.249
  Cycle:      8 Energy:     -3074.473448  Gnorm:      0.086577  CPU:    1.372
  Cycle:      9 Energy:     -3074.526853  Gnorm:      0.064015  CPU:    1.476
  Cycle:     10 Energy:     -3074.558896  Gnorm:      0.047084  CPU:    1.579
  ** Hessian has required structure
  Cycle:     11 Energy:     -3074.569478  Gnorm:      0.061925  CPU:    1.724
  ** Hessian has required structure
  Cycle:     12 Energy:     -3074.578330  Gnorm:      0.064732  CPU:    1.869
  ** Hessian has required structure
  Cycle:     13 Energy:     -3074.589975  Gnorm:      0.067917  CPU:    2.013
  ** Hessian has wrong structure
  ** Imaginary eigenvectors =   3
  Cycle:     14 Energy:     -3074.611406  Gnorm:      0.067845  CPU:    2.471
  ** Hessian has wrong structure
  ** Imaginary eigenvectors =   2
  ** Hessian has wrong structure
  ** Imaginary eigenvectors =   2
  Cycle:     15 Energy:     -3074.646819  Gnorm:      0.071001  CPU:    3.036
  ** Hessian has wrong structure
  ** Imaginary eigenvectors =   1
  ** Hessian has required structure
  Cycle:     16 Energy:     -3074.848743  Gnorm:      0.046314  CPU:    3.496
  ** Hessian has required structure
  Cycle:     17 Energy:     -3074.957030  Gnorm:      0.028307  CPU:    3.677
  ** Hessian has required structure
  Cycle:     18 Energy:     -3074.976561  Gnorm:      0.032763  CPU:    3.850
  ** Hessian has required structure
  Cycle:     19 Energy:     -3075.026816  Gnorm:      0.020674  CPU:    3.998
  ** Hessian has required structure
  Cycle:     20 Energy:     -3075.043656  Gnorm:      0.021122  CPU:    4.150
  ** Hessian has required structure
  Cycle:     21 Energy:     -3075.061264  Gnorm:      0.017528  CPU:    4.303
  ** Hessian has required structure
  Cycle:     22 Energy:     -3075.070287  Gnorm:      0.016438  CPU:    4.457
  ** Hessian has required structure
  Cycle:     23 Energy:     -3075.081647  Gnorm:      0.011394  CPU:    4.637
  ** Hessian has required structure
  Cycle:     24 Energy:     -3075.087156  Gnorm:      0.009877  CPU:    4.791
  ** Hessian has required structure
  Cycle:     25 Energy:     -3075.091766  Gnorm:      0.008789  CPU:    4.962
  ** Hessian has required structure
  Cycle:     26 Energy:     -3075.097635  Gnorm:      0.008357  CPU:    5.223
  ** Hessian has required structure
  Cycle:     27 Energy:     -3075.105393  Gnorm:      0.013842  CPU:    5.393
  ** Hessian has required structure
  Cycle:     28 Energy:     -3075.108802  Gnorm:      0.010073  CPU:    5.557
  ** Hessian has required structure
  Cycle:     29 Energy:     -3075.110617  Gnorm:      0.005474  CPU:    5.719
  ** Hessian has required structure
  Cycle:     30 Energy:     -3075.111608  Gnorm:      0.005703  CPU:    5.899
  ** Hessian has required structure
  Cycle:     31 Energy:     -3075.112511  Gnorm:      0.004920  CPU:    6.080
  ** Hessian has required structure
  Cycle:     32 Energy:     -3075.112966  Gnorm:      0.004001  CPU:    6.261
  ** Hessian has required structure
  Cycle:     33 Energy:     -3075.113253  Gnorm:      0.003538  CPU:    6.443
  ** Hessian has required structure
  Cycle:     34 Energy:     -3075.113491  Gnorm:      0.002511  CPU:    6.624
  ** Hessian has required structure
  Cycle:     35 Energy:     -3075.113641  Gnorm:      0.002316  CPU:    6.787
  ** Hessian has required structure
  Cycle:     36 Energy:     -3075.113869  Gnorm:      0.001304  CPU:    7.052
  ** Hessian has required structure
  Cycle:     37 Energy:     -3075.113926  Gnorm:      0.000884  CPU:    7.212
  ** Hessian has required structure
  Cycle:     38 Energy:     -3075.113962  Gnorm:      0.000485  CPU:    7.393
  ** Hessian has required structure
  Cycle:     39 Energy:     -3075.113967  Gnorm:      0.000396  CPU:    7.535
  ** Hessian has required structure
  Cycle:     40 Energy:     -3075.113976  Gnorm:      0.000165  CPU:    7.754
  ** Hessian has required structure
  Cycle:     41 Energy:     -3075.110092  Gnorm:      0.020582  CPU:    7.951
  ** Hessian has required structure
  Cycle:     42 Energy:     -3075.112839  Gnorm:      0.011141  CPU:    8.215
  ** Hessian has required structure
  Cycle:     43 Energy:     -3075.113694  Gnorm:      0.005565  CPU:    8.393
  ** Hessian has required structure
  Cycle:     44 Energy:     -3075.113876  Gnorm:      0.003338  CPU:    8.554
  ** Hessian has required structure
  Cycle:     45 Energy:     -3075.113940  Gnorm:      0.002002  CPU:    8.715
  ** Hessian has required structure
  Cycle:     46 Energy:     -3075.113963  Gnorm:      0.001201  CPU:    8.875
  ** Hessian has required structure
  Cycle:     47 Energy:     -3075.113972  Gnorm:      0.000721  CPU:    9.034
  ** Hessian has required structure
  Cycle:     48 Energy:     -3075.113974  Gnorm:      0.000504  CPU:    9.176
  ** Hessian has required structure
  Cycle:     49 Energy:     -3075.113975  Gnorm:      0.000353  CPU:    9.319
  ** Hessian has required structure
  Cycle:     50 Energy:     -3075.113976  Gnorm:      0.000247  CPU:    9.463
  ** Hessian has required structure
  Cycle:     51 Energy:     -3075.113976  Gnorm:      0.000173  CPU:    9.608
  ** Hessian has required structure
  Cycle:     52 Energy:     -3075.113976  Gnorm:      0.000121  CPU:    9.840
  ** Hessian has required structure
  Cycle:     53 Energy:     -3075.113976  Gnorm:      0.000080  CPU:   10.040
  ** Hessian has required structure


  **** Optimisation achieved ****


  Final energy =   -3075.11397560 eV      
  Final Gnorm  =       0.00005596

  Components of energy : 

--------------------------------------------------------------------------------
  Interatomic potentials     =         817.07515796 eV    
  Three-body potentials      =           0.23579928 eV    
  Monopole - monopole (real) =       -2243.53764338 eV    
  Monopole - monopole (recip)=       -1648.88728947 eV    
  Monopole - monopole (total)=       -3892.42493284 eV    
--------------------------------------------------------------------------------
  Total lattice energy       =       -3075.11397560 eV    
--------------------------------------------------------------------------------
  Total lattice energy       =         -296701.4912 kJ/(mole unit cells)
--------------------------------------------------------------------------------

  Final fractional coordinates of atoms :

--------------------------------------------------------------------------------
   No.  Atomic        x           y          z          Radius
        Label       (Frac)      (Frac)     (Frac)       (Angs) 
--------------------------------------------------------------------------------
     1  Ge    c     0.052090    0.000000    0.372270    0.000000
     2  Ge    c     0.332082    0.281671    0.972674    0.000000
     3  Si    c     0.452481    0.985511    0.378880    0.000000
     4  Si    c     0.949307    0.993744    0.632568    0.000000
     5  Si    c     0.552946    0.986640    0.638579    0.000000
     6  Si    c     0.552829    0.995971    0.126145    0.000000
     7  Si    c     0.941921    0.989799    0.114588    0.000000
     8  Si    c     0.441790    0.991756    0.883587    0.000000
     9  Si    c     0.053479    0.002824    0.879716    0.000000
    10  Si    c     0.159867    0.306203    0.292906    0.000000
    11  Si    c     0.349155    0.682486    0.284786    0.000000
    12  Si    c     0.842670    0.295137    0.730456    0.000000
    13  Si    c     0.659793    0.685642    0.718609    0.000000
    14  Si    c     0.838296    0.697223    0.729782    0.000000
    15  Si    c     0.663166    0.282972    0.723012    0.000000
    16  Si    c     0.169733    0.710097    0.294694    0.000000
    17  Si    c     0.338566    0.277117    0.284701    0.000000
    18  Si    c     0.661346    0.286895    0.029017    0.000000
    19  Si    c     0.832092    0.697952    0.037296    0.000000
    20  Si    c     0.162935    0.712266    0.990657    0.000000
    21  Si    c     0.344214    0.685186    0.980237    0.000000
    22  Si    c     0.149871    0.311940    0.986337    0.000000
    23  Si    c     0.653295    0.686351    0.025312    0.000000
    24  Si    c     0.841081    0.300448    0.036945    0.000000
    25  O3    c     0.101845    0.195695    0.379796    0.000000
    26  O2    c     0.407644    0.800547    0.369807    0.000000
    27  O2    c     0.899521    0.171410    0.649242    0.000000
    28  O2    c     0.604546    0.809715    0.630823    0.000000
    29  O2    c     0.894788    0.825212    0.652535    0.000000
    30  O2    c     0.609893    0.154205    0.637247    0.000000
    31  O3    c     0.120715    0.834112    0.387121    0.000000
    32  O2    c     0.391918    0.146664    0.370499    0.000000
    33  O3    c     0.980999    0.988303    0.487379    0.000000
    34  O2    c     0.494112    0.996466    0.518351    0.000000
    35  O3    c     0.006279    0.974353    0.223630    0.000000
    36  O2    c     0.518769    0.998586    0.270525    0.000000
    37  O2    c     0.023877    0.992215    0.730078    0.000000
    38  O2    c     0.503128    0.984246    0.769382    0.000000
    39  O2    c     0.613927    0.154010    0.117866    0.000000
    40  O2    c     0.879903    0.832361    0.126589    0.000000
    41  O3    c     0.380261    0.147051    0.866016    0.000000
    42  O2    c     0.118553    0.852538    0.900166    0.000000
    43  O2    c     0.394876    0.809972    0.888946    0.000000
    44  O2    c     0.088224    0.195693    0.905930    0.000000
    45  O2    c     0.594563    0.809229    0.103622    0.000000
    46  O2    c     0.895993    0.175382    0.124595    0.000000
    47  O2    c     0.484706    0.030153    0.021493    0.000000
    48  O2    c     0.981097    0.969101    0.972946    0.000000
    49  O2    c     0.142860    0.510689    0.316235    0.000000
    50  O2    c     0.367513    0.476856    0.305792    0.000000
    51  O2    c     0.862656    0.496979    0.698823    0.000000
    52  O2    c     0.639879    0.483224    0.689358    0.000000
    53  O2    c     0.249241    0.261088    0.330847    0.000000
    54  O2    c     0.261310    0.725875    0.327791    0.000000
    55  O2    c     0.753731    0.252709    0.690011    0.000000
    56  O2    c     0.749126    0.726612    0.683283    0.000000
    57  O2    c     0.146316    0.258753    0.139619    0.000000
    58  O2    c     0.360333    0.731687    0.132575    0.000000
    59  O2    c     0.855438    0.258744    0.884455    0.000000
    60  O2    c     0.645063    0.727585    0.871141    0.000000
    61  O2    c     0.844501    0.736659    0.884019    0.000000
    62  O2    c     0.649430    0.241259    0.875993    0.000000
    63  O2    c     0.154883    0.766355    0.142831    0.000000
    64  O3    c     0.344013    0.221402    0.134366    0.000000
    65  O2    c     0.631550    0.484764    0.054725    0.000000
    66  O2    c     0.861533    0.501339    0.070353    0.000000
    67  O3    c     0.368423    0.489167    0.950192    0.000000
    68  O2    c     0.128237    0.517788    0.968176    0.000000
    69  O2    c     0.751308    0.266086    0.069835    0.000000
    70  O2    c     0.741530    0.721008    0.072064    0.000000
    71  O3    c     0.234807    0.275739    0.931895    0.000000
    72  O2    c     0.252804    0.713014    0.949212    0.000000
    73  O3    s     0.103815    0.191266    0.370206    0.000000
    74  O2    s     0.405938    0.807188    0.361339    0.000000
    75  O2    s     0.898429    0.166256    0.656719    0.000000
    76  O2    s     0.605150    0.814873    0.641335    0.000000
    77  O2    s     0.894257    0.828930    0.659232    0.000000
    78  O2    s     0.609751    0.150647    0.646957    0.000000
    79  O3    s     0.120347    0.834376    0.376280    0.000000
    80  O2    s     0.392573    0.143599    0.361875    0.000000
    81  O3    s     0.983884    0.989933    0.492811    0.000000
    82  O2    s     0.496247    0.994003    0.516329    0.000000
    83  O3    s     0.002925    0.978347    0.224143    0.000000
    84  O2    s     0.515233    0.996796    0.265987    0.000000
    85  O2    s     0.019225    0.993548    0.736027    0.000000
    86  O2    s     0.501516    0.985462    0.768026    0.000000
    87  O2    s     0.612666    0.151903    0.108521    0.000000
    88  O2    s     0.881113    0.833947    0.115337    0.000000
    89  O3    s     0.382475    0.142602    0.876683    0.000000
    90  O2    s     0.116498    0.853112    0.908167    0.000000
    91  O2    s     0.394291    0.815627    0.898581    0.000000
    92  O2    s     0.091268    0.187848    0.911974    0.000000
    93  O2    s     0.596705    0.815500    0.097103    0.000000
    94  O2    s     0.894743    0.169932    0.113985    0.000000
    95  O2    s     0.487702    0.022319    0.018421    0.000000
    96  O2    s     0.984990    0.975103    0.977738    0.000000
    97  O2    s     0.147633    0.509890    0.311351    0.000000
    98  O2    s     0.362503    0.477989    0.301341    0.000000
    99  O2    s     0.857918    0.496669    0.705489    0.000000
   100  O2    s     0.644528    0.483577    0.696106    0.000000
   101  O2    s     0.249243    0.267554    0.322023    0.000000
   102  O2    s     0.260970    0.719481    0.319625    0.000000
   103  O2    s     0.753474    0.260520    0.697870    0.000000
   104  O2    s     0.749075    0.719072    0.692003    0.000000
   105  O2    s     0.148063    0.269115    0.139449    0.000000
   106  O2    s     0.357453    0.721674    0.132833    0.000000
   107  O2    s     0.852505    0.267117    0.884198    0.000000
   108  O2    s     0.647531    0.718702    0.871485    0.000000
   109  O2    s     0.842443    0.728144    0.883792    0.000000
   110  O2    s     0.652163    0.250524    0.876058    0.000000
   111  O2    s     0.157234    0.755033    0.142293    0.000000
   112  O3    s     0.342483    0.231911    0.136219    0.000000
   113  O2    s     0.637023    0.485246    0.048844    0.000000
   114  O2    s     0.856217    0.500579    0.063261    0.000000
   115  O3    s     0.362895    0.492698    0.955192    0.000000
   116  O2    s     0.134077    0.516871    0.972430    0.000000
   117  O2    s     0.751271    0.272225    0.061699    0.000000
   118  O2    s     0.741764    0.714698    0.063208    0.000000
   119  O3    s     0.234138    0.279939    0.940855    0.000000
   120  O2    s     0.252759    0.709893    0.957112    0.000000
--------------------------------------------------------------------------------

  Final Cartesian lattice vectors (Angstroms) :

       17.187550    0.044881   -0.085387
        0.019931    7.631550    0.006233
       -0.051990    0.007101   10.197331


  Final cell parameters and derivatives :

--------------------------------------------------------------------------------
       a           17.187821 Angstrom     dE/de1(xx)    -0.003064 eV/strain
       b            7.631579 Angstrom     dE/de2(yy)    -0.003039 eV/strain
       c           10.197466 Angstrom     dE/de3(zz)     0.009697 eV/strain
       alpha       89.914070 Degrees      dE/de4(yz)    -0.000344 eV/strain
       beta        90.576650 Degrees      dE/de5(xz)     0.000059 eV/strain
       gamma       89.700985 Degrees      dE/de6(xy)     0.001618 eV/strain
--------------------------------------------------------------------------------

  Primitive cell volume =          1337.516153 Angs**3

  Density of cell =      1.901030 g/cm**3

  Non-primitive cell volume =          1337.516153 Angs**3


  Final internal derivatives :

--------------------------------------------------------------------------------
   No.  Atomic          a             b             c           Radius
        Label          (eV)          (eV)          (eV)        (eV/Angs)
--------------------------------------------------------------------------------
      1 Ge    c       0.000000      0.000000      0.000000      0.000000
      2 Ge    c      -0.001260      0.000234     -0.002174      0.000000
      3 Si    c      -0.003630      0.000403     -0.001076      0.000000
      4 Si    c      -0.003279      0.000635      0.001568      0.000000
      5 Si    c       0.003717     -0.000554      0.000305      0.000000
      6 Si    c       0.002835     -0.000564     -0.001434      0.000000
      7 Si    c      -0.003365      0.000569      0.000130      0.000000
      8 Si    c      -0.003418      0.000623     -0.000045      0.000000
      9 Si    c       0.002953     -0.000306      0.001517      0.000000
     10 Si    c       0.002383      0.000663      0.001720      0.000000
     11 Si    c      -0.002060     -0.000532      0.002116      0.000000
     12 Si    c      -0.000876     -0.000053     -0.002320      0.000000
     13 Si    c       0.001236     -0.000115     -0.001959      0.000000
     14 Si    c      -0.001782     -0.000755     -0.002000      0.000000
     15 Si    c       0.002100      0.000551     -0.002035      0.000000
     16 Si    c       0.001126     -0.000061      0.002086      0.000000
     17 Si    c      -0.001025      0.000280      0.002198      0.000000
     18 Si    c       0.001893      0.000915      0.001862      0.000000
     19 Si    c      -0.001992     -0.000637      0.002045      0.000000
     20 Si    c       0.001309     -0.000362     -0.002058      0.000000
     21 Si    c      -0.002156     -0.000885     -0.001800      0.000000
     22 Si    c       0.001730      0.000624     -0.002185      0.000000
     23 Si    c       0.000621      0.000001      0.002407      0.000000
     24 Si    c      -0.001226      0.000157      0.002041      0.000000
     25 O3    c      -0.001449     -0.000605      0.000194      0.000000
     26 O2    c       0.000609      0.000309     -0.000007      0.000000
     27 O2    c       0.000506     -0.000522      0.000291      0.000000
     28 O2    c      -0.001101      0.000734      0.000307      0.000000
     29 O2    c       0.000716      0.000338     -0.000132      0.000000
     30 O2    c      -0.000667     -0.000323      0.000053      0.000000
     31 O3    c      -0.001702      0.000789     -0.000680      0.000000
     32 O2    c       0.001287     -0.000679     -0.000146      0.000000
     33 O3    c       0.000819     -0.000101     -0.002235      0.000000
     34 O2    c       0.000219      0.000108      0.000812      0.000000
     35 O3    c      -0.000422     -0.000292     -0.001348      0.000000
     36 O2    c      -0.000464      0.000049      0.001291      0.000000
     37 O2    c      -0.000864     -0.000098     -0.001713      0.000000
     38 O2    c      -0.000325     -0.000038      0.000611      0.000000
     39 O2    c      -0.001063     -0.000525      0.000303      0.000000
     40 O2    c       0.000727      0.000348     -0.000038      0.000000
     41 O3    c       0.002161     -0.001027      0.000505      0.000000
     42 O2    c      -0.001553      0.000711     -0.000108      0.000000
     43 O2    c       0.000984      0.000472     -0.000255      0.000000
     44 O2    c      -0.000505     -0.000272     -0.000025      0.000000
     45 O2    c      -0.000204      0.000460     -0.000279      0.000000
     46 O2    c       0.000899     -0.000706     -0.000336      0.000000
     47 O2    c       0.000562      0.000324      0.001096      0.000000
     48 O2    c       0.000698     -0.000160     -0.001184      0.000000
     49 O2    c       0.000205     -0.000387     -0.000296      0.000000
     50 O2    c      -0.000275      0.000256     -0.000268      0.000000
     51 O2    c      -0.000337      0.000431      0.000395      0.000000
     52 O2    c       0.000269     -0.000146      0.000380      0.000000
     53 O2    c      -0.000518      0.000146     -0.000658      0.000000
     54 O2    c       0.000206     -0.000149     -0.000673      0.000000
     55 O2    c      -0.000672      0.000169      0.000614      0.000000
     56 O2    c       0.000266     -0.000139      0.000640      0.000000
     57 O2    c      -0.000569     -0.000736      0.000195      0.000000
     58 O2    c       0.001029      0.000710     -0.000245      0.000000
     59 O2    c       0.001009     -0.000559      0.000264      0.000000
     60 O2    c      -0.000833      0.000604     -0.000283      0.000000
     61 O2    c       0.000713      0.000607     -0.000089      0.000000
     62 O2    c      -0.000993     -0.000664      0.000176      0.000000
     63 O2    c      -0.000812      0.000759     -0.000072      0.000000
     64 O3    c       0.000842     -0.001154     -0.000094      0.000000
     65 O2    c       0.000438     -0.000489     -0.000358      0.000000
     66 O2    c      -0.000354      0.000219     -0.000405      0.000000
     67 O3    c      -0.000497      0.000746      0.000532      0.000000
     68 O2    c       0.000331     -0.000300      0.000264      0.000000
     69 O2    c      -0.000257      0.000108     -0.000599      0.000000
     70 O2    c       0.000651     -0.000118     -0.000653      0.000000
     71 O3    c      -0.000136      0.000111      0.001115      0.000000
     72 O2    c       0.000353     -0.000052      0.000616      0.000000
     73 O3    s       0.000961      0.000289      0.000637      0.000000
     74 O2    s      -0.000407     -0.000096      0.000554      0.000000
     75 O2    s      -0.000133      0.000176     -0.000525      0.000000
     76 O2    s       0.000464     -0.000241     -0.000770      0.000000
     77 O2    s      -0.000287     -0.000108     -0.000366      0.000000
     78 O2    s       0.000402      0.000127     -0.000703      0.000000
     79 O3    s       0.001058     -0.000440      0.001133      0.000000
     80 O2    s      -0.000394      0.000209      0.000528      0.000000
     81 O3    s      -0.000614      0.000090      0.001016      0.000000
     82 O2    s      -0.000143     -0.000064     -0.000329      0.000000
     83 O3    s       0.000123      0.000247      0.000865      0.000000
     84 O2    s       0.000278     -0.000045     -0.000239      0.000000
     85 O2    s       0.000594      0.000105      0.000314      0.000000
     86 O2    s       0.000150     -0.000015     -0.000291      0.000000
     87 O2    s       0.000572      0.000196      0.000367      0.000000
     88 O2    s      -0.000535     -0.000157      0.000768      0.000000
     89 O3    s      -0.001416      0.000565     -0.000941      0.000000
     90 O2    s       0.000573     -0.000227     -0.000377      0.000000
     91 O2    s      -0.000697     -0.000193     -0.000575      0.000000
     92 O2    s       0.000481      0.000067     -0.000364      0.000000
     93 O2    s       0.000166     -0.000157      0.000494      0.000000
     94 O2    s      -0.000441      0.000239      0.000824      0.000000
     95 O2    s       0.000106     -0.000296     -0.000319      0.000000
     96 O2    s      -0.000236      0.000089      0.000240      0.000000
     97 O2    s       0.000471      0.000015      0.000476      0.000000
     98 O2    s      -0.000368     -0.000048      0.000457      0.000000
     99 O2    s      -0.000247     -0.000057     -0.000657      0.000000
    100 O2    s       0.000355      0.000006     -0.000618      0.000000
    101 O2    s       0.000087      0.000160      0.000761      0.000000
    102 O2    s       0.000090     -0.000173      0.000754      0.000000
    103 O2    s       0.000092      0.000113     -0.000775      0.000000
    104 O2    s       0.000041     -0.000139     -0.000837      0.000000
    105 O2    s       0.000047      0.000268      0.000041      0.000000
    106 O2    s      -0.000412     -0.000265      0.000085      0.000000
    107 O2    s      -0.000378      0.000167     -0.000081      0.000000
    108 O2    s       0.000303     -0.000196      0.000015      0.000000
    109 O2    s      -0.000136     -0.000220     -0.000008      0.000000
    110 O2    s       0.000353      0.000270     -0.000081      0.000000
    111 O2    s       0.000316     -0.000263      0.000030      0.000000
    112 O3    s      -0.000386      0.000549      0.000007      0.000000
    113 O2    s       0.000334      0.000103      0.000578      0.000000
    114 O2    s      -0.000386     -0.000066      0.000646      0.000000
    115 O3    s      -0.000506     -0.000262     -0.000625      0.000000
    116 O2    s       0.000358      0.000020     -0.000475      0.000000
    117 O2    s      -0.000056      0.000153      0.000715      0.000000
    118 O2    s      -0.000087     -0.000125      0.000841      0.000000
    119 O3    s      -0.000091      0.000169     -0.001200      0.000000
    120 O2    s      -0.000017     -0.000156     -0.000684      0.000000
--------------------------------------------------------------------------------
  Maximum abs         0.003717      0.001154      0.002407      0.000000
--------------------------------------------------------------------------------


  Born effective charge tensors : 

-------------------------------------------------------------------------------
  Atom             x           y             z
-------------------------------------------------------------------------------
    1 Ge    x       4.2978      0.1466     -0.0177
            y      -0.0835      3.8995     -0.0141
            z      -0.8769     -0.0012      4.5031
-------------------------------------------------------------------------------
    2 Ge    x       4.0242     -0.4060     -0.2152
            y      -0.1575      4.1584      0.2813
            z      -0.1862      0.0635      3.3508
-------------------------------------------------------------------------------
    3 Si    x       3.4470      0.0995      0.2670
            y      -0.0680      3.2452      0.0117
            z       0.3511      0.0537      3.8227
-------------------------------------------------------------------------------
    4 Si    x       3.5566     -0.0129     -0.5125
            y       0.0451      3.3203      0.0018
            z      -0.4240      0.0430      4.2843
-------------------------------------------------------------------------------
    5 Si    x       3.4509     -0.0182      0.0877
            y       0.0483      3.2497      0.0036
            z       0.6194     -0.0495      3.7209
-------------------------------------------------------------------------------
    6 Si    x       3.4899     -0.0857     -0.3216
            y       0.1184      3.2853      0.0261
            z      -0.4171     -0.0125      3.1478
-------------------------------------------------------------------------------
    7 Si    x       3.8031     -0.1208      0.2294
            y       0.0675      3.3003     -0.0413
            z       0.8468     -0.0628      3.2330
-------------------------------------------------------------------------------
    8 Si    x       3.7248     -0.0937     -0.0634
            y      -0.2535      3.4284     -0.0720
            z      -0.6138      0.0352      3.0775
-------------------------------------------------------------------------------
    9 Si    x       3.5161      0.1144      0.3833
            y      -0.1543      3.2656      0.0211
            z       0.3709      0.0230      3.0932
-------------------------------------------------------------------------------
   10 Si    x       3.4328      0.3803     -0.2113
            y       0.4106      3.5441     -0.3340
            z      -0.2617     -0.1720      2.9909
-------------------------------------------------------------------------------
   11 Si    x       3.2023      0.2421      0.0737
            y       0.2847      3.4361      0.1820
            z       0.1141      0.0524      2.8025
-------------------------------------------------------------------------------
   12 Si    x       3.2073     -0.2311     -0.0651
            y      -0.2512      3.4298      0.1519
            z      -0.0920      0.0863      2.7985
-------------------------------------------------------------------------------
   13 Si    x       3.1807     -0.2525      0.0987
            y      -0.2501      3.4388     -0.1709
            z       0.1142     -0.0756      2.8101
-------------------------------------------------------------------------------
   14 Si    x       3.2119      0.2735     -0.0708
            y       0.2449      3.4561     -0.1357
            z      -0.1269     -0.0780      2.7966
-------------------------------------------------------------------------------
   15 Si    x       3.1939      0.2879      0.1239
            y       0.2362      3.4580      0.1573
            z       0.1187      0.0748      2.8112
-------------------------------------------------------------------------------
   16 Si    x       3.4001     -0.4410     -0.2575
            y      -0.3130      3.5806      0.3516
            z      -0.2171      0.1777      3.0049
-------------------------------------------------------------------------------
   17 Si    x       3.2679     -0.3275      0.0647
            y      -0.2206      3.5706     -0.0843
            z       0.1175      0.0246      3.1075
-------------------------------------------------------------------------------
   18 Si    x       3.2180      0.2912     -0.1653
            y       0.1531      3.4418     -0.1825
            z      -0.1319     -0.0809      2.7450
-------------------------------------------------------------------------------
   19 Si    x       3.2353      0.2977      0.1387
            y       0.1544      3.4187      0.1532
            z       0.1079      0.0684      2.7002
-------------------------------------------------------------------------------
   20 Si    x       3.2570     -0.3432      0.1785
            y      -0.0991      3.4378     -0.2144
            z       0.1317     -0.0685      2.7363
-------------------------------------------------------------------------------
   21 Si    x       3.3752      0.1996     -0.1947
            y       0.0883      3.7152     -0.1009
            z      -0.1772      0.0087      2.8112
-------------------------------------------------------------------------------
   22 Si    x       3.6168      0.2135     -0.0017
            y       0.2179      3.5226      0.2476
            z       0.1025      0.0752      2.7998
-------------------------------------------------------------------------------
   23 Si    x       3.2671     -0.2655     -0.1267
            y      -0.2665      3.4187      0.1517
            z      -0.1902      0.0707      2.7412
-------------------------------------------------------------------------------
   24 Si    x       3.2544     -0.2740      0.1262
            y      -0.2456      3.3945     -0.1480
            z       0.1124     -0.0558      2.6885
-------------------------------------------------------------------------------
   25 O3    x      -2.0577     -0.9660      0.4506
            y      -0.9419     -2.3556      0.4671
            z       0.5686      0.4622     -1.6065
-------------------------------------------------------------------------------
   26 O2    x      -1.6712     -0.7273     -0.3432
            y      -0.6817     -2.0017     -0.3470
            z      -0.3548     -0.3360     -1.3614
-------------------------------------------------------------------------------
   27 O2    x      -1.6840      0.7098      0.3407
            y       0.6980     -1.9995     -0.3466
            z       0.3384     -0.3416     -1.3518
-------------------------------------------------------------------------------
   28 O2    x      -1.6671      0.7158     -0.2774
            y       0.6975     -1.9767      0.2968
            z      -0.3560      0.3021     -1.3492
-------------------------------------------------------------------------------
   29 O2    x      -1.7269     -0.7362      0.3464
            y      -0.7495     -2.0083      0.3508
            z       0.3600      0.3446     -1.3384
-------------------------------------------------------------------------------
   30 O2    x      -1.7092     -0.7358     -0.2927
            y      -0.7441     -1.9882     -0.3261
            z      -0.3717     -0.3189     -1.3441
-------------------------------------------------------------------------------
   31 O3    x      -2.0979      0.9506      0.4250
            y       0.9822     -2.2931     -0.4836
            z       0.5271     -0.4696     -1.6385
-------------------------------------------------------------------------------
   32 O2    x      -1.7496      0.7370     -0.3219
            y       0.7448     -1.9722      0.3237
            z      -0.3563      0.3247     -1.3439
-------------------------------------------------------------------------------
   33 O3    x      -1.9801     -0.0294      1.0872
            y      -0.0113     -1.2074      0.0129
            z       1.3651      0.0219     -3.4683
-------------------------------------------------------------------------------
   34 O2    x      -1.6646     -0.0134     -0.8247
            y       0.0064     -1.0864     -0.0053
            z      -1.0624     -0.0144     -2.7116
-------------------------------------------------------------------------------
   35 O3    x      -2.2035      0.0130     -1.0573
            y       0.0193     -1.2527      0.0007
            z      -1.0622     -0.0119     -2.6843
-------------------------------------------------------------------------------
   36 O2    x      -1.7022     -0.0223      0.7184
            y      -0.0278     -1.1109      0.0142
            z       0.6837      0.0218     -2.2567
-------------------------------------------------------------------------------
   37 O2    x      -1.7654     -0.0370     -0.6610
            y       0.0098     -1.1147     -0.0229
            z      -0.6185     -0.0428     -2.1768
-------------------------------------------------------------------------------
   38 O2    x      -1.7724     -0.0115      0.7190
            y       0.0013     -1.1148      0.0167
            z       0.7287      0.0195     -2.1585
-------------------------------------------------------------------------------
   39 O2    x      -1.7414     -0.7282      0.3727
            y      -0.6998     -1.9495      0.3659
            z       0.3544      0.3476     -1.2585
-------------------------------------------------------------------------------
   40 O2    x      -1.7292     -0.7113     -0.2279
            y      -0.6843     -1.9434     -0.2692
            z      -0.3064     -0.2660     -1.2253
-------------------------------------------------------------------------------
   41 O3    x      -2.1236      0.9650      0.3075
            y       0.9491     -2.3348     -0.3550
            z       0.3588     -0.3100     -1.4374
-------------------------------------------------------------------------------
   42 O2    x      -1.7711      0.7428     -0.4225
            y       0.6872     -1.9481      0.4233
            z      -0.3612      0.3734     -1.2717
-------------------------------------------------------------------------------
   43 O2    x      -1.7000     -0.6703      0.3299
            y      -0.6284     -1.9165      0.3616
            z       0.3743      0.3160     -1.2778
-------------------------------------------------------------------------------
   44 O2    x      -1.6821     -0.7072     -0.3977
            y      -0.5936     -2.0490     -0.4187
            z      -0.3522     -0.3614     -1.2487
-------------------------------------------------------------------------------
   45 O2    x      -1.7046      0.7208      0.3771
            y       0.6588     -2.0295     -0.3887
            z       0.3888     -0.3727     -1.2437
-------------------------------------------------------------------------------
   46 O2    x      -1.6697      0.6982     -0.2538
            y       0.6306     -2.0083      0.2734
            z      -0.3256      0.2730     -1.2231
-------------------------------------------------------------------------------
   47 O2    x      -1.7956      0.0099     -0.5641
            y       0.0092     -1.1968     -0.0255
            z      -0.3003     -0.0440     -1.7321
-------------------------------------------------------------------------------
   48 O2    x      -1.8622     -0.0474      0.5650
            y      -0.0308     -1.1778      0.0244
            z       0.3105      0.0111     -1.6592
-------------------------------------------------------------------------------
   49 O2    x      -1.1946     -0.0500      0.0600
            y      -0.0790     -2.4667     -0.0067
            z       0.0813     -0.0019     -1.0854
-------------------------------------------------------------------------------
   50 O2    x      -1.1841     -0.0404     -0.0417
            y      -0.0903     -2.5888      0.0241
            z      -0.0648      0.0340     -1.0538
-------------------------------------------------------------------------------
   51 O2    x      -1.1652      0.0238      0.0549
            y       0.0301     -2.5577     -0.0009
            z       0.0740      0.0087     -1.0674
-------------------------------------------------------------------------------
   52 O2    x      -1.1508      0.0153     -0.0668
            y       0.0222     -2.5542      0.0210
            z      -0.0805      0.0045     -1.0727
-------------------------------------------------------------------------------
   53 O2    x      -2.3828      0.0970     -0.0045
            y       0.0712     -1.2647      0.0721
            z       0.0036      0.0444     -1.0908
-------------------------------------------------------------------------------
   54 O2    x      -2.3885      0.0648      0.0281
            y       0.0162     -1.2399     -0.0735
            z       0.0178     -0.0430     -1.0845
-------------------------------------------------------------------------------
   55 O2    x      -2.3968     -0.0462     -0.0302
            y      -0.0166     -1.2463     -0.0657
            z      -0.0232     -0.0500     -1.0647
-------------------------------------------------------------------------------
   56 O2    x      -2.3768     -0.0432     -0.0439
            y      -0.0156     -1.2419      0.0665
            z      -0.0400      0.0485     -1.0784
-------------------------------------------------------------------------------
   57 O2    x      -1.2136     -0.1231     -0.1211
            y      -0.1096     -1.3110     -0.0050
            z      -0.1161      0.0077     -2.0615
-------------------------------------------------------------------------------
   58 O2    x      -1.2199     -0.1305     -0.0003
            y      -0.1145     -1.2680      0.0362
            z      -0.0015      0.0373     -2.0669
-------------------------------------------------------------------------------
   59 O2    x      -1.1992      0.1295     -0.0097
            y       0.1159     -1.2632      0.0012
            z      -0.0153     -0.0061     -2.0486
-------------------------------------------------------------------------------
   60 O2    x      -1.1841      0.1225      0.0529
            y       0.1150     -1.2715     -0.0035
            z       0.0616      0.0058     -2.0764
-------------------------------------------------------------------------------
   61 O2    x      -1.1806     -0.1236      0.0077
            y      -0.0939     -1.2710      0.0036
            z       0.0206     -0.0147     -2.0584
-------------------------------------------------------------------------------
   62 O2    x      -1.1774     -0.1290      0.0402
            y      -0.1029     -1.2811     -0.0257
            z       0.0324     -0.0105     -2.0676
-------------------------------------------------------------------------------
   63 O2    x      -1.2112      0.1462     -0.0752
            y       0.0938     -1.3071      0.0090
            z      -0.0663      0.0163     -2.0402
-------------------------------------------------------------------------------
   64 O3    x      -1.3258      0.1578      0.0204
            y       0.1063     -1.4694     -0.0816
            z      -0.0003     -0.0667     -2.6126
-------------------------------------------------------------------------------
   65 O2    x      -1.2177      0.0279      0.0817
            y       0.0692     -2.5251      0.0188
            z       0.1033      0.0031     -1.0245
-------------------------------------------------------------------------------
   66 O2    x      -1.2121      0.0273     -0.0851
            y       0.0751     -2.4897     -0.0041
            z      -0.0928      0.0034     -1.0274
-------------------------------------------------------------------------------
   67 O3    x      -1.4003      0.0388      0.1160
            y      -0.0321     -3.1377     -0.1030
            z       0.1273     -0.0941     -1.1490
-------------------------------------------------------------------------------
   68 O2    x      -1.2484     -0.0847     -0.0764
            y      -0.1409     -2.5463     -0.0101
            z      -0.0946     -0.0150     -1.0161
-------------------------------------------------------------------------------
   69 O2    x      -2.4169     -0.0422     -0.0250
            y      -0.0380     -1.2351      0.0614
            z      -0.0060      0.0382     -1.0385
-------------------------------------------------------------------------------
   70 O2    x      -2.4042     -0.0308     -0.0391
            y      -0.0176     -1.2339     -0.0648
            z      -0.0103     -0.0429     -1.0502
-------------------------------------------------------------------------------
   71 O3    x      -3.0539      0.1406      0.1641
            y       0.1047     -1.3833     -0.1119
            z       0.1315     -0.0572     -1.2184
-------------------------------------------------------------------------------
   72 O2    x      -2.4944      0.0582      0.0492
            y       0.0234     -1.2267      0.0570
            z       0.0354      0.0211     -1.0562
-------------------------------------------------------------------------------




  Elastic Constant Matrix: (Units=GPa)

-------------------------------------------------------------------------------
  Indices      1         2         3         4         5         6    
-------------------------------------------------------------------------------
       1     57.8643   33.2356   26.8444   -1.2432   -0.2446    8.9809
       2     33.2356   85.2022   27.3149   -1.6756   -0.9762    8.9658
       3     26.8444   27.3149   24.6264   -0.4826   -0.6594    1.5466
       4     -1.2432   -1.6756   -0.4826   11.7771    0.6704    1.3838
       5     -0.2446   -0.9762   -0.6594    0.6704   26.1994    0.3288
       6      8.9809    8.9658    1.5466    1.3838    0.3288   22.8954
-------------------------------------------------------------------------------


  Elastic Compliance Matrix: (Units=1/GPa)

-------------------------------------------------------------------------------
  Indices      1         2         3         4         5         6    
-------------------------------------------------------------------------------
       1    0.038277 -0.000720 -0.040100  0.003769 -0.000622 -0.012243
       2   -0.000720  0.019105 -0.019973  0.002517  0.000213 -0.006005
       3   -0.040100 -0.019973  0.105367 -0.004802  0.001447  0.016703
       4    0.003769  0.002517 -0.004802  0.086452 -0.002112 -0.007335
       5   -0.000622  0.000213  0.001447 -0.002112  0.038266 -0.000359
       6   -0.012243 -0.006005  0.016703 -0.007335 -0.000359  0.050151
-------------------------------------------------------------------------------

  Mechanical properties :

-------------------------------------------------------------------------------
  Convention :                    Reuss         Voigt         Hill
-------------------------------------------------------------------------------
  Bulk  Modulus (GPa)     =      24.29352      38.05362      31.17357
  Shear Modulus (GPa)     =      10.57250      17.52756      14.05003
-------------------------------------------------------------------------------
  Velocity S-wave (km/s)  =       2.35827       3.03645       2.71859
  Velocity P-wave (km/s)  =       4.49382       5.68425       5.12373
-------------------------------------------------------------------------------
  Compressibility (1/GPa) =    0.04116324
-------------------------------------------------------------------------------
  Stress axis :                     x             y             z
-------------------------------------------------------------------------------
  Youngs Moduli (GPa)     =      26.12533      52.34294       9.49061
-------------------------------------------------------------------------------
  Poissons Ratio (x)      =                     0.03770       0.38057
  Poissons Ratio (y)      =       0.01882                     0.18956
  Poissons Ratio (z)      =       1.04761       1.04545
-------------------------------------------------------------------------------


  Piezoelectric Strain Matrix: (Units=C/m**2)

-------------------------------------------------------------------------------
  Indices      1         2         3         4         5         6    
-------------------------------------------------------------------------------
       x     0.30110   0.69617   0.40637  -0.10600   0.21666   0.02737
       y    -0.06067   0.36435  -0.07988   0.19670  -0.12615   0.17319
       z     0.12718  -0.06581   0.24372  -0.10619  -0.45431   0.00156
-------------------------------------------------------------------------------


  Piezoelectric Stress Matrix: (Units=10**-11 C/N)

-------------------------------------------------------------------------------
  Indices      1         2         3         4         5         6    
-------------------------------------------------------------------------------
       x    -0.61411   0.45818   1.81197  -0.88866   0.90539   0.09934
       y    -0.06821   0.80281  -1.14954   1.70733  -0.53050   0.45088
       z    -0.49944  -0.65903   2.17733  -0.90889  -1.69015   0.39293
-------------------------------------------------------------------------------


  Static dielectric constant tensor : 

-------------------------------------------------------------------------------
              x         y         z
-------------------------------------------------------------------------------
       x     3.83193  -0.02364  -0.09325
       y    -0.02364   3.96471  -0.01655
       z    -0.09325  -0.01655   3.19969
--------------------------------------------------------------------------------

  High frequency dielectric constant tensor : 

-------------------------------------------------------------------------------
              x         y         z
-------------------------------------------------------------------------------
       x     1.68628   0.00065   0.00038
       y     0.00065   1.69362   0.00007
       z     0.00038   0.00007   1.62294
-------------------------------------------------------------------------------

  Static refractive indices : 

-------------------------------------------------------------------------------
    1 =    1.78486      2 =    1.96005      3 =    1.99218
-------------------------------------------------------------------------------

  High frequency refractive indices : 

-------------------------------------------------------------------------------
    1 =    1.27395      2 =    1.29855      3 =    1.30141
-------------------------------------------------------------------------------


  Time to end of optimisation =      10.4538 seconds


  Peak dynamic memory used =       5.01 MB 


  Timing analysis for GULP :

--------------------------------------------------------------------------------
  Task / Subroutine                                          Time (Seconds)
--------------------------------------------------------------------------------
  Calculation of reciprocal space energy and derivatives          0.6219
  Calculation of real space energy and derivatives                6.3557
  Calculation of three-body energy and derivatives                0.6891
  Calculation and manipulation of Hessian matrix                  3.1281
  Calculation of matrix inversion                                 0.0282
  Global summation overhead                                       0.0001
--------------------------------------------------------------------------------
  Total CPU time                                                 10.4538
--------------------------------------------------------------------------------


  Dump file written as c00014.vasp.grs
  CIF file written as c00014.vasp.cif


  Job Finished at 10:49.04  7th October    2025                               

