********************************************************************************
*                       GENERAL UTILITY LATTICE PROGRAM                        *
*                                 Julian Gale                                  *
*                       Curtin Institute for Computation                       *
*                    School of Molecular and Life Sciences                     *
*                    Curtin University, Western Australia                      *
********************************************************************************
* Version = 6.1.2 * Last modified =   3rd November 2022                        *
********************************************************************************
*  optimise     - perform optimisation run                                     *
*  conp         - constant pressure calculation                                *
*  property     - calculate properties for final geometry                      *
********************************************************************************

  Job Started  at 10:46.43  7th October    2025                               

  Number of CPUs =     1


  Total number of configurations input =      1

********************************************************************************
*  Input for Configuration =   1 : c00002.vasp                                 *
********************************************************************************

  Formula = Ge2Si22O48                                                  

  Number of irreducible atoms/shells =     120


  Total number atoms/shells =     120

  Dimensionality = 3               :  Bulk   



  Cartesian lattice vectors (Angstroms) :

       17.182800    0.000000    0.000000
        0.000000    7.513760    0.000000
        0.000000    0.000000   10.447700

  Cell parameters (Angstroms/Degrees):

  a =      17.1828    alpha =  90.0000
  b =       7.5138    beta  =  90.0000
  c =      10.4477    gamma =  90.0000

  Initial cell volume =        1348.875752 Angs**3

  Temperature of configuration =   0.00     K 

  Pressure of configuration =         0.000 GPa 

  Fractional coordinates of asymmetric unit :

--------------------------------------------------------------------------------
   No.  Atomic       x           y          z         Charge      Occupancy
        Label      (Frac)      (Frac)     (Frac)        (e)         (Frac)  
--------------------------------------------------------------------------------
      1 Ge    c    0.052090    0.000000    0.372270     4.00000    1.000000    
      2 Ge    c    0.947910 *  0.000000 *  0.627730 *   4.00000    1.000000    
      3 Si    c    0.447910 *  0.000000 *  0.372270 *   4.00000    1.000000    
      4 Si    c    0.552090 *  0.000000 *  0.627730 *   4.00000    1.000000    
      5 Si    c    0.556730 *  0.000000 *  0.122130 *   4.00000    1.000000    
      6 Si    c    0.943270 *  0.000000 *  0.122130 *   4.00000    1.000000    
      7 Si    c    0.443270 *  0.000000 *  0.877870 *   4.00000    1.000000    
      8 Si    c    0.056730 *  0.000000 *  0.877870 *   4.00000    1.000000    
      9 Si    c    0.160190 *  0.293910 *  0.273440 *   4.00000    1.000000    
     10 Si    c    0.339810 *  0.706090 *  0.273440 *   4.00000    1.000000    
     11 Si    c    0.839810 *  0.293910 *  0.726560 *   4.00000    1.000000    
     12 Si    c    0.660190 *  0.706090 *  0.726560 *   4.00000    1.000000    
     13 Si    c    0.839810 *  0.706090 *  0.726560 *   4.00000    1.000000    
     14 Si    c    0.660190 *  0.293910 *  0.726560 *   4.00000    1.000000    
     15 Si    c    0.160190 *  0.706090 *  0.273440 *   4.00000    1.000000    
     16 Si    c    0.339810 *  0.293910 *  0.273440 *   4.00000    1.000000    
     17 Si    c    0.660660 *  0.294090 *  0.017440 *   4.00000    1.000000    
     18 Si    c    0.839340 *  0.705910 *  0.017440 *   4.00000    1.000000    
     19 Si    c    0.339340 *  0.294090 *  0.982560 *   4.00000    1.000000    
     20 Si    c    0.160660 *  0.705910 *  0.982560 *   4.00000    1.000000    
     21 Si    c    0.339340 *  0.705910 *  0.982560 *   4.00000    1.000000    
     22 Si    c    0.160660 *  0.294090 *  0.982560 *   4.00000    1.000000    
     23 Si    c    0.660660 *  0.705910 *  0.017440 *   4.00000    1.000000    
     24 Si    c    0.839340 *  0.294090 *  0.017440 *   4.00000    1.000000    
     25 O3    c    0.106570 *  0.174340 *  0.366200 *   1.33043    1.000000    
     26 O2    c    0.393430 *  0.825660 *  0.366200 *   0.87073    1.000000    
     27 O3    c    0.893430 *  0.174340 *  0.633800 *   1.33043    1.000000    
     28 O2    c    0.606570 *  0.825660 *  0.633800 *   0.87073    1.000000    
     29 O3    c    0.893430 *  0.825660 *  0.633800 *   1.33043    1.000000    
     30 O2    c    0.606570 *  0.174340 *  0.633800 *   0.87073    1.000000    
     31 O3    c    0.106570 *  0.825660 *  0.366200 *   1.33043    1.000000    
     32 O2    c    0.393430 *  0.174340 *  0.366200 *   0.87073    1.000000    
     33 O1    c    0.000000 *  0.000000 *  0.500000 *   1.73396    1.000000    
     34 O2    c    0.500000 *  0.000000 *  0.500000 *   0.87073    1.000000    
     35 O3    c    0.994520 *  0.000000 *  0.250840 *   1.33043    1.000000    
     36 O2    c    0.505480 *  0.000000 *  0.250840 *   0.87073    1.000000    
     37 O3    c    0.005480 *  0.000000 *  0.749160 *   1.33043    1.000000    
     38 O2    c    0.494520 *  0.000000 *  0.749160 *   0.87073    1.000000    
     39 O2    c    0.610230 *  0.175520 *  0.115390 *   0.87073    1.000000    
     40 O2    c    0.889770 *  0.824480 *  0.115390 *   0.87073    1.000000    
     41 O2    c    0.389770 *  0.175520 *  0.884610 *   0.87073    1.000000    
     42 O2    c    0.110230 *  0.824480 *  0.884610 *   0.87073    1.000000    
     43 O2    c    0.389770 *  0.824480 *  0.884610 *   0.87073    1.000000    
     44 O2    c    0.110230 *  0.175520 *  0.884610 *   0.87073    1.000000    
     45 O2    c    0.610230 *  0.824480 *  0.115390 *   0.87073    1.000000    
     46 O2    c    0.889770 *  0.175520 *  0.115390 *   0.87073    1.000000    
     47 O2    c    0.500000 *  0.000000 *  0.000000 *   0.87073    1.000000    
     48 O2    c    0.000000 *  0.000000 *  0.000000 *   0.87073    1.000000    
     49 O2    c    0.151750 *  0.500000 *  0.313330 *   0.87073    1.000000    
     50 O2    c    0.348250 *  0.500000 *  0.313330 *   0.87073    1.000000    
     51 O2    c    0.848250 *  0.500000 *  0.686670 *   0.87073    1.000000    
     52 O2    c    0.651750 *  0.500000 *  0.686670 *   0.87073    1.000000    
     53 O2    c    0.250000 *  0.234950 *  0.285720 *   0.87073    1.000000    
     54 O2    c    0.250000 *  0.765050 *  0.285720 *   0.87073    1.000000    
     55 O2    c    0.750000 *  0.234950 *  0.714280 *   0.87073    1.000000    
     56 O2    c    0.750000 *  0.765050 *  0.714280 *   0.87073    1.000000    
     57 O2    c    0.131410 *  0.268650 *  0.127790 *   0.87073    1.000000    
     58 O2    c    0.368590 *  0.731350 *  0.127790 *   0.87073    1.000000    
     59 O2    c    0.868590 *  0.268650 *  0.872210 *   0.87073    1.000000    
     60 O2    c    0.631410 *  0.731350 *  0.872210 *   0.87073    1.000000    
     61 O2    c    0.868590 *  0.731350 *  0.872210 *   0.87073    1.000000    
     62 O2    c    0.631410 *  0.268650 *  0.872210 *   0.87073    1.000000    
     63 O2    c    0.131410 *  0.731350 *  0.127790 *   0.87073    1.000000    
     64 O2    c    0.368590 *  0.268650 *  0.127790 *   0.87073    1.000000    
     65 O2    c    0.653920 *  0.500000 *  0.058200 *   0.87073    1.000000    
     66 O2    c    0.846080 *  0.500000 *  0.058200 *   0.87073    1.000000    
     67 O2    c    0.346080 *  0.500000 *  0.941800 *   0.87073    1.000000    
     68 O2    c    0.153920 *  0.500000 *  0.941800 *   0.87073    1.000000    
     69 O2    c    0.750000 *  0.231060 *  0.027050 *   0.87073    1.000000    
     70 O2    c    0.750000 *  0.768940 *  0.027050 *   0.87073    1.000000    
     71 O2    c    0.250000 *  0.231060 *  0.972950 *   0.87073    1.000000    
     72 O2    c    0.250000 *  0.768940 *  0.972950 *   0.87073    1.000000    
     73 O3    s    0.106570 *  0.174340 *  0.366200 *  -3.33043    1.000000    
     74 O2    s    0.393430 *  0.825660 *  0.366200 *  -2.87073    1.000000    
     75 O3    s    0.893430 *  0.174340 *  0.633800 *  -3.33043    1.000000    
     76 O2    s    0.606570 *  0.825660 *  0.633800 *  -2.87073    1.000000    
     77 O3    s    0.893430 *  0.825660 *  0.633800 *  -3.33043    1.000000    
     78 O2    s    0.606570 *  0.174340 *  0.633800 *  -2.87073    1.000000    
     79 O3    s    0.106570 *  0.825660 *  0.366200 *  -3.33043    1.000000    
     80 O2    s    0.393430 *  0.174340 *  0.366200 *  -2.87073    1.000000    
     81 O1    s    0.000000 *  0.000000 *  0.500000 *  -3.73396    1.000000    
     82 O2    s    0.500000 *  0.000000 *  0.500000 *  -2.87073    1.000000    
     83 O3    s    0.994520 *  0.000000 *  0.250840 *  -3.33043    1.000000    
     84 O2    s    0.505480 *  0.000000 *  0.250840 *  -2.87073    1.000000    
     85 O3    s    0.005480 *  0.000000 *  0.749160 *  -3.33043    1.000000    
     86 O2    s    0.494520 *  0.000000 *  0.749160 *  -2.87073    1.000000    
     87 O2    s    0.610230 *  0.175520 *  0.115390 *  -2.87073    1.000000    
     88 O2    s    0.889770 *  0.824480 *  0.115390 *  -2.87073    1.000000    
     89 O2    s    0.389770 *  0.175520 *  0.884610 *  -2.87073    1.000000    
     90 O2    s    0.110230 *  0.824480 *  0.884610 *  -2.87073    1.000000    
     91 O2    s    0.389770 *  0.824480 *  0.884610 *  -2.87073    1.000000    
     92 O2    s    0.110230 *  0.175520 *  0.884610 *  -2.87073    1.000000    
     93 O2    s    0.610230 *  0.824480 *  0.115390 *  -2.87073    1.000000    
     94 O2    s    0.889770 *  0.175520 *  0.115390 *  -2.87073    1.000000    
     95 O2    s    0.500000 *  0.000000 *  0.000000 *  -2.87073    1.000000    
     96 O2    s    0.000000 *  0.000000 *  0.000000 *  -2.87073    1.000000    
     97 O2    s    0.151750 *  0.500000 *  0.313330 *  -2.87073    1.000000    
     98 O2    s    0.348250 *  0.500000 *  0.313330 *  -2.87073    1.000000    
     99 O2    s    0.848250 *  0.500000 *  0.686670 *  -2.87073    1.000000    
    100 O2    s    0.651750 *  0.500000 *  0.686670 *  -2.87073    1.000000    
    101 O2    s    0.250000 *  0.234950 *  0.285720 *  -2.87073    1.000000    
    102 O2    s    0.250000 *  0.765050 *  0.285720 *  -2.87073    1.000000    
    103 O2    s    0.750000 *  0.234950 *  0.714280 *  -2.87073    1.000000    
    104 O2    s    0.750000 *  0.765050 *  0.714280 *  -2.87073    1.000000    
    105 O2    s    0.131410 *  0.268650 *  0.127790 *  -2.87073    1.000000    
    106 O2    s    0.368590 *  0.731350 *  0.127790 *  -2.87073    1.000000    
    107 O2    s    0.868590 *  0.268650 *  0.872210 *  -2.87073    1.000000    
    108 O2    s    0.631410 *  0.731350 *  0.872210 *  -2.87073    1.000000    
    109 O2    s    0.868590 *  0.731350 *  0.872210 *  -2.87073    1.000000    
    110 O2    s    0.631410 *  0.268650 *  0.872210 *  -2.87073    1.000000    
    111 O2    s    0.131410 *  0.731350 *  0.127790 *  -2.87073    1.000000    
    112 O2    s    0.368590 *  0.268650 *  0.127790 *  -2.87073    1.000000    
    113 O2    s    0.653920 *  0.500000 *  0.058200 *  -2.87073    1.000000    
    114 O2    s    0.846080 *  0.500000 *  0.058200 *  -2.87073    1.000000    
    115 O2    s    0.346080 *  0.500000 *  0.941800 *  -2.87073    1.000000    
    116 O2    s    0.153920 *  0.500000 *  0.941800 *  -2.87073    1.000000    
    117 O2    s    0.750000 *  0.231060 *  0.027050 *  -2.87073    1.000000    
    118 O2    s    0.750000 *  0.768940 *  0.027050 *  -2.87073    1.000000    
    119 O2    s    0.250000 *  0.231060 *  0.972950 *  -2.87073    1.000000    
    120 O2    s    0.250000 *  0.768940 *  0.972950 *  -2.87073    1.000000    
--------------------------------------------------------------------------------



********************************************************************************
*  General input information                                                   *
********************************************************************************

  Species output for all configurations : 

--------------------------------------------------------------------------------
  Species    Type    Atomic    Atomic    Charge       Radii (Angs)     Library
                     Number     Mass       (e)     Cova   Ionic  VDW   Symbol
--------------------------------------------------------------------------------
    Ge       Core       32      72.61   4.000000   1.170  0.000  1.750 Ge       
    Si       Core       14      28.09   4.000000   1.200  0.000  2.100 Si       
    O1       Core        8      16.00   1.733957   0.730  0.000  1.360 O1       
    O2       Core        8      16.00   0.870733   0.730  0.000  1.360 O2       
    O3       Core        8      16.00   1.330431   0.730  0.000  1.360 O3       
    O1       Shell       8       0.00  -3.733957   0.730  0.000  0.000 O1       
    O2       Shell       8       0.00  -2.870733   0.730  0.000  0.000 O2       
    O3       Shell       8       0.00  -3.330431   0.730  0.000  0.000 O3       
--------------------------------------------------------------------------------


  Lattice summation method               =    Ewald          (3-D)
                                         =    Parry          (2-D)
                                         =    Saunders et al (1-D)
  Accuracy factor for lattice sums       =   12.000


  Analytic derivatives to be used

  Time limit = Infinity

  Maximum range for interatomic potentials =    100000.000000 Angstroms

  General interatomic potentials :

--------------------------------------------------------------------------------
Atom  Types   Potential      Parameter       Value         Units   Cutoffs(Ang)
  1     2                                                            Min /  Max 
--------------------------------------------------------------------------------
Si   c O1   s Buckingham    Buckingham A     1315.2478    eV        0.000 16.000
                            Buckingham rho  0.31775900    Ang       
                            Buckingham C     10.141118    eV*Ang^6  
--------------------------------------------------------------------------------
Si   c O2   s Buckingham    Buckingham A     1315.2478    eV        0.000 16.000
                            Buckingham rho  0.31775900    Ang       
                            Buckingham C     10.141118    eV*Ang^6  
--------------------------------------------------------------------------------
Si   c O3   s Buckingham    Buckingham A     1315.2478    eV        0.000 16.000
                            Buckingham rho  0.31775900    Ang       
                            Buckingham C     10.141118    eV*Ang^6  
--------------------------------------------------------------------------------
Ge   c O1   s Buckingham    Buckingham A     1497.3996    eV        0.000 16.000
                            Buckingham rho  0.32564600    Ang       
                            Buckingham C     16.808599    eV*Ang^6  
--------------------------------------------------------------------------------
Ge   c O2   s Buckingham    Buckingham A     1497.3996    eV        0.000 16.000
                            Buckingham rho  0.32564600    Ang       
                            Buckingham C     16.808599    eV*Ang^6  
--------------------------------------------------------------------------------
Ge   c O3   s Buckingham    Buckingham A     1497.3996    eV        0.000 16.000
                            Buckingham rho  0.32564600    Ang       
                            Buckingham C     16.808599    eV*Ang^6  
--------------------------------------------------------------------------------
O1   s O1   s Buckingham    Buckingham A     22764.000    eV        0.000 16.000
                            Buckingham rho  0.14900000    Ang       
                            Buckingham C     10.937044    eV*Ang^6  
--------------------------------------------------------------------------------
O1   s O2   s Buckingham    Buckingham A     22764.000    eV        0.000 16.000
                            Buckingham rho  0.14900000    Ang       
                            Buckingham C     10.937044    eV*Ang^6  
--------------------------------------------------------------------------------
O1   s O3   s Buckingham    Buckingham A     22764.000    eV        0.000 16.000
                            Buckingham rho  0.14900000    Ang       
                            Buckingham C     10.937044    eV*Ang^6  
--------------------------------------------------------------------------------
O2   s O2   s Buckingham    Buckingham A     22764.000    eV        0.000 16.000
                            Buckingham rho  0.14900000    Ang       
                            Buckingham C     10.937044    eV*Ang^6  
--------------------------------------------------------------------------------
O2   s O3   s Buckingham    Buckingham A     22764.000    eV        0.000 16.000
                            Buckingham rho  0.14900000    Ang       
                            Buckingham C     10.937044    eV*Ang^6  
--------------------------------------------------------------------------------
O3   s O3   s Buckingham    Buckingham A     22764.000    eV        0.000 16.000
                            Buckingham rho  0.14900000    Ang       
                            Buckingham C     10.937044    eV*Ang^6  
--------------------------------------------------------------------------------
O1   c O1   s Spring (c-s)  Spring k 2       180.31577    eV*Ang^-2 0.000  0.800
                            Spring k 4       0.0000000    eV*Ang^-4 
--------------------------------------------------------------------------------
O2   c O2   s Spring (c-s)  Spring k 2       75.969800    eV*Ang^-2 0.000  0.800
                            Spring k 4       0.0000000    eV*Ang^-4 
--------------------------------------------------------------------------------
O3   c O3   s Spring (c-s)  Spring k 2       128.14270    eV*Ang^-2 0.000  0.800
                            Spring k 4       0.0000000    eV*Ang^-4 
--------------------------------------------------------------------------------

  General Three-body potentials :

--------------------------------------------------------------------------------
  Atoms       Potential      Parameter       Value         Units   Cutoffs(Ang)
  1 / 2 / 3                                                          Min /  Max 
--------------------------------------------------------------------------------
Si    core    Harmonic      Three-body cnst  1.2614000    eV*rad^-2 0.000  1.900
O1    shel                  Three-body angl  109.47000    degrees   0.000  1.900
O1    shel                  Three-body k4    0.0000000    eV*rad^-4 0.000  3.500
                            Three-body k3    0.0000000    eV*rad^-3 
--------------------------------------------------------------------------------
Si    core    Harmonic      Three-body cnst  1.2614000    eV*rad^-2 0.000  1.900
O1    shel                  Three-body angl  109.47000    degrees   0.000  1.900
õ(1   shel                  Three-body k4    0.0000000    eV*rad^-4 0.000  3.500
                            Three-body k3    0.0000000    eV*rad^-3 
--------------------------------------------------------------------------------
Si    core    Harmonic      Three-body cnst  1.2614000    eV*rad^-2 0.000  1.900
õ(1   shel                  Three-body angl  109.47000    degrees   0.000  1.900
õ(1   shel                  Three-body k4    0.0000000    eV*rad^-4 0.000  3.500
                            Three-body k3    0.0000000    eV*rad^-3 
--------------------------------------------------------------------------------
Si    core    Harmonic      Three-body cnst  1.2614000    eV*rad^-2 0.000  1.900
O1    shel                  Three-body angl  109.47000    degrees   0.000  1.900
O2    shel                  Three-body k4    0.0000000    eV*rad^-4 0.000  3.500
                            Three-body k3    0.0000000    eV*rad^-3 
--------------------------------------------------------------------------------
Si    core    Harmonic      Three-body cnst  1.2614000    eV*rad^-2 0.000  1.900
O1    shel                  Three-body angl  109.47000    degrees   0.000  1.900
õ(2   shel                  Three-body k4    0.0000000    eV*rad^-4 0.000  3.500
                            Three-body k3    0.0000000    eV*rad^-3 
--------------------------------------------------------------------------------
Si    core    Harmonic      Three-body cnst  1.2614000    eV*rad^-2 0.000  1.900
O2    shel                  Three-body angl  109.47000    degrees   0.000  1.900
õ(1   shel                  Three-body k4    0.0000000    eV*rad^-4 0.000  3.500
                            Three-body k3    0.0000000    eV*rad^-3 
--------------------------------------------------------------------------------
Si    core    Harmonic      Three-body cnst  1.2614000    eV*rad^-2 0.000  1.900
õ(1   shel                  Three-body angl  109.47000    degrees   0.000  1.900
õ(2   shel                  Three-body k4    0.0000000    eV*rad^-4 0.000  3.500
                            Three-body k3    0.0000000    eV*rad^-3 
--------------------------------------------------------------------------------
Si    core    Harmonic      Three-body cnst  1.2614000    eV*rad^-2 0.000  1.900
O2    shel                  Three-body angl  109.47000    degrees   0.000  1.900
O2    shel                  Three-body k4    0.0000000    eV*rad^-4 0.000  3.500
                            Three-body k3    0.0000000    eV*rad^-3 
--------------------------------------------------------------------------------
Si    core    Harmonic      Three-body cnst  1.2614000    eV*rad^-2 0.000  1.900
O2    shel                  Three-body angl  109.47000    degrees   0.000  1.900
õ(2   shel                  Three-body k4    0.0000000    eV*rad^-4 0.000  3.500
                            Three-body k3    0.0000000    eV*rad^-3 
--------------------------------------------------------------------------------
Si    core    Harmonic      Three-body cnst  1.2614000    eV*rad^-2 0.000  1.900
õ(2   shel                  Three-body angl  109.47000    degrees   0.000  1.900
õ(2   shel                  Three-body k4    0.0000000    eV*rad^-4 0.000  3.500
                            Three-body k3    0.0000000    eV*rad^-3 
--------------------------------------------------------------------------------

********************************************************************************
*  Output for configuration   1 : c00002.vasp                                  *
********************************************************************************


  Components of energy : 

--------------------------------------------------------------------------------
  Interatomic potentials     =         752.30516599 eV    
  Three-body potentials      =           0.01718862 eV    
  Monopole - monopole (real) =       -2676.00317478 eV    
  Monopole - monopole (recip)=       -1115.35404472 eV    
  Monopole - monopole (total)=       -3791.35721950 eV    
--------------------------------------------------------------------------------
  Total lattice energy       =       -3039.03486489 eV    
--------------------------------------------------------------------------------
  Total lattice energy       =         -293220.4086 kJ/(mole unit cells)
--------------------------------------------------------------------------------


  Number of variables =      363

  Maximum number of calculations  =          1000
  Maximum Hessian update interval =            10
  Maximum step size               =   0.100000000
  Maximum parameter tolerance     =   0.000010000
  Maximum function  tolerance     =   0.000010000
  Maximum gradient  tolerance     =   0.001000000
  Maximum gradient  component     =   0.010000000

  Symmetry not applied to optimisation

  Cell parameters to be optimised using strains

  Newton-Raphson optimiser to be used

  BFGS hessian update to be used

  Lower half triangular hessian to be used

  Minimiser to switch to RFO
  When gradient norm is less than     0.050000

  Dumpfile to be written after every cycle

  Start of bulk optimisation :

  Cycle:      0 Energy:     -3039.034865  Gnorm:      4.204807  CPU:    0.095
  ** Hessian calculated **
  Cycle:      1 Energy:     -3050.706752  Gnorm:      3.433708  CPU:    0.252
  ** Hessian calculated **
  Cycle:      2 Energy:     -3070.746738  Gnorm:      0.760550  CPU:    0.422
  ** Hessian calculated **
  Cycle:      3 Energy:     -3072.324144  Gnorm:      0.393947  CPU:    0.603
  Cycle:      4 Energy:     -3072.765146  Gnorm:      0.236543  CPU:    0.689
  Cycle:      5 Energy:     -3073.096215  Gnorm:      0.194685  CPU:    0.791
  Cycle:      6 Energy:     -3073.445122  Gnorm:      0.161470  CPU:    0.893
  Cycle:      7 Energy:     -3073.696975  Gnorm:      0.146411  CPU:    0.982
  Cycle:      8 Energy:     -3073.867620  Gnorm:      0.116636  CPU:    1.068
  Cycle:      9 Energy:     -3073.971759  Gnorm:      0.089891  CPU:    1.155
  Cycle:     10 Energy:     -3074.039977  Gnorm:      0.075041  CPU:    1.257
  Cycle:     11 Energy:     -3074.089505  Gnorm:      0.065428  CPU:    1.360
  Cycle:     12 Energy:     -3074.136045  Gnorm:      0.066150  CPU:    1.463
  ** Hessian calculated **
  Cycle:     13 Energy:     -3074.204924  Gnorm:      0.063255  CPU:    1.649
  Cycle:     14 Energy:     -3074.316108  Gnorm:      0.058203  CPU:    1.768
  Cycle:     15 Energy:     -3074.449709  Gnorm:      0.051357  CPU:    1.870
  Cycle:     16 Energy:     -3074.614139  Gnorm:      0.041521  CPU:    1.974
  ** Hessian has wrong structure
  ** Imaginary eigenvectors =   3
  Cycle:     17 Energy:     -3074.643881  Gnorm:      0.070464  CPU:    2.207
  ** Hessian has wrong structure
  ** Imaginary eigenvectors =   2
  ** Hessian has wrong structure
  ** Imaginary eigenvectors =   1
  Cycle:     18 Energy:     -3074.674542  Gnorm:      0.077616  CPU:    2.630
  ** Hessian has required structure
  Cycle:     19 Energy:     -3074.910227  Gnorm:      0.054726  CPU:    2.784
  ** Hessian has required structure
  Cycle:     20 Energy:     -3074.986256  Gnorm:      0.027253  CPU:    2.923
  ** Hessian has required structure
  Cycle:     21 Energy:     -3075.049776  Gnorm:      0.025526  CPU:    3.077
  ** Hessian has required structure
  Cycle:     22 Energy:     -3075.083871  Gnorm:      0.028515  CPU:    3.217
  ** Hessian has required structure
  Cycle:     23 Energy:     -3075.097681  Gnorm:      0.028511  CPU:    3.358
  ** Hessian has required structure
  Cycle:     24 Energy:     -3075.116873  Gnorm:      0.015403  CPU:    3.536
  ** Hessian has required structure
  Cycle:     25 Energy:     -3075.126136  Gnorm:      0.013657  CPU:    3.696
  ** Hessian has required structure
  Cycle:     26 Energy:     -3075.132039  Gnorm:      0.006738  CPU:    3.857
  ** Hessian has required structure
  Cycle:     27 Energy:     -3075.134435  Gnorm:      0.005797  CPU:    4.033
  ** Hessian has wrong structure
  ** Imaginary eigenvectors =   2
  ** Hessian has wrong structure
  ** Imaginary eigenvectors =   1
  Cycle:     28 Energy:     -3075.136111  Gnorm:      0.010193  CPU:    4.617
  ** Hessian has required structure
  Cycle:     29 Energy:     -3075.139876  Gnorm:      0.008408  CPU:    4.885
  ** Hessian has required structure
  Cycle:     30 Energy:     -3075.141840  Gnorm:      0.004506  CPU:    5.059
  ** Hessian has required structure
  Cycle:     31 Energy:     -3075.142581  Gnorm:      0.005712  CPU:    5.250
  ** Hessian has required structure
  Cycle:     32 Energy:     -3075.143327  Gnorm:      0.002872  CPU:    5.423
  ** Hessian has required structure
  Cycle:     33 Energy:     -3075.143613  Gnorm:      0.002118  CPU:    5.609
  ** Hessian has required structure
  Cycle:     34 Energy:     -3075.143801  Gnorm:      0.000992  CPU:    5.798
  ** Hessian has required structure
  Cycle:     35 Energy:     -3075.143900  Gnorm:      0.001301  CPU:    5.986
  ** Hessian has required structure
  Cycle:     36 Energy:     -3075.143956  Gnorm:      0.000660  CPU:    6.140
  ** Hessian has required structure
  Cycle:     37 Energy:     -3075.143983  Gnorm:      0.000750  CPU:    6.316
  ** Hessian has required structure
  Cycle:     38 Energy:     -3075.144004  Gnorm:      0.000454  CPU:    6.491
  ** Hessian has required structure
  Cycle:     39 Energy:     -3075.144012  Gnorm:      0.000282  CPU:    6.729
  ** Hessian has required structure
  Cycle:     40 Energy:     -3075.144014  Gnorm:      0.000230  CPU:    6.867
  ** Hessian has required structure
  Cycle:     41 Energy:     -3075.144014  Gnorm:      0.000230  CPU:    7.033
  ** Hessian has required structure
  Cycle:     42 Energy:     -3075.144014  Gnorm:      0.000229  CPU:    7.151
  ** Hessian has required structure
  Cycle:     43 Energy:     -3075.144014  Gnorm:      0.000229  CPU:    7.270
  ** Hessian has required structure
  Cycle:     44 Energy:     -3075.144014  Gnorm:      0.000228  CPU:    7.389
  ** Hessian has required structure
  Cycle:     45 Energy:     -3075.144014  Gnorm:      0.000228  CPU:    7.510
  ** Hessian has required structure
  Cycle:     46 Energy:     -3075.144014  Gnorm:      0.000227  CPU:    7.630
  ** Hessian has required structure
  Cycle:     47 Energy:     -3075.144014  Gnorm:      0.000227  CPU:    7.750
  ** Hessian has required structure
  Cycle:     48 Energy:     -3075.144014  Gnorm:      0.000227  CPU:    7.871
  ** Hessian has required structure
  Cycle:     49 Energy:     -3075.144014  Gnorm:      0.000227  CPU:    8.141
  ** Hessian calculated **
  Cycle:     50 Energy:     -3075.144014  Gnorm:      0.000136  CPU:    8.314
  ** Hessian has required structure
  Cycle:     51 Energy:     -3075.144014  Gnorm:      0.000194  CPU:    8.452
  ** Hessian has required structure
  Cycle:     52 Energy:     -3075.144014  Gnorm:      0.000193  CPU:    8.589
  ** Hessian has required structure
  Cycle:     53 Energy:     -3075.144014  Gnorm:      0.000168  CPU:    8.729
  ** Hessian has required structure
  Cycle:     54 Energy:     -3075.144015  Gnorm:      0.000167  CPU:    8.866
  ** Hessian has required structure
  Cycle:     55 Energy:     -3075.144015  Gnorm:      0.000170  CPU:    9.004
  ** Hessian has required structure
  Cycle:     56 Energy:     -3075.144015  Gnorm:      0.000186  CPU:    9.144
  ** Hessian has required structure
  Cycle:     57 Energy:     -3075.144015  Gnorm:      0.000171  CPU:    9.264
  ** Hessian has required structure
  Cycle:     58 Energy:     -3075.144015  Gnorm:      0.000167  CPU:    9.385
  ** Hessian has required structure
  Cycle:     59 Energy:     -3075.144015  Gnorm:      0.000162  CPU:    9.505
  ** Hessian has required structure
  Cycle:     60 Energy:     -3075.144015  Gnorm:      0.000162  CPU:    9.717
  ** Hessian has required structure
  Cycle:     61 Energy:     -3075.144015  Gnorm:      0.000161  CPU:    9.839
  ** Hessian has required structure
  Cycle:     62 Energy:     -3075.144015  Gnorm:      0.000161  CPU:    9.961
  ** Hessian has required structure
  Cycle:     63 Energy:     -3075.144015  Gnorm:      0.000161  CPU:   10.090
  ** Hessian has required structure
  Cycle:     64 Energy:     -3075.144015  Gnorm:      0.000160  CPU:   10.222
  ** Hessian has required structure
  Cycle:     65 Energy:     -3075.144015  Gnorm:      0.000160  CPU:   10.353
  ** Hessian has required structure
  Cycle:     66 Energy:     -3075.144015  Gnorm:      0.000160  CPU:   10.483
  ** Hessian has required structure
  Cycle:     67 Energy:     -3075.144015  Gnorm:      0.000160  CPU:   10.614
  ** Hessian has required structure
  Cycle:     68 Energy:     -3075.144015  Gnorm:      0.000160  CPU:   10.744
  ** Hessian has required structure
  Cycle:     69 Energy:     -3075.144015  Gnorm:      0.000160  CPU:   10.875
  ** Hessian has required structure
  Cycle:     70 Energy:     -3075.144015  Gnorm:      0.000160  CPU:   11.138
  ** Hessian calculated **


  **** Optimisation achieved ****


  Final energy =   -3075.14401487 eV      
  Final Gnorm  =       0.00007688

  Components of energy : 

--------------------------------------------------------------------------------
  Interatomic potentials     =         816.29776818 eV    
  Three-body potentials      =           0.23111284 eV    
  Monopole - monopole (real) =       -2246.69858780 eV    
  Monopole - monopole (recip)=       -1644.97430810 eV    
  Monopole - monopole (total)=       -3891.67289590 eV    
--------------------------------------------------------------------------------
  Total lattice energy       =       -3075.14401487 eV    
--------------------------------------------------------------------------------
  Total lattice energy       =         -296704.3896 kJ/(mole unit cells)
--------------------------------------------------------------------------------

  Final fractional coordinates of atoms :

--------------------------------------------------------------------------------
   No.  Atomic        x           y          z          Radius
        Label       (Frac)      (Frac)     (Frac)       (Angs) 
--------------------------------------------------------------------------------
     1  Ge    c     0.052090    0.000000    0.372270    0.000000
     2  Ge    c     0.946157    0.999949    0.635815    0.000000
     3  Si    c     0.452105    0.000176    0.361322    0.000000
     4  Si    c     0.545825    0.000265    0.627328    0.000000
     5  Si    c     0.557503    0.000234    0.118115    0.000000
     6  Si    c     0.939916    0.999916    0.128355    0.000000
     7  Si    c     0.440825    0.000120    0.878270    0.000000
     8  Si    c     0.051472    0.000126    0.896424    0.000000
     9  Si    c     0.165223    0.296959    0.270935    0.000000
    10  Si    c     0.342365    0.701990    0.266097    0.000000
    11  Si    c     0.832828    0.297377    0.705162    0.000000
    12  Si    c     0.654409    0.701555    0.708658    0.000000
    13  Si    c     0.833099    0.702113    0.705154    0.000000
    14  Si    c     0.654145    0.299322    0.708667    0.000000
    15  Si    c     0.165063    0.702847    0.270965    0.000000
    16  Si    c     0.342520    0.298589    0.266108    0.000000
    17  Si    c     0.658944    0.300831    0.014665    0.000000
    18  Si    c     0.838182    0.700957    0.010072    0.000000
    19  Si    c     0.336992    0.301711    0.958844    0.000000
    20  Si    c     0.158776    0.699783    0.965335    0.000000
    21  Si    c     0.336782    0.698944    0.958835    0.000000
    22  Si    c     0.158989    0.300061    0.965301    0.000000
    23  Si    c     0.659237    0.700064    0.014662    0.000000
    24  Si    c     0.837888    0.298529    0.010088    0.000000
    25  O3    c     0.108844    0.183475    0.356203    0.000000
    26  O2    c     0.399945    0.827191    0.345923    0.000000
    27  O3    c     0.886393    0.180940    0.616488    0.000000
    28  O2    c     0.599652    0.828082    0.623275    0.000000
    29  O3    c     0.886842    0.818224    0.616548    0.000000
    30  O2    c     0.599207    0.173142    0.623337    0.000000
    31  O3    c     0.108605    0.816107    0.356268    0.000000
    32  O2    c     0.400196    0.173576    0.345938    0.000000
    33  O1    c     0.020033    0.000251    0.530199    0.000000
    34  O2    c     0.487336    0.999975    0.506144    0.000000
    35  O3    c     0.968371    0.000096    0.277544    0.000000
    36  O2    c     0.522877    0.999955    0.262074    0.000000
    37  O3    c     0.983499    0.000493    0.793310    0.000000
    38  O2    c     0.496335    0.999774    0.757290    0.000000
    39  O2    c     0.609143    0.173820    0.104112    0.000000
    40  O2    c     0.890295    0.825082    0.101042    0.000000
    41  O2    c     0.387580    0.172984    0.871477    0.000000
    42  O2    c     0.104458    0.826990    0.879497    0.000000
    43  O2    c     0.387151    0.827972    0.871374    0.000000
    44  O2    c     0.104828    0.172624    0.879417    0.000000
    45  O2    c     0.609727    0.827536    0.104204    0.000000
    46  O2    c     0.889758    0.173980    0.101126    0.000000
    47  O2    c     0.488465    0.999522    0.013281    0.000000
    48  O2    c     0.016793    0.000517    0.042352    0.000000
    49  O2    c     0.146881    0.499869    0.296812    0.000000
    50  O2    c     0.363282    0.500323    0.297394    0.000000
    51  O2    c     0.852405    0.499685    0.679874    0.000000
    52  O2    c     0.632642    0.500508    0.677523    0.000000
    53  O2    c     0.254833    0.258006    0.307911    0.000000
    54  O2    c     0.254642    0.742198    0.307909    0.000000
    55  O2    c     0.742666    0.262058    0.672060    0.000000
    56  O2    c     0.742983    0.738152    0.672055    0.000000
    57  O2    c     0.150878    0.251200    0.117942    0.000000
    58  O2    c     0.351153    0.740308    0.111944    0.000000
    59  O2    c     0.849505    0.249296    0.858123    0.000000
    60  O2    c     0.642358    0.742578    0.862185    0.000000
    61  O2    c     0.849860    0.750105    0.858104    0.000000
    62  O2    c     0.642027    0.258406    0.862191    0.000000
    63  O2    c     0.150626    0.748598    0.117981    0.000000
    64  O2    c     0.351374    0.260344    0.111955    0.000000
    65  O2    c     0.635397    0.500536    0.045814    0.000000
    66  O2    c     0.862709    0.499651    0.035833    0.000000
    67  O2    c     0.361791    0.500385    0.927320    0.000000
    68  O2    c     0.132715    0.499867    0.939281    0.000000
    69  O2    c     0.748971    0.271268    0.048201    0.000000
    70  O2    c     0.749306    0.728910    0.048180    0.000000
    71  O2    c     0.247134    0.274059    0.921869    0.000000
    72  O2    c     0.246895    0.726179    0.921902    0.000000
    73  O3    s     0.110196    0.180418    0.348309    0.000000
    74  O2    s     0.399085    0.831887    0.338465    0.000000
    75  O3    s     0.885463    0.179006    0.627307    0.000000
    76  O2    s     0.599994    0.832426    0.633227    0.000000
    77  O3    s     0.885860    0.820255    0.627352    0.000000
    78  O2    s     0.599616    0.168684    0.633273    0.000000
    79  O3    s     0.109985    0.819221    0.348367    0.000000
    80  O2    s     0.399298    0.168814    0.338480    0.000000
    81  O1    s     0.016309    0.000205    0.526684    0.000000
    82  O2    s     0.490156    0.000034    0.503524    0.000000
    83  O3    s     0.972188    0.000070    0.269924    0.000000
    84  O2    s     0.518937    0.000012    0.256684    0.000000
    85  O3    s     0.988035    0.000405    0.791676    0.000000
    86  O2    s     0.495363    0.999873    0.756898    0.000000
    87  O2    s     0.609175    0.169301    0.095412    0.000000
    88  O2    s     0.889750    0.829919    0.093673    0.000000
    89  O2    s     0.387620    0.168871    0.882046    0.000000
    90  O2    s     0.104938    0.830898    0.890673    0.000000
    91  O2    s     0.387260    0.831974    0.881968    0.000000
    92  O2    s     0.105253    0.168805    0.890612    0.000000
    93  O2    s     0.609663    0.831909    0.095480    0.000000
    94  O2    s     0.889300    0.169268    0.093736    0.000000
    95  O2    s     0.490979    0.999673    0.009945    0.000000
    96  O2    s     0.012185    0.000410    0.036336    0.000000
    97  O2    s     0.150879    0.499881    0.291171    0.000000
    98  O2    s     0.358817    0.500312    0.290712    0.000000
    99  O2    s     0.848137    0.499710    0.685406    0.000000
   100  O2    s     0.637300    0.500486    0.684207    0.000000
   101  O2    s     0.254749    0.266386    0.299610    0.000000
   102  O2    s     0.254566    0.733818    0.299611    0.000000
   103  O2    s     0.742678    0.269865    0.679549    0.000000
   104  O2    s     0.742982    0.730342    0.679542    0.000000
   105  O2    s     0.153270    0.261190    0.117717    0.000000
   106  O2    s     0.348643    0.731744    0.112026    0.000000
   107  O2    s     0.846567    0.259363    0.858682    0.000000
   108  O2    s     0.645438    0.733744    0.862247    0.000000
   109  O2    s     0.846908    0.740058    0.858665    0.000000
   110  O2    s     0.645119    0.267219    0.862253    0.000000
   111  O2    s     0.153031    0.738617    0.117753    0.000000
   112  O2    s     0.348857    0.268898    0.112035    0.000000
   113  O2    s     0.640459    0.500512    0.039144    0.000000
   114  O2    s     0.857508    0.499675    0.030387    0.000000
   115  O2    s     0.356455    0.500366    0.934083    0.000000
   116  O2    s     0.138281    0.499885    0.944813    0.000000
   117  O2    s     0.748803    0.277538    0.040348    0.000000
   118  O2    s     0.749127    0.722642    0.040329    0.000000
   119  O2    s     0.247312    0.279963    0.930625    0.000000
   120  O2    s     0.247080    0.720276    0.930655    0.000000
--------------------------------------------------------------------------------

  Final Cartesian lattice vectors (Angstroms) :

       17.305716    0.000718   -0.135472
        0.000321    7.643312    0.000088
       -0.089470    0.000233   10.193295


  Final cell parameters and derivatives :

--------------------------------------------------------------------------------
       a           17.306246 Angstrom     dE/de1(xx)     0.005456 eV/strain
       b            7.643312 Angstrom     dE/de2(yy)     0.008467 eV/strain
       c           10.193687 Angstrom     dE/de3(zz)    -0.001703 eV/strain
       alpha       89.998047 Degrees      dE/de4(yz)     0.000149 eV/strain
       beta        90.951404 Degrees      dE/de5(xz)     0.000525 eV/strain
       gamma       89.995218 Degrees      dE/de6(xy)    -0.000049 eV/strain
--------------------------------------------------------------------------------

  Primitive cell volume =          1348.204904 Angs**3

  Density of cell =      1.885958 g/cm**3

  Non-primitive cell volume =          1348.204904 Angs**3


  Final internal derivatives :

--------------------------------------------------------------------------------
   No.  Atomic          a             b             c           Radius
        Label          (eV)          (eV)          (eV)        (eV/Angs)
--------------------------------------------------------------------------------
      1 Ge    c       0.000000      0.000000      0.000000      0.000000
      2 Ge    c       0.005169      0.000026     -0.000368      0.000000
      3 Si    c       0.003986     -0.000150     -0.001231      0.000000
      4 Si    c      -0.009285     -0.000024      0.000562      0.000000
      5 Si    c      -0.003188      0.000045      0.002718      0.000000
      6 Si    c       0.002867      0.000064      0.002564      0.000000
      7 Si    c       0.007933     -0.000209     -0.001355      0.000000
      8 Si    c      -0.003655      0.000151      0.000742      0.000000
      9 Si    c      -0.000481     -0.000531      0.000318      0.000000
     10 Si    c       0.001149      0.000154     -0.000390      0.000000
     11 Si    c       0.000583     -0.001101     -0.000080      0.000000
     12 Si    c      -0.000597     -0.000782      0.002485      0.000000
     13 Si    c       0.001221      0.001120      0.000085      0.000000
     14 Si    c      -0.000802      0.000938      0.003034      0.000000
     15 Si    c      -0.000437      0.000499      0.000032      0.000000
     16 Si    c       0.000866     -0.000086     -0.000608      0.000000
     17 Si    c      -0.001517     -0.001789     -0.000841      0.000000
     18 Si    c       0.000895      0.001739     -0.000325      0.000000
     19 Si    c       0.000491      0.000089      0.001053      0.000000
     20 Si    c      -0.000325      0.000828      0.000319      0.000000
     21 Si    c       0.000355      0.000089      0.000543      0.000000
     22 Si    c       0.000134     -0.000984      0.000019      0.000000
     23 Si    c      -0.000724      0.001819     -0.000410      0.000000
     24 Si    c       0.000138     -0.001876      0.000302      0.000000
     25 O3    c      -0.000695      0.000342      0.000993      0.000000
     26 O2    c      -0.000191      0.000003      0.001469      0.000000
     27 O3    c      -0.002463      0.001093     -0.000816      0.000000
     28 O2    c       0.003495     -0.000969     -0.000871      0.000000
     29 O3    c      -0.002413     -0.001587     -0.000932      0.000000
     30 O2    c       0.003984      0.001216     -0.001151      0.000000
     31 O3    c      -0.001031     -0.000741      0.000980      0.000000
     32 O2    c      -0.000518      0.000200      0.001607      0.000000
     33 O1    c       0.000524      0.000122     -0.000496      0.000000
     34 O2    c       0.000299      0.000144      0.003163      0.000000
     35 O3    c       0.000045      0.000154      0.001244      0.000000
     36 O2    c       0.001030     -0.000184     -0.001295      0.000000
     37 O3    c       0.003354      0.000520      0.001041      0.000000
     38 O2    c      -0.000481      0.000380      0.003627      0.000000
     39 O2    c       0.001162      0.002108      0.000139      0.000000
     40 O2    c      -0.001274     -0.002182     -0.000844      0.000000
     41 O2    c      -0.002359      0.000668     -0.002067      0.000000
     42 O2    c       0.000997     -0.000863     -0.000930      0.000000
     43 O2    c      -0.002162     -0.000302     -0.002136      0.000000
     44 O2    c       0.001756      0.000570     -0.000996      0.000000
     45 O2    c       0.001505     -0.001426      0.000328      0.000000
     46 O2    c      -0.002017      0.001486     -0.000685      0.000000
     47 O2    c       0.001001     -0.000563      0.001406      0.000000
     48 O2    c       0.001831      0.000800     -0.000956      0.000000
     49 O2    c       0.000086      0.000027      0.000288      0.000000
     50 O2    c       0.001380     -0.000101      0.001026      0.000000
     51 O2    c      -0.001477     -0.000207     -0.000410      0.000000
     52 O2    c      -0.000871      0.000183     -0.002700      0.000000
     53 O2    c      -0.000474      0.000237      0.000637      0.000000
     54 O2    c      -0.000783     -0.000212      0.000636      0.000000
     55 O2    c      -0.000019     -0.000242     -0.001419      0.000000
     56 O2    c       0.000169      0.000304     -0.001441      0.000000
     57 O2    c       0.001090      0.000337     -0.000403      0.000000
     58 O2    c      -0.000282      0.000090     -0.000503      0.000000
     59 O2    c      -0.001656      0.000301     -0.000620      0.000000
     60 O2    c       0.000867      0.000087      0.000565      0.000000
     61 O2    c      -0.001177     -0.000148     -0.000746      0.000000
     62 O2    c       0.000539     -0.000193      0.000461      0.000000
     63 O2    c       0.000855     -0.000207     -0.000265      0.000000
     64 O2    c      -0.000071     -0.000209     -0.000630      0.000000
     65 O2    c      -0.001099      0.000082      0.000814      0.000000
     66 O2    c       0.000314     -0.000278     -0.000048      0.000000
     67 O2    c       0.002066      0.000001     -0.001338      0.000000
     68 O2    c      -0.000167     -0.000220     -0.000100      0.000000
     69 O2    c      -0.000037      0.000927      0.000067      0.000000
     70 O2    c      -0.000170     -0.001016      0.000092      0.000000
     71 O2    c      -0.001014      0.000108     -0.000403      0.000000
     72 O2    c      -0.000749     -0.000149     -0.000369      0.000000
     73 O3    s       0.000545     -0.000482      0.000245      0.000000
     74 O2    s      -0.002005     -0.001392      0.000775      0.000000
     75 O3    s       0.000241     -0.000687      0.000017      0.000000
     76 O2    s      -0.000347     -0.002323     -0.001616      0.000000
     77 O3    s       0.000643      0.000162      0.000417      0.000000
     78 O2    s      -0.001054      0.001975     -0.001255      0.000000
     79 O3    s       0.000831      0.000535      0.000268      0.000000
     80 O2    s      -0.001793      0.001151      0.000617      0.000000
     81 O1    s      -0.001637      0.000216      0.002181      0.000000
     82 O2    s      -0.003292     -0.000202     -0.000237      0.000000
     83 O3    s      -0.001138      0.000264     -0.001655      0.000000
     84 O2    s       0.000878     -0.000092     -0.000805      0.000000
     85 O3    s      -0.004588      0.000415     -0.000575      0.000000
     86 O2    s       0.000902      0.000101      0.000338      0.000000
     87 O2    s      -0.001106      0.001016      0.000544      0.000000
     88 O2    s       0.001443     -0.000381      0.001093      0.000000
     89 O2    s       0.001082      0.001902     -0.001170      0.000000
     90 O2    s      -0.001438     -0.000144     -0.000494      0.000000
     91 O2    s       0.000934     -0.001485     -0.001251      0.000000
     92 O2    s      -0.001259     -0.000692     -0.000515      0.000000
     93 O2    s      -0.001069      0.000493      0.000642      0.000000
     94 O2    s       0.001081     -0.000708      0.001401      0.000000
     95 O2    s      -0.001466     -0.000836     -0.000723      0.000000
     96 O2    s       0.000449      0.000983     -0.000256      0.000000
     97 O2    s      -0.000931     -0.000110      0.000768      0.000000
     98 O2    s       0.000604      0.000044      0.000005      0.000000
     99 O2    s       0.000471     -0.000098     -0.000705      0.000000
    100 O2    s      -0.002454     -0.000164      0.000729      0.000000
    101 O2    s      -0.000588     -0.000645      0.000793      0.000000
    102 O2    s      -0.000722      0.000672      0.000852      0.000000
    103 O2    s       0.003219     -0.000636     -0.000527      0.000000
    104 O2    s       0.002902      0.000707     -0.000676      0.000000
    105 O2    s      -0.000669     -0.000435     -0.000520      0.000000
    106 O2    s       0.002028     -0.000025     -0.000681      0.000000
    107 O2    s       0.001086     -0.000693     -0.000192      0.000000
    108 O2    s      -0.002027     -0.000167      0.000447      0.000000
    109 O2    s       0.001343      0.000674     -0.000320      0.000000
    110 O2    s      -0.002230      0.000177      0.000123      0.000000
    111 O2    s      -0.000852      0.000353     -0.000293      0.000000
    112 O2    s       0.002193      0.000106     -0.000440      0.000000
    113 O2    s      -0.002061      0.000288      0.000242      0.000000
    114 O2    s       0.001360     -0.000315      0.000763      0.000000
    115 O2    s       0.001913      0.000046      0.000085      0.000000
    116 O2    s      -0.000092     -0.000214     -0.000649      0.000000
    117 O2    s       0.000480     -0.001691      0.000408      0.000000
    118 O2    s       0.000134      0.001638      0.000319      0.000000
    119 O2    s      -0.001085     -0.000621     -0.000584      0.000000
    120 O2    s      -0.000585      0.000626     -0.000638      0.000000
--------------------------------------------------------------------------------
  Maximum abs         0.009285      0.002323      0.003627      0.000000
--------------------------------------------------------------------------------


  Born effective charge tensors : 

-------------------------------------------------------------------------------
  Atom             x           y             z
-------------------------------------------------------------------------------
    1 Ge    x       4.3240     -0.0012     -0.4531
            y       0.0016      3.9381      0.0002
            z      -0.3365      0.0017      4.7182
-------------------------------------------------------------------------------
    2 Ge    x       4.3989      0.0036      0.0181
            y      -0.0019      3.9017     -0.0003
            z      -1.0057     -0.0006      4.4772
-------------------------------------------------------------------------------
    3 Si    x       3.4236     -0.0012      0.3067
            y       0.0017      3.2814     -0.0000
            z       0.2881     -0.0007      3.8452
-------------------------------------------------------------------------------
    4 Si    x       3.4249      0.0027      0.0559
            y      -0.0022      3.2583      0.0003
            z       0.5919      0.0005      3.7712
-------------------------------------------------------------------------------
    5 Si    x       3.5283      0.0031     -0.3001
            y      -0.0030      3.2881     -0.0001
            z      -0.4132     -0.0006      3.1398
-------------------------------------------------------------------------------
    6 Si    x       3.6608      0.0025      0.5264
            y      -0.0028      3.3406      0.0006
            z       0.4630      0.0011      3.5158
-------------------------------------------------------------------------------
    7 Si    x       3.5148     -0.0026     -0.0915
            y       0.0024      3.2782      0.0003
            z      -0.5901      0.0007      3.0490
-------------------------------------------------------------------------------
    8 Si    x       3.9009     -0.0026      0.1722
            y       0.0016      3.3121     -0.0011
            z       0.8297     -0.0016      3.0828
-------------------------------------------------------------------------------
    9 Si    x       3.4377      0.3701     -0.2442
            y       0.4090      3.5488     -0.3092
            z      -0.2619     -0.1753      2.9727
-------------------------------------------------------------------------------
   10 Si    x       3.1807      0.2457      0.0918
            y       0.2730      3.4551      0.1430
            z       0.1406      0.0871      2.8161
-------------------------------------------------------------------------------
   11 Si    x       3.4122     -0.3930     -0.2499
            y      -0.3821      3.5469      0.3214
            z      -0.2154      0.1613      2.9759
-------------------------------------------------------------------------------
   12 Si    x       3.1617     -0.2585      0.1159
            y      -0.2530      3.4452     -0.1562
            z       0.1038     -0.0762      2.8122
-------------------------------------------------------------------------------
   13 Si    x       3.4132      0.3912     -0.2494
            y       0.3842      3.5454     -0.3210
            z      -0.2161     -0.1611      2.9759
-------------------------------------------------------------------------------
   14 Si    x       3.1615      0.2568      0.1150
            y       0.2552      3.4446      0.1564
            z       0.1039      0.0763      2.8123
-------------------------------------------------------------------------------
   15 Si    x       3.4382     -0.3688     -0.2441
            y      -0.4098      3.5475      0.3092
            z      -0.2618      0.1749      2.9728
-------------------------------------------------------------------------------
   16 Si    x       3.1805     -0.2446      0.0912
            y      -0.2741      3.4544     -0.1432
            z       0.1404     -0.0870      2.8161
-------------------------------------------------------------------------------
   17 Si    x       3.2404      0.2700     -0.1725
            y       0.2017      3.4288     -0.1802
            z      -0.1296     -0.0844      2.7471
-------------------------------------------------------------------------------
   18 Si    x       3.2648      0.2593      0.1625
            y       0.1955      3.4377      0.2062
            z       0.1366      0.0674      2.7049
-------------------------------------------------------------------------------
   19 Si    x       3.2421     -0.2935     -0.1507
            y      -0.2086      3.4121      0.1620
            z      -0.1374      0.0710      2.7175
-------------------------------------------------------------------------------
   20 Si    x       3.2698     -0.2957      0.1239
            y      -0.2064      3.4063     -0.1647
            z       0.1149     -0.0299      2.6393
-------------------------------------------------------------------------------
   21 Si    x       3.2415      0.2947     -0.1512
            y       0.2064      3.4129     -0.1620
            z      -0.1368     -0.0712      2.7175
-------------------------------------------------------------------------------
   22 Si    x       3.2694      0.2966      0.1243
            y       0.2044      3.4068      0.1646
            z       0.1147      0.0299      2.6394
-------------------------------------------------------------------------------
   23 Si    x       3.2395     -0.2718     -0.1730
            y      -0.1986      3.4296      0.1803
            z      -0.1288      0.0848      2.7474
-------------------------------------------------------------------------------
   24 Si    x       3.2641     -0.2609      0.1629
            y      -0.1927      3.4385     -0.2061
            z       0.1360     -0.0677      2.7053
-------------------------------------------------------------------------------
   25 O3    x      -2.1078     -0.9595      0.5479
            y      -0.9954     -2.3349      0.5441
            z       0.5642      0.5208     -1.6121
-------------------------------------------------------------------------------
   26 O2    x      -1.7080     -0.7359     -0.3519
            y      -0.7440     -2.0012     -0.3535
            z      -0.3721     -0.3560     -1.3488
-------------------------------------------------------------------------------
   27 O3    x      -2.0750      0.9546      0.3968
            y       0.9741     -2.3158     -0.4317
            z       0.5130     -0.4175     -1.5969
-------------------------------------------------------------------------------
   28 O2    x      -1.6871      0.7291     -0.2814
            y       0.7269     -1.9858      0.3069
            z      -0.3515      0.3036     -1.3456
-------------------------------------------------------------------------------
   29 O3    x      -2.0736     -0.9546      0.3976
            y      -0.9725     -2.3168      0.4309
            z       0.5141      0.4174     -1.5967
-------------------------------------------------------------------------------
   30 O2    x      -1.6851     -0.7289     -0.2816
            y      -0.7252     -1.9872     -0.3068
            z      -0.3518     -0.3037     -1.3456
-------------------------------------------------------------------------------
   31 O3    x      -2.1068      0.9590      0.5479
            y       0.9937     -2.3347     -0.5436
            z       0.5638     -0.5204     -1.6124
-------------------------------------------------------------------------------
   32 O2    x      -1.7066      0.7354     -0.3516
            y       0.7426     -2.0016      0.3534
            z      -0.3717      0.3558     -1.3489
-------------------------------------------------------------------------------
   33 O1    x      -2.2382     -0.0007      1.1440
            y      -0.0006     -1.2845      0.0003
            z       1.4617      0.0002     -3.5414
-------------------------------------------------------------------------------
   34 O2    x      -1.6025     -0.0005     -0.8030
            y      -0.0002     -1.0915     -0.0003
            z      -0.9989     -0.0005     -2.7754
-------------------------------------------------------------------------------
   35 O3    x      -2.0844     -0.0007     -0.8840
            y       0.0004     -1.2195     -0.0004
            z      -0.8754     -0.0010     -2.7744
-------------------------------------------------------------------------------
   36 O2    x      -1.7514     -0.0004      0.6969
            y       0.0003     -1.1059      0.0002
            z       0.7024      0.0006     -2.2103
-------------------------------------------------------------------------------
   37 O3    x      -2.2429      0.0005     -1.0610
            y       0.0006     -1.2589      0.0002
            z      -0.9833     -0.0001     -2.5639
-------------------------------------------------------------------------------
   38 O2    x      -1.7495     -0.0001      0.7525
            y      -0.0000     -1.1225      0.0001
            z       0.7513      0.0001     -2.2119
-------------------------------------------------------------------------------
   39 O2    x      -1.6966     -0.7240      0.3872
            y      -0.6750     -1.9951      0.3981
            z       0.3655      0.3673     -1.2724
-------------------------------------------------------------------------------
   40 O2    x      -1.7125     -0.7193     -0.4149
            y      -0.6592     -2.0039     -0.4270
            z      -0.3596     -0.3725     -1.2812
-------------------------------------------------------------------------------
   41 O2    x      -1.7052      0.7293      0.2849
            y       0.6839     -1.9825     -0.3091
            z       0.3455     -0.3058     -1.2279
-------------------------------------------------------------------------------
   42 O2    x      -1.7422      0.7321     -0.2243
            y       0.6743     -1.9764      0.2386
            z      -0.3095      0.2345     -1.1900
-------------------------------------------------------------------------------
   43 O2    x      -1.7068     -0.7296      0.2845
            y      -0.6851     -1.9809      0.3091
            z       0.3449      0.3055     -1.2282
-------------------------------------------------------------------------------
   44 O2    x      -1.7434     -0.7324     -0.2235
            y      -0.6756     -1.9750     -0.2384
            z      -0.3091     -0.2343     -1.1901
-------------------------------------------------------------------------------
   45 O2    x      -1.6983      0.7244      0.3872
            y       0.6766     -1.9933     -0.3983
            z       0.3651     -0.3673     -1.2727
-------------------------------------------------------------------------------
   46 O2    x      -1.7139      0.7200     -0.4150
            y       0.6610     -2.0024      0.4270
            z      -0.3596      0.3725     -1.2814
-------------------------------------------------------------------------------
   47 O2    x      -1.8520     -0.0006     -0.6151
            y      -0.0005     -1.1524     -0.0002
            z      -0.3527     -0.0000     -1.7180
-------------------------------------------------------------------------------
   48 O2    x      -1.9458     -0.0009      0.5414
            y      -0.0007     -1.1712      0.0002
            z       0.2870      0.0001     -1.6259
-------------------------------------------------------------------------------
   49 O2    x      -1.1812      0.0007      0.0608
            y       0.0012     -2.4894     -0.0001
            z       0.0787      0.0001     -1.0854
-------------------------------------------------------------------------------
   50 O2    x      -1.1461      0.0007     -0.0588
            y       0.0013     -2.5750      0.0000
            z      -0.0803     -0.0001     -1.0731
-------------------------------------------------------------------------------
   51 O2    x      -1.1822     -0.0011      0.0675
            y      -0.0021     -2.4617      0.0001
            z       0.0785      0.0000     -1.0859
-------------------------------------------------------------------------------
   52 O2    x      -1.1449     -0.0011     -0.0668
            y      -0.0023     -2.5523      0.0000
            z      -0.0761      0.0001     -1.0715
-------------------------------------------------------------------------------
   53 O2    x      -2.3551      0.0112      0.0133
            y       0.0192     -1.2533      0.0741
            z       0.0107      0.0564     -1.0881
-------------------------------------------------------------------------------
   54 O2    x      -2.3554     -0.0137      0.0135
            y      -0.0204     -1.2534     -0.0740
            z       0.0110     -0.0563     -1.0881
-------------------------------------------------------------------------------
   55 O2    x      -2.3660     -0.0117      0.0050
            y      -0.0191     -1.2473     -0.0700
            z       0.0065     -0.0490     -1.0769
-------------------------------------------------------------------------------
   56 O2    x      -2.3664      0.0158      0.0050
            y       0.0213     -1.2475      0.0699
            z       0.0069      0.0489     -1.0770
-------------------------------------------------------------------------------
   57 O2    x      -1.2102     -0.1367     -0.0688
            y      -0.1141     -1.2897     -0.0074
            z      -0.0677     -0.0144     -2.0063
-------------------------------------------------------------------------------
   58 O2    x      -1.1796     -0.1238     -0.0032
            y      -0.1094     -1.2704     -0.0029
            z      -0.0018      0.0017     -2.0702
-------------------------------------------------------------------------------
   59 O2    x      -1.2171      0.1405     -0.0491
            y       0.1165     -1.2951      0.0025
            z      -0.0564      0.0111     -2.0236
-------------------------------------------------------------------------------
   60 O2    x      -1.1823      0.1265     -0.0028
            y       0.1127     -1.2746      0.0009
            z      -0.0019      0.0016     -2.0690
-------------------------------------------------------------------------------
   61 O2    x      -1.2175     -0.1404     -0.0492
            y      -0.1171     -1.2947     -0.0026
            z      -0.0567     -0.0111     -2.0236
-------------------------------------------------------------------------------
   62 O2    x      -1.1827     -0.1264     -0.0026
            y      -0.1134     -1.2742     -0.0009
            z      -0.0016     -0.0018     -2.0690
-------------------------------------------------------------------------------
   63 O2    x      -1.2106      0.1367     -0.0689
            y       0.1146     -1.2895      0.0076
            z      -0.0681      0.0144     -2.0064
-------------------------------------------------------------------------------
   64 O2    x      -1.1799      0.1237     -0.0030
            y       0.1099     -1.2702      0.0027
            z      -0.0013     -0.0015     -2.0703
-------------------------------------------------------------------------------
   65 O2    x      -1.2033     -0.0012      0.0900
            y      -0.0025     -2.5277     -0.0000
            z       0.0925      0.0000     -1.0337
-------------------------------------------------------------------------------
   66 O2    x      -1.2243     -0.0013     -0.0807
            y      -0.0025     -2.5656      0.0001
            z      -0.0871      0.0001     -1.0070
-------------------------------------------------------------------------------
   67 O2    x      -1.2075      0.0007      0.0877
            y       0.0017     -2.4937      0.0000
            z       0.1009     -0.0001     -1.0296
-------------------------------------------------------------------------------
   68 O2    x      -1.2304      0.0008     -0.0777
            y       0.0018     -2.5095     -0.0002
            z      -0.0899     -0.0001     -0.9969
-------------------------------------------------------------------------------
   69 O2    x      -2.4390      0.0058      0.0314
            y       0.0036     -1.2352      0.0686
            z       0.0151      0.0398     -1.0334
-------------------------------------------------------------------------------
   70 O2    x      -2.4390     -0.0015      0.0313
            y      -0.0012     -1.2352     -0.0687
            z       0.0150     -0.0398     -1.0334
-------------------------------------------------------------------------------
   71 O2    x      -2.4185     -0.0044      0.0388
            y       0.0005     -1.2300     -0.0642
            z       0.0296     -0.0358     -1.0406
-------------------------------------------------------------------------------
   72 O2    x      -2.4186      0.0019      0.0389
            y      -0.0020     -1.2300      0.0643
            z       0.0295      0.0358     -1.0405
-------------------------------------------------------------------------------




  Elastic Constant Matrix: (Units=GPa)

-------------------------------------------------------------------------------
  Indices      1         2         3         4         5         6    
-------------------------------------------------------------------------------
       1     86.4620   67.4427   21.0149    0.2160   -0.3524    0.6130
       2     67.4427  125.9225   21.7917    0.2843    0.6540    0.7773
       3     21.0149   21.7917   22.0489   -0.0177    0.3068   -0.0065
       4      0.2160    0.2843   -0.0177   11.1719    0.0022    0.4906
       5     -0.3524    0.6540    0.3068    0.0022   25.4366    0.0088
       6      0.6130    0.7773   -0.0065    0.4906    0.0088   16.3278
-------------------------------------------------------------------------------


  Elastic Compliance Matrix: (Units=1/GPa)

-------------------------------------------------------------------------------
  Indices      1         2         3         4         5         6    
-------------------------------------------------------------------------------
       1    0.021962 -0.009819 -0.011238 -0.000177  0.000692 -0.000357
       2   -0.009819  0.013974 -0.004447 -0.000160 -0.000442 -0.000293
       3   -0.011238 -0.004447  0.060471  0.000398 -0.000771  0.000646
       4   -0.000177 -0.000160  0.000398  0.089636 -0.000010 -0.002679
       5    0.000692 -0.000442 -0.000771 -0.000010  0.039344 -0.000026
       6   -0.000357 -0.000293  0.000646 -0.002679 -0.000026  0.061353
-------------------------------------------------------------------------------

  Mechanical properties :

-------------------------------------------------------------------------------
  Convention :                    Reuss         Voigt         Hill
-------------------------------------------------------------------------------
  Bulk  Modulus (GPa)     =      22.02635      50.54799      36.28717
  Shear Modulus (GPa)     =      14.16911      18.86619      16.51765
-------------------------------------------------------------------------------
  Velocity S-wave (km/s)  =       2.74098       3.16283       2.95943
  Velocity P-wave (km/s)  =       4.65794       6.33564       5.56043
-------------------------------------------------------------------------------
  Compressibility (1/GPa) =    0.04540017
-------------------------------------------------------------------------------
  Stress axis :                     x             y             z
-------------------------------------------------------------------------------
  Youngs Moduli (GPa)     =      45.53360      71.56021      16.53689
-------------------------------------------------------------------------------
  Poissons Ratio (x)      =                     0.70263       0.18584
  Poissons Ratio (y)      =       0.44708                     0.07354
  Poissons Ratio (z)      =       0.51169       0.31823
-------------------------------------------------------------------------------


  Piezoelectric Strain Matrix: (Units=C/m**2)

-------------------------------------------------------------------------------
  Indices      1         2         3         4         5         6    
-------------------------------------------------------------------------------
       x    -0.22934  -0.17637  -0.18998  -0.00038  -0.50609  -0.00411
       y    -0.01365  -0.01725   0.00380  -0.35851   0.00067  -0.13832
       z     0.30394   0.36551   1.33291   0.00649   0.02817   0.01260
-------------------------------------------------------------------------------


  Piezoelectric Stress Matrix: (Units=10**-11 C/N)

-------------------------------------------------------------------------------
  Indices      1         2         3         4         5         6    
-------------------------------------------------------------------------------
       x    -0.15188   0.08568  -0.77397  -0.00250  -1.98457  -0.02273
       y    -0.00599  -0.00264   0.02274  -3.17584   0.00290  -0.75137
       z    -1.18786  -0.38212   7.55501   0.09661   0.01292   0.14002
-------------------------------------------------------------------------------


  Static dielectric constant tensor : 

-------------------------------------------------------------------------------
              x         y         z
-------------------------------------------------------------------------------
       x     3.75356  -0.00004  -0.12727
       y    -0.00004   3.85290  -0.00002
       z    -0.12727  -0.00002   3.32892
--------------------------------------------------------------------------------

  High frequency dielectric constant tensor : 

-------------------------------------------------------------------------------
              x         y         z
-------------------------------------------------------------------------------
       x     1.68068   0.00001   0.00059
       y     0.00001   1.68879   0.00000
       z     0.00059   0.00000   1.61443
-------------------------------------------------------------------------------

  Static refractive indices : 

-------------------------------------------------------------------------------
    1 =    1.81486      2 =    1.94648      3 =    1.96288
-------------------------------------------------------------------------------

  High frequency refractive indices : 

-------------------------------------------------------------------------------
    1 =    1.27060      2 =    1.29641      3 =    1.29954
-------------------------------------------------------------------------------


  Time to end of optimisation =      11.4665 seconds


  Peak dynamic memory used =       5.01 MB 


  Timing analysis for GULP :

--------------------------------------------------------------------------------
  Task / Subroutine                                          Time (Seconds)
--------------------------------------------------------------------------------
  Calculation of reciprocal space energy and derivatives          0.6797
  Calculation of real space energy and derivatives                6.8420
  Calculation of three-body energy and derivatives                0.7728
  Calculation and manipulation of Hessian matrix                  3.4031
  Calculation of matrix inversion                                 0.0385
  Global summation overhead                                       0.0001
--------------------------------------------------------------------------------
  Total CPU time                                                 11.4665
--------------------------------------------------------------------------------


  Dump file written as c00002.vasp.grs
  CIF file written as c00002.vasp.cif


  Job Finished at 10:46.54  7th October    2025                               

