********************************************************************************
*                       GENERAL UTILITY LATTICE PROGRAM                        *
*                                 Julian Gale                                  *
*                       Curtin Institute for Computation                       *
*                    School of Molecular and Life Sciences                     *
*                    Curtin University, Western Australia                      *
********************************************************************************
* Version = 6.1.2 * Last modified =   3rd November 2022                        *
********************************************************************************
*  optimise     - perform optimisation run                                     *
*  conp         - constant pressure calculation                                *
*  property     - calculate properties for final geometry                      *
********************************************************************************

  Job Started  at 10:46.55  7th October    2025                               

  Number of CPUs =     1


  Total number of configurations input =      1

********************************************************************************
*  Input for Configuration =   1 : c00003.vasp                                 *
********************************************************************************

  Formula = Ge2Si22O48                                                  

  Number of irreducible atoms/shells =     120


  Total number atoms/shells =     120

  Dimensionality = 3               :  Bulk   



  Cartesian lattice vectors (Angstroms) :

       17.182800    0.000000    0.000000
        0.000000    7.513760    0.000000
        0.000000    0.000000   10.447700

  Cell parameters (Angstroms/Degrees):

  a =      17.1828    alpha =  90.0000
  b =       7.5138    beta  =  90.0000
  c =      10.4477    gamma =  90.0000

  Initial cell volume =        1348.875752 Angs**3

  Temperature of configuration =   0.00     K 

  Pressure of configuration =         0.000 GPa 

  Fractional coordinates of asymmetric unit :

--------------------------------------------------------------------------------
   No.  Atomic       x           y          z         Charge      Occupancy
        Label      (Frac)      (Frac)     (Frac)        (e)         (Frac)  
--------------------------------------------------------------------------------
      1 Ge    c    0.052090    0.000000    0.372270     4.00000    1.000000    
      2 Ge    c    0.552090 *  0.000000 *  0.627730 *   4.00000    1.000000    
      3 Si    c    0.447910 *  0.000000 *  0.372270 *   4.00000    1.000000    
      4 Si    c    0.947910 *  0.000000 *  0.627730 *   4.00000    1.000000    
      5 Si    c    0.556730 *  0.000000 *  0.122130 *   4.00000    1.000000    
      6 Si    c    0.943270 *  0.000000 *  0.122130 *   4.00000    1.000000    
      7 Si    c    0.443270 *  0.000000 *  0.877870 *   4.00000    1.000000    
      8 Si    c    0.056730 *  0.000000 *  0.877870 *   4.00000    1.000000    
      9 Si    c    0.160190 *  0.293910 *  0.273440 *   4.00000    1.000000    
     10 Si    c    0.339810 *  0.706090 *  0.273440 *   4.00000    1.000000    
     11 Si    c    0.839810 *  0.293910 *  0.726560 *   4.00000    1.000000    
     12 Si    c    0.660190 *  0.706090 *  0.726560 *   4.00000    1.000000    
     13 Si    c    0.839810 *  0.706090 *  0.726560 *   4.00000    1.000000    
     14 Si    c    0.660190 *  0.293910 *  0.726560 *   4.00000    1.000000    
     15 Si    c    0.160190 *  0.706090 *  0.273440 *   4.00000    1.000000    
     16 Si    c    0.339810 *  0.293910 *  0.273440 *   4.00000    1.000000    
     17 Si    c    0.660660 *  0.294090 *  0.017440 *   4.00000    1.000000    
     18 Si    c    0.839340 *  0.705910 *  0.017440 *   4.00000    1.000000    
     19 Si    c    0.339340 *  0.294090 *  0.982560 *   4.00000    1.000000    
     20 Si    c    0.160660 *  0.705910 *  0.982560 *   4.00000    1.000000    
     21 Si    c    0.339340 *  0.705910 *  0.982560 *   4.00000    1.000000    
     22 Si    c    0.160660 *  0.294090 *  0.982560 *   4.00000    1.000000    
     23 Si    c    0.660660 *  0.705910 *  0.017440 *   4.00000    1.000000    
     24 Si    c    0.839340 *  0.294090 *  0.017440 *   4.00000    1.000000    
     25 O3    c    0.106570 *  0.174340 *  0.366200 *   1.33043    1.000000    
     26 O2    c    0.393430 *  0.825660 *  0.366200 *   0.87073    1.000000    
     27 O2    c    0.893430 *  0.174340 *  0.633800 *   0.87073    1.000000    
     28 O3    c    0.606570 *  0.825660 *  0.633800 *   1.33043    1.000000    
     29 O2    c    0.893430 *  0.825660 *  0.633800 *   0.87073    1.000000    
     30 O3    c    0.606570 *  0.174340 *  0.633800 *   1.33043    1.000000    
     31 O3    c    0.106570 *  0.825660 *  0.366200 *   1.33043    1.000000    
     32 O2    c    0.393430 *  0.174340 *  0.366200 *   0.87073    1.000000    
     33 O3    c    0.000000 *  0.000000 *  0.500000 *   1.33043    1.000000    
     34 O3    c    0.500000 *  0.000000 *  0.500000 *   1.33043    1.000000    
     35 O3    c    0.994520 *  0.000000 *  0.250840 *   1.33043    1.000000    
     36 O2    c    0.505480 *  0.000000 *  0.250840 *   0.87073    1.000000    
     37 O2    c    0.005480 *  0.000000 *  0.749160 *   0.87073    1.000000    
     38 O3    c    0.494520 *  0.000000 *  0.749160 *   1.33043    1.000000    
     39 O2    c    0.610230 *  0.175520 *  0.115390 *   0.87073    1.000000    
     40 O2    c    0.889770 *  0.824480 *  0.115390 *   0.87073    1.000000    
     41 O2    c    0.389770 *  0.175520 *  0.884610 *   0.87073    1.000000    
     42 O2    c    0.110230 *  0.824480 *  0.884610 *   0.87073    1.000000    
     43 O2    c    0.389770 *  0.824480 *  0.884610 *   0.87073    1.000000    
     44 O2    c    0.110230 *  0.175520 *  0.884610 *   0.87073    1.000000    
     45 O2    c    0.610230 *  0.824480 *  0.115390 *   0.87073    1.000000    
     46 O2    c    0.889770 *  0.175520 *  0.115390 *   0.87073    1.000000    
     47 O2    c    0.500000 *  0.000000 *  0.000000 *   0.87073    1.000000    
     48 O2    c    0.000000 *  0.000000 *  0.000000 *   0.87073    1.000000    
     49 O2    c    0.151750 *  0.500000 *  0.313330 *   0.87073    1.000000    
     50 O2    c    0.348250 *  0.500000 *  0.313330 *   0.87073    1.000000    
     51 O2    c    0.848250 *  0.500000 *  0.686670 *   0.87073    1.000000    
     52 O2    c    0.651750 *  0.500000 *  0.686670 *   0.87073    1.000000    
     53 O2    c    0.250000 *  0.234950 *  0.285720 *   0.87073    1.000000    
     54 O2    c    0.250000 *  0.765050 *  0.285720 *   0.87073    1.000000    
     55 O2    c    0.750000 *  0.234950 *  0.714280 *   0.87073    1.000000    
     56 O2    c    0.750000 *  0.765050 *  0.714280 *   0.87073    1.000000    
     57 O2    c    0.131410 *  0.268650 *  0.127790 *   0.87073    1.000000    
     58 O2    c    0.368590 *  0.731350 *  0.127790 *   0.87073    1.000000    
     59 O2    c    0.868590 *  0.268650 *  0.872210 *   0.87073    1.000000    
     60 O2    c    0.631410 *  0.731350 *  0.872210 *   0.87073    1.000000    
     61 O2    c    0.868590 *  0.731350 *  0.872210 *   0.87073    1.000000    
     62 O2    c    0.631410 *  0.268650 *  0.872210 *   0.87073    1.000000    
     63 O2    c    0.131410 *  0.731350 *  0.127790 *   0.87073    1.000000    
     64 O2    c    0.368590 *  0.268650 *  0.127790 *   0.87073    1.000000    
     65 O2    c    0.653920 *  0.500000 *  0.058200 *   0.87073    1.000000    
     66 O2    c    0.846080 *  0.500000 *  0.058200 *   0.87073    1.000000    
     67 O2    c    0.346080 *  0.500000 *  0.941800 *   0.87073    1.000000    
     68 O2    c    0.153920 *  0.500000 *  0.941800 *   0.87073    1.000000    
     69 O2    c    0.750000 *  0.231060 *  0.027050 *   0.87073    1.000000    
     70 O2    c    0.750000 *  0.768940 *  0.027050 *   0.87073    1.000000    
     71 O2    c    0.250000 *  0.231060 *  0.972950 *   0.87073    1.000000    
     72 O2    c    0.250000 *  0.768940 *  0.972950 *   0.87073    1.000000    
     73 O3    s    0.106570 *  0.174340 *  0.366200 *  -3.33043    1.000000    
     74 O2    s    0.393430 *  0.825660 *  0.366200 *  -2.87073    1.000000    
     75 O2    s    0.893430 *  0.174340 *  0.633800 *  -2.87073    1.000000    
     76 O3    s    0.606570 *  0.825660 *  0.633800 *  -3.33043    1.000000    
     77 O2    s    0.893430 *  0.825660 *  0.633800 *  -2.87073    1.000000    
     78 O3    s    0.606570 *  0.174340 *  0.633800 *  -3.33043    1.000000    
     79 O3    s    0.106570 *  0.825660 *  0.366200 *  -3.33043    1.000000    
     80 O2    s    0.393430 *  0.174340 *  0.366200 *  -2.87073    1.000000    
     81 O3    s    0.000000 *  0.000000 *  0.500000 *  -3.33043    1.000000    
     82 O3    s    0.500000 *  0.000000 *  0.500000 *  -3.33043    1.000000    
     83 O3    s    0.994520 *  0.000000 *  0.250840 *  -3.33043    1.000000    
     84 O2    s    0.505480 *  0.000000 *  0.250840 *  -2.87073    1.000000    
     85 O2    s    0.005480 *  0.000000 *  0.749160 *  -2.87073    1.000000    
     86 O3    s    0.494520 *  0.000000 *  0.749160 *  -3.33043    1.000000    
     87 O2    s    0.610230 *  0.175520 *  0.115390 *  -2.87073    1.000000    
     88 O2    s    0.889770 *  0.824480 *  0.115390 *  -2.87073    1.000000    
     89 O2    s    0.389770 *  0.175520 *  0.884610 *  -2.87073    1.000000    
     90 O2    s    0.110230 *  0.824480 *  0.884610 *  -2.87073    1.000000    
     91 O2    s    0.389770 *  0.824480 *  0.884610 *  -2.87073    1.000000    
     92 O2    s    0.110230 *  0.175520 *  0.884610 *  -2.87073    1.000000    
     93 O2    s    0.610230 *  0.824480 *  0.115390 *  -2.87073    1.000000    
     94 O2    s    0.889770 *  0.175520 *  0.115390 *  -2.87073    1.000000    
     95 O2    s    0.500000 *  0.000000 *  0.000000 *  -2.87073    1.000000    
     96 O2    s    0.000000 *  0.000000 *  0.000000 *  -2.87073    1.000000    
     97 O2    s    0.151750 *  0.500000 *  0.313330 *  -2.87073    1.000000    
     98 O2    s    0.348250 *  0.500000 *  0.313330 *  -2.87073    1.000000    
     99 O2    s    0.848250 *  0.500000 *  0.686670 *  -2.87073    1.000000    
    100 O2    s    0.651750 *  0.500000 *  0.686670 *  -2.87073    1.000000    
    101 O2    s    0.250000 *  0.234950 *  0.285720 *  -2.87073    1.000000    
    102 O2    s    0.250000 *  0.765050 *  0.285720 *  -2.87073    1.000000    
    103 O2    s    0.750000 *  0.234950 *  0.714280 *  -2.87073    1.000000    
    104 O2    s    0.750000 *  0.765050 *  0.714280 *  -2.87073    1.000000    
    105 O2    s    0.131410 *  0.268650 *  0.127790 *  -2.87073    1.000000    
    106 O2    s    0.368590 *  0.731350 *  0.127790 *  -2.87073    1.000000    
    107 O2    s    0.868590 *  0.268650 *  0.872210 *  -2.87073    1.000000    
    108 O2    s    0.631410 *  0.731350 *  0.872210 *  -2.87073    1.000000    
    109 O2    s    0.868590 *  0.731350 *  0.872210 *  -2.87073    1.000000    
    110 O2    s    0.631410 *  0.268650 *  0.872210 *  -2.87073    1.000000    
    111 O2    s    0.131410 *  0.731350 *  0.127790 *  -2.87073    1.000000    
    112 O2    s    0.368590 *  0.268650 *  0.127790 *  -2.87073    1.000000    
    113 O2    s    0.653920 *  0.500000 *  0.058200 *  -2.87073    1.000000    
    114 O2    s    0.846080 *  0.500000 *  0.058200 *  -2.87073    1.000000    
    115 O2    s    0.346080 *  0.500000 *  0.941800 *  -2.87073    1.000000    
    116 O2    s    0.153920 *  0.500000 *  0.941800 *  -2.87073    1.000000    
    117 O2    s    0.750000 *  0.231060 *  0.027050 *  -2.87073    1.000000    
    118 O2    s    0.750000 *  0.768940 *  0.027050 *  -2.87073    1.000000    
    119 O2    s    0.250000 *  0.231060 *  0.972950 *  -2.87073    1.000000    
    120 O2    s    0.250000 *  0.768940 *  0.972950 *  -2.87073    1.000000    
--------------------------------------------------------------------------------



********************************************************************************
*  General input information                                                   *
********************************************************************************

  Species output for all configurations : 

--------------------------------------------------------------------------------
  Species    Type    Atomic    Atomic    Charge       Radii (Angs)     Library
                     Number     Mass       (e)     Cova   Ionic  VDW   Symbol
--------------------------------------------------------------------------------
    Ge       Core       32      72.61   4.000000   1.170  0.000  1.750 Ge       
    Si       Core       14      28.09   4.000000   1.200  0.000  2.100 Si       
    O1       Core        8      16.00   1.733957   0.730  0.000  0.000 O1       
    O2       Core        8      16.00   0.870733   0.730  0.000  1.360 O2       
    O3       Core        8      16.00   1.330431   0.730  0.000  1.360 O3       
    O1       Shell       8       0.00  -3.733957   0.730  0.000  0.000 O1       
    O2       Shell       8       0.00  -2.870733   0.730  0.000  0.000 O2       
    O3       Shell       8       0.00  -3.330431   0.730  0.000  0.000 O3       
--------------------------------------------------------------------------------


  Lattice summation method               =    Ewald          (3-D)
                                         =    Parry          (2-D)
                                         =    Saunders et al (1-D)
  Accuracy factor for lattice sums       =   12.000


  Analytic derivatives to be used

  Time limit = Infinity

  Maximum range for interatomic potentials =    100000.000000 Angstroms

  General interatomic potentials :

--------------------------------------------------------------------------------
Atom  Types   Potential      Parameter       Value         Units   Cutoffs(Ang)
  1     2                                                            Min /  Max 
--------------------------------------------------------------------------------
Si   c O1   s Buckingham    Buckingham A     1315.2478    eV        0.000 16.000
                            Buckingham rho  0.31775900    Ang       
                            Buckingham C     10.141118    eV*Ang^6  
--------------------------------------------------------------------------------
Si   c O2   s Buckingham    Buckingham A     1315.2478    eV        0.000 16.000
                            Buckingham rho  0.31775900    Ang       
                            Buckingham C     10.141118    eV*Ang^6  
--------------------------------------------------------------------------------
Si   c O3   s Buckingham    Buckingham A     1315.2478    eV        0.000 16.000
                            Buckingham rho  0.31775900    Ang       
                            Buckingham C     10.141118    eV*Ang^6  
--------------------------------------------------------------------------------
Ge   c O1   s Buckingham    Buckingham A     1497.3996    eV        0.000 16.000
                            Buckingham rho  0.32564600    Ang       
                            Buckingham C     16.808599    eV*Ang^6  
--------------------------------------------------------------------------------
Ge   c O2   s Buckingham    Buckingham A     1497.3996    eV        0.000 16.000
                            Buckingham rho  0.32564600    Ang       
                            Buckingham C     16.808599    eV*Ang^6  
--------------------------------------------------------------------------------
Ge   c O3   s Buckingham    Buckingham A     1497.3996    eV        0.000 16.000
                            Buckingham rho  0.32564600    Ang       
                            Buckingham C     16.808599    eV*Ang^6  
--------------------------------------------------------------------------------
O1   s O1   s Buckingham    Buckingham A     22764.000    eV        0.000 16.000
                            Buckingham rho  0.14900000    Ang       
                            Buckingham C     10.937044    eV*Ang^6  
--------------------------------------------------------------------------------
O1   s O2   s Buckingham    Buckingham A     22764.000    eV        0.000 16.000
                            Buckingham rho  0.14900000    Ang       
                            Buckingham C     10.937044    eV*Ang^6  
--------------------------------------------------------------------------------
O1   s O3   s Buckingham    Buckingham A     22764.000    eV        0.000 16.000
                            Buckingham rho  0.14900000    Ang       
                            Buckingham C     10.937044    eV*Ang^6  
--------------------------------------------------------------------------------
O2   s O2   s Buckingham    Buckingham A     22764.000    eV        0.000 16.000
                            Buckingham rho  0.14900000    Ang       
                            Buckingham C     10.937044    eV*Ang^6  
--------------------------------------------------------------------------------
O2   s O3   s Buckingham    Buckingham A     22764.000    eV        0.000 16.000
                            Buckingham rho  0.14900000    Ang       
                            Buckingham C     10.937044    eV*Ang^6  
--------------------------------------------------------------------------------
O3   s O3   s Buckingham    Buckingham A     22764.000    eV        0.000 16.000
                            Buckingham rho  0.14900000    Ang       
                            Buckingham C     10.937044    eV*Ang^6  
--------------------------------------------------------------------------------
O1   c O1   s Spring (c-s)  Spring k 2       180.31577    eV*Ang^-2 0.000  0.800
                            Spring k 4       0.0000000    eV*Ang^-4 
--------------------------------------------------------------------------------
O2   c O2   s Spring (c-s)  Spring k 2       75.969800    eV*Ang^-2 0.000  0.800
                            Spring k 4       0.0000000    eV*Ang^-4 
--------------------------------------------------------------------------------
O3   c O3   s Spring (c-s)  Spring k 2       128.14270    eV*Ang^-2 0.000  0.800
                            Spring k 4       0.0000000    eV*Ang^-4 
--------------------------------------------------------------------------------

  General Three-body potentials :

--------------------------------------------------------------------------------
  Atoms       Potential      Parameter       Value         Units   Cutoffs(Ang)
  1 / 2 / 3                                                          Min /  Max 
--------------------------------------------------------------------------------
Si    core    Harmonic      Three-body cnst  1.2614000    eV*rad^-2 0.000  1.900
O1    shel                  Three-body angl  109.47000    degrees   0.000  1.900
O1    shel                  Three-body k4    0.0000000    eV*rad^-4 0.000  3.500
                            Three-body k3    0.0000000    eV*rad^-3 
--------------------------------------------------------------------------------
Si    core    Harmonic      Three-body cnst  1.2614000    eV*rad^-2 0.000  1.900
O1    shel                  Three-body angl  109.47000    degrees   0.000  1.900
õ(1   shel                  Three-body k4    0.0000000    eV*rad^-4 0.000  3.500
                            Three-body k3    0.0000000    eV*rad^-3 
--------------------------------------------------------------------------------
Si    core    Harmonic      Three-body cnst  1.2614000    eV*rad^-2 0.000  1.900
õ(1   shel                  Three-body angl  109.47000    degrees   0.000  1.900
õ(1   shel                  Three-body k4    0.0000000    eV*rad^-4 0.000  3.500
                            Three-body k3    0.0000000    eV*rad^-3 
--------------------------------------------------------------------------------
Si    core    Harmonic      Three-body cnst  1.2614000    eV*rad^-2 0.000  1.900
O1    shel                  Three-body angl  109.47000    degrees   0.000  1.900
O2    shel                  Three-body k4    0.0000000    eV*rad^-4 0.000  3.500
                            Three-body k3    0.0000000    eV*rad^-3 
--------------------------------------------------------------------------------
Si    core    Harmonic      Three-body cnst  1.2614000    eV*rad^-2 0.000  1.900
O1    shel                  Three-body angl  109.47000    degrees   0.000  1.900
õ(2   shel                  Three-body k4    0.0000000    eV*rad^-4 0.000  3.500
                            Three-body k3    0.0000000    eV*rad^-3 
--------------------------------------------------------------------------------
Si    core    Harmonic      Three-body cnst  1.2614000    eV*rad^-2 0.000  1.900
O2    shel                  Three-body angl  109.47000    degrees   0.000  1.900
õ(1   shel                  Three-body k4    0.0000000    eV*rad^-4 0.000  3.500
                            Three-body k3    0.0000000    eV*rad^-3 
--------------------------------------------------------------------------------
Si    core    Harmonic      Three-body cnst  1.2614000    eV*rad^-2 0.000  1.900
õ(1   shel                  Three-body angl  109.47000    degrees   0.000  1.900
õ(2   shel                  Three-body k4    0.0000000    eV*rad^-4 0.000  3.500
                            Three-body k3    0.0000000    eV*rad^-3 
--------------------------------------------------------------------------------
Si    core    Harmonic      Three-body cnst  1.2614000    eV*rad^-2 0.000  1.900
O2    shel                  Three-body angl  109.47000    degrees   0.000  1.900
O2    shel                  Three-body k4    0.0000000    eV*rad^-4 0.000  3.500
                            Three-body k3    0.0000000    eV*rad^-3 
--------------------------------------------------------------------------------
Si    core    Harmonic      Three-body cnst  1.2614000    eV*rad^-2 0.000  1.900
O2    shel                  Three-body angl  109.47000    degrees   0.000  1.900
õ(2   shel                  Three-body k4    0.0000000    eV*rad^-4 0.000  3.500
                            Three-body k3    0.0000000    eV*rad^-3 
--------------------------------------------------------------------------------
Si    core    Harmonic      Three-body cnst  1.2614000    eV*rad^-2 0.000  1.900
õ(2   shel                  Three-body angl  109.47000    degrees   0.000  1.900
õ(2   shel                  Three-body k4    0.0000000    eV*rad^-4 0.000  3.500
                            Three-body k3    0.0000000    eV*rad^-3 
--------------------------------------------------------------------------------

********************************************************************************
*  Output for configuration   1 : c00003.vasp                                  *
********************************************************************************


  Components of energy : 

--------------------------------------------------------------------------------
  Interatomic potentials     =         752.30516599 eV    
  Three-body potentials      =           0.01506108 eV    
  Monopole - monopole (real) =       -2676.00317479 eV    
  Monopole - monopole (recip)=       -1115.35404472 eV    
  Monopole - monopole (total)=       -3791.35721950 eV    
--------------------------------------------------------------------------------
  Total lattice energy       =       -3039.03699243 eV    
--------------------------------------------------------------------------------
  Total lattice energy       =         -293220.6138 kJ/(mole unit cells)
--------------------------------------------------------------------------------


  Number of variables =      363

  Maximum number of calculations  =          1000
  Maximum Hessian update interval =            10
  Maximum step size               =   0.100000000
  Maximum parameter tolerance     =   0.000010000
  Maximum function  tolerance     =   0.000010000
  Maximum gradient  tolerance     =   0.001000000
  Maximum gradient  component     =   0.010000000

  Symmetry not applied to optimisation

  Cell parameters to be optimised using strains

  Newton-Raphson optimiser to be used

  BFGS hessian update to be used

  Lower half triangular hessian to be used

  Minimiser to switch to RFO
  When gradient norm is less than     0.050000

  Dumpfile to be written after every cycle

  Start of bulk optimisation :

  Cycle:      0 Energy:     -3039.036992  Gnorm:      4.213334  CPU:    0.108
  ** Hessian calculated **
  Cycle:      1 Energy:     -3069.573461  Gnorm:      0.928567  CPU:    0.233
  ** Hessian calculated **
  Cycle:      2 Energy:     -3073.845383  Gnorm:      0.369088  CPU:    0.463
  ** Hessian calculated **
  Cycle:      3 Energy:     -3074.615413  Gnorm:      0.221100  CPU:    0.658
  Cycle:      4 Energy:     -3074.918089  Gnorm:      0.104340  CPU:    0.777
  Cycle:      5 Energy:     -3075.014883  Gnorm:      0.050364  CPU:    0.896
  Cycle:      6 Energy:     -3075.057830  Gnorm:      0.024158  CPU:    1.016
  ** Hessian has wrong structure
  ** Imaginary eigenvectors =   5
  Cycle:      7 Energy:     -3075.058947  Gnorm:      0.029819  CPU:    1.227
  ** Hessian has wrong structure
  ** Imaginary eigenvectors =   3
  ** Hessian has wrong structure
  ** Imaginary eigenvectors =   3
  Cycle:      8 Energy:     -3075.071313  Gnorm:      0.037803  CPU:    1.729
  ** Hessian has wrong structure
  ** Imaginary eigenvectors =   2
  ** Hessian has wrong structure
  ** Imaginary eigenvectors =   1
  Cycle:      9 Energy:     -3075.086870  Gnorm:      0.044577  CPU:    2.080
  ** Hessian has required structure
  Cycle:     10 Energy:     -3075.140810  Gnorm:      0.039811  CPU:    2.237
  ** Hessian has required structure
  Cycle:     11 Energy:     -3075.163855  Gnorm:      0.017782  CPU:    2.363
  ** Hessian has required structure
  Cycle:     12 Energy:     -3075.187866  Gnorm:      0.018702  CPU:    2.520
  ** Hessian has required structure
  Cycle:     13 Energy:     -3075.197656  Gnorm:      0.026201  CPU:    2.646
  ** Hessian has required structure
  Cycle:     14 Energy:     -3075.204513  Gnorm:      0.019976  CPU:    2.789
  ** Hessian has required structure
  Cycle:     15 Energy:     -3075.208498  Gnorm:      0.009699  CPU:    2.931
  ** Hessian has required structure
  Cycle:     16 Energy:     -3075.210801  Gnorm:      0.011088  CPU:    3.090
  ** Hessian has required structure
  Cycle:     17 Energy:     -3075.213058  Gnorm:      0.008241  CPU:    3.250
  ** Hessian has required structure
  Cycle:     18 Energy:     -3075.214802  Gnorm:      0.006529  CPU:    3.410
  ** Hessian has required structure
  Cycle:     19 Energy:     -3075.217551  Gnorm:      0.003757  CPU:    3.645
  ** Hessian has required structure
  Cycle:     20 Energy:     -3075.218286  Gnorm:      0.002504  CPU:    3.804
  ** Hessian has required structure
  Cycle:     21 Energy:     -3075.218552  Gnorm:      0.001403  CPU:    3.962
  ** Hessian has required structure
  Cycle:     22 Energy:     -3075.218654  Gnorm:      0.001047  CPU:    4.129
  ** Hessian has required structure
  Cycle:     23 Energy:     -3075.218700  Gnorm:      0.000404  CPU:    4.301
  ** Hessian has required structure
  Cycle:     24 Energy:     -3075.218716  Gnorm:      0.000387  CPU:    4.454
  ** Hessian has required structure
  Cycle:     25 Energy:     -3075.218717  Gnorm:      0.000327  CPU:    4.591
  ** Hessian has required structure
  Cycle:     26 Energy:     -3075.218718  Gnorm:      0.000326  CPU:    4.762
  ** Hessian has required structure
  Cycle:     27 Energy:     -3075.218718  Gnorm:      0.000326  CPU:    4.899
  ** Hessian has required structure
  Cycle:     28 Energy:     -3075.218718  Gnorm:      0.000325  CPU:    5.036
  ** Hessian has required structure
  Cycle:     29 Energy:     -3075.218718  Gnorm:      0.000325  CPU:    5.305
  ** Hessian has required structure
  Cycle:     30 Energy:     -3075.218718  Gnorm:      0.000325  CPU:    5.442
  ** Hessian has required structure
  Cycle:     31 Energy:     -3075.218718  Gnorm:      0.000325  CPU:    5.576
  ** Hessian has required structure
  Cycle:     32 Energy:     -3075.218718  Gnorm:      0.000325  CPU:    5.709
  ** Hessian has required structure
  Cycle:     33 Energy:     -3075.218718  Gnorm:      0.000325  CPU:    5.844
  ** Hessian has required structure
  Cycle:     34 Energy:     -3075.218718  Gnorm:      0.000325  CPU:    5.973
  ** Hessian has required structure
  Cycle:     35 Energy:     -3075.218718  Gnorm:      0.000325  CPU:    6.101
  ** Hessian has required structure
  Cycle:     36 Energy:     -3075.218717  Gnorm:      0.000325  CPU:    6.331
  ** Hessian has required structure
  Cycle:     37 Energy:     -3075.218719  Gnorm:      0.000229  CPU:    6.531
  ** Hessian has required structure
  Cycle:     38 Energy:     -3075.218720  Gnorm:      0.000162  CPU:    6.654
  ** Hessian has required structure
  Cycle:     39 Energy:     -3075.218721  Gnorm:      0.000114  CPU:    6.778
  ** Hessian has required structure
  Cycle:     40 Energy:     -3075.218721  Gnorm:      0.000091  CPU:    6.917
  ** Hessian has required structure
  Cycle:     41 Energy:     -3075.218721  Gnorm:      0.000093  CPU:    7.135
  ** Hessian has required structure
  Cycle:     42 Energy:     -3075.218721  Gnorm:      0.000085  CPU:    7.259
  ** Hessian has required structure
  Cycle:     43 Energy:     -3075.218721  Gnorm:      0.000085  CPU:    7.398
  ** Hessian has required structure
  Cycle:     44 Energy:     -3075.218721  Gnorm:      0.000084  CPU:    7.540
  ** Hessian has required structure
  Cycle:     45 Energy:     -3075.218721  Gnorm:      0.000084  CPU:    7.666
  ** Hessian has required structure
  Cycle:     46 Energy:     -3075.218721  Gnorm:      0.000083  CPU:    7.807
  ** Hessian has required structure
  Cycle:     47 Energy:     -3075.218721  Gnorm:      0.000083  CPU:    8.124
  ** Hessian calculated **


  **** Optimisation achieved ****


  Final energy =   -3075.21872150 eV      
  Final Gnorm  =       0.00005076

  Components of energy : 

--------------------------------------------------------------------------------
  Interatomic potentials     =         817.60562097 eV    
  Three-body potentials      =           0.22363762 eV    
  Monopole - monopole (real) =       -2243.82411347 eV    
  Monopole - monopole (recip)=       -1649.22386662 eV    
  Monopole - monopole (total)=       -3893.04798009 eV    
--------------------------------------------------------------------------------
  Total lattice energy       =       -3075.21872150 eV    
--------------------------------------------------------------------------------
  Total lattice energy       =         -296711.5976 kJ/(mole unit cells)
--------------------------------------------------------------------------------

  Final fractional coordinates of atoms :

--------------------------------------------------------------------------------
   No.  Atomic        x           y          z          Radius
        Label       (Frac)      (Frac)     (Frac)       (Angs) 
--------------------------------------------------------------------------------
     1  Ge    c     0.052090    0.000000    0.372270    0.000000
     2  Ge    c     0.552090    0.999957    0.649118    0.000000
     3  Si    c     0.450288    0.999945    0.387698    0.000000
     4  Si    c     0.950288    0.000014    0.633689    0.000000
     5  Si    c     0.555071    0.999949    0.143528    0.000000
     6  Si    c     0.942470    0.999980    0.115291    0.000000
     7  Si    c     0.442470    0.999980    0.906097    0.000000
     8  Si    c     0.055071    0.000007    0.877860    0.000000
     9  Si    c     0.164981    0.297127    0.296728    0.000000
    10  Si    c     0.342524    0.700214    0.287463    0.000000
    11  Si    c     0.842525    0.299745    0.733925    0.000000
    12  Si    c     0.664981    0.702829    0.724660    0.000000
    13  Si    c     0.842477    0.700328    0.733930    0.000000
    14  Si    c     0.665027    0.297006    0.724659    0.000000
    15  Si    c     0.165026    0.702950    0.296730    0.000000
    16  Si    c     0.342477    0.299632    0.287458    0.000000
    17  Si    c     0.658632    0.298146    0.032512    0.000000
    18  Si    c     0.836555    0.698211    0.044806    0.000000
    19  Si    c     0.336555    0.301749    0.976582    0.000000
    20  Si    c     0.158631    0.701810    0.988876    0.000000
    21  Si    c     0.336609    0.698122    0.976591    0.000000
    22  Si    c     0.158581    0.298280    0.988871    0.000000
    23  Si    c     0.658581    0.701677    0.032517    0.000000
    24  Si    c     0.836610    0.301838    0.044797    0.000000
    25  O3    c     0.110809    0.181788    0.387733    0.000000
    26  O2    c     0.399525    0.826438    0.366006    0.000000
    27  O2    c     0.899526    0.173522    0.655382    0.000000
    28  O3    c     0.610808    0.818167    0.633655    0.000000
    29  O2    c     0.899452    0.826625    0.655406    0.000000
    30  O3    c     0.610891    0.181609    0.633635    0.000000
    31  O3    c     0.110890    0.818346    0.387753    0.000000
    32  O2    c     0.399453    0.173335    0.365982    0.000000
    33  O3    c     0.978549    0.999951    0.484424    0.000000
    34  O3    c     0.478549    0.000008    0.536964    0.000000
    35  O3    c     0.009642    0.999884    0.219018    0.000000
    36  O2    c     0.526374    0.999990    0.295047    0.000000
    37  O2    c     0.026374    0.999966    0.726341    0.000000
    38  O3    c     0.509641    0.000074    0.802370    0.000000
    39  O2    c     0.605311    0.174397    0.121063    0.000000
    40  O2    c     0.888426    0.828537    0.131391    0.000000
    41  O2    c     0.388427    0.171424    0.889997    0.000000
    42  O2    c     0.105310    0.825558    0.900325    0.000000
    43  O2    c     0.388518    0.828383    0.890010    0.000000
    44  O2    c     0.105211    0.174605    0.900346    0.000000
    45  O2    c     0.605210    0.825351    0.121042    0.000000
    46  O2    c     0.888519    0.171578    0.131378    0.000000
    47  O2    c     0.479920    0.000068    0.051964    0.000000
    48  O2    c     0.979920    0.999891    0.969424    0.000000
    49  O2    c     0.146215    0.500047    0.321031    0.000000
    50  O2    c     0.363695    0.499910    0.322817    0.000000
    51  O2    c     0.863695    0.500049    0.698571    0.000000
    52  O2    c     0.646215    0.499909    0.700357    0.000000
    53  O2    c     0.254600    0.259339    0.329779    0.000000
    54  O2    c     0.254655    0.740615    0.329767    0.000000
    55  O2    c     0.754656    0.259342    0.691621    0.000000
    56  O2    c     0.754600    0.740618    0.691609    0.000000
    57  O2    c     0.148624    0.247521    0.142904    0.000000
    58  O2    c     0.351780    0.732681    0.131277    0.000000
    59  O2    c     0.851780    0.267279    0.890111    0.000000
    60  O2    c     0.648624    0.752435    0.878483    0.000000
    61  O2    c     0.851707    0.732790    0.890119    0.000000
    62  O2    c     0.648676    0.247380    0.878481    0.000000
    63  O2    c     0.148675    0.752576    0.142907    0.000000
    64  O2    c     0.351708    0.267170    0.131269    0.000000
    65  O2    c     0.634220    0.499896    0.055586    0.000000
    66  O2    c     0.859784    0.500037    0.082622    0.000000
    67  O2    c     0.359784    0.499923    0.938766    0.000000
    68  O2    c     0.134220    0.500060    0.965802    0.000000
    69  O2    c     0.746878    0.269604    0.077223    0.000000
    70  O2    c     0.746816    0.730329    0.077250    0.000000
    71  O2    c     0.246817    0.269629    0.944138    0.000000
    72  O2    c     0.246877    0.730354    0.944165    0.000000
    73  O3    s     0.111761    0.179287    0.376955    0.000000
    74  O2    s     0.398538    0.830977    0.359319    0.000000
    75  O2    s     0.898539    0.168983    0.662069    0.000000
    76  O3    s     0.611761    0.820668    0.644433    0.000000
    77  O2    s     0.898476    0.831143    0.662089    0.000000
    78  O3    s     0.611833    0.179127    0.644417    0.000000
    79  O3    s     0.111832    0.820829    0.376971    0.000000
    80  O2    s     0.398477    0.168817    0.359299    0.000000
    81  O3    s     0.982023    0.999962    0.490453    0.000000
    82  O3    s     0.482023    0.999996    0.530935    0.000000
    83  O3    s     0.005711    0.999905    0.220582    0.000000
    84  O2    s     0.521511    0.999981    0.288456    0.000000
    85  O2    s     0.021511    0.999976    0.732932    0.000000
    86  O3    s     0.505711    0.000053    0.800805    0.000000
    87  O2    s     0.605892    0.169414    0.113429    0.000000
    88  O2    s     0.888345    0.832009    0.120159    0.000000
    89  O2    s     0.388346    0.167952    0.901229    0.000000
    90  O2    s     0.105891    0.830541    0.907959    0.000000
    91  O2    s     0.388423    0.831879    0.901239    0.000000
    92  O2    s     0.105809    0.169598    0.907974    0.000000
    93  O2    s     0.605808    0.830357    0.113414    0.000000
    94  O2    s     0.888424    0.168082    0.120150    0.000000
    95  O2    s     0.484265    0.000045    0.046549    0.000000
    96  O2    s     0.984265    0.999913    0.974839    0.000000
    97  O2    s     0.150359    0.500043    0.315684    0.000000
    98  O2    s     0.359178    0.499914    0.315306    0.000000
    99  O2    s     0.859178    0.500046    0.706082    0.000000
   100  O2    s     0.650359    0.499913    0.705704    0.000000
   101  O2    s     0.254509    0.267657    0.321747    0.000000
   102  O2    s     0.254562    0.732298    0.321738    0.000000
   103  O2    s     0.754563    0.267660    0.699650    0.000000
   104  O2    s     0.754509    0.732300    0.699640    0.000000
   105  O2    s     0.151339    0.257863    0.142305    0.000000
   106  O2    s     0.349086    0.725363    0.131505    0.000000
   107  O2    s     0.849087    0.274597    0.889883    0.000000
   108  O2    s     0.651338    0.742093    0.879083    0.000000
   109  O2    s     0.849018    0.725470    0.889890    0.000000
   110  O2    s     0.651389    0.257725    0.879080    0.000000
   111  O2    s     0.151388    0.742231    0.142308    0.000000
   112  O2    s     0.349019    0.274490    0.131497    0.000000
   113  O2    s     0.639378    0.499900    0.050683    0.000000
   114  O2    s     0.854836    0.500033    0.074576    0.000000
   115  O2    s     0.354836    0.499927    0.946812    0.000000
   116  O2    s     0.139378    0.500056    0.970705    0.000000
   117  O2    s     0.747084    0.276253    0.068846    0.000000
   118  O2    s     0.747025    0.723681    0.068869    0.000000
   119  O2    s     0.247025    0.276277    0.952519    0.000000
   120  O2    s     0.247083    0.723705    0.952542    0.000000
--------------------------------------------------------------------------------

  Final Cartesian lattice vectors (Angstroms) :

       17.327374   -0.000008   -0.000121
       -0.000002    7.643832   -0.000093
        0.000070    0.000160   10.092995


  Final cell parameters and derivatives :

--------------------------------------------------------------------------------
       a           17.327374 Angstrom     dE/de1(xx)     0.006449 eV/strain
       b            7.643832 Angstrom     dE/de2(yy)     0.007340 eV/strain
       c           10.092995 Angstrom     dE/de3(zz)     0.006804 eV/strain
       alpha       89.999791 Degrees      dE/de4(yz)    -0.000155 eV/strain
       beta        90.000000 Degrees      dE/de5(xz)     0.000052 eV/strain
       gamma       90.000038 Degrees      dE/de6(xy)     0.000072 eV/strain
--------------------------------------------------------------------------------

  Primitive cell volume =          1336.792340 Angs**3

  Density of cell =      1.902059 g/cm**3

  Non-primitive cell volume =          1336.792340 Angs**3


  Final internal derivatives :

--------------------------------------------------------------------------------
   No.  Atomic          a             b             c           Radius
        Label          (eV)          (eV)          (eV)        (eV/Angs)
--------------------------------------------------------------------------------
      1 Ge    c       0.000000      0.000000      0.000000      0.000000
      2 Ge    c      -0.000649      0.000031     -0.001292      0.000000
      3 Si    c       0.001045      0.000029     -0.000964      0.000000
      4 Si    c       0.001313      0.000000      0.000668      0.000000
      5 Si    c      -0.000484      0.000008      0.000604      0.000000
      6 Si    c      -0.000141      0.000023     -0.000444      0.000000
      7 Si    c      -0.000208      0.000041      0.000394      0.000000
      8 Si    c      -0.000637     -0.000036     -0.000658      0.000000
      9 Si    c       0.000425      0.000341     -0.000110      0.000000
     10 Si    c      -0.000622     -0.000137      0.000373      0.000000
     11 Si    c      -0.000595      0.000103     -0.000367      0.000000
     12 Si    c       0.000296     -0.000249      0.000161      0.000000
     13 Si    c      -0.000305     -0.000042     -0.000382      0.000000
     14 Si    c       0.000002      0.000010      0.000176      0.000000
     15 Si    c       0.000056     -0.000085     -0.000120      0.000000
     16 Si    c      -0.000276      0.000061      0.000384      0.000000
     17 Si    c       0.000912      0.000136     -0.000343      0.000000
     18 Si    c      -0.000379      0.000147      0.000081      0.000000
     19 Si    c      -0.000301     -0.000149     -0.000134      0.000000
     20 Si    c       0.000901     -0.000130      0.000255      0.000000
     21 Si    c      -0.000721     -0.000129     -0.000018      0.000000
     22 Si    c       0.001091      0.000229      0.000099      0.000000
     23 Si    c       0.001056     -0.000195     -0.000177      0.000000
     24 Si    c      -0.000756      0.000097     -0.000042      0.000000
     25 O3    c       0.001322      0.001182      0.000431      0.000000
     26 O2    c      -0.000796     -0.001052      0.000119      0.000000
     27 O2    c      -0.000790      0.001065     -0.000122      0.000000
     28 O3    c       0.001383     -0.001156     -0.000251      0.000000
     29 O2    c      -0.001124     -0.000890     -0.000147      0.000000
     30 O3    c       0.002026      0.000979     -0.000326      0.000000
     31 O3    c       0.001900     -0.000963      0.000516      0.000000
     32 O2    c      -0.001135      0.000880      0.000141      0.000000
     33 O3    c       0.001109     -0.000053     -0.001601      0.000000
     34 O3    c       0.000184      0.000026      0.001394      0.000000
     35 O3    c       0.000440     -0.000295     -0.001778      0.000000
     36 O2    c      -0.000222      0.000009      0.000716      0.000000
     37 O2    c      -0.000344     -0.000022     -0.000700      0.000000
     38 O3    c       0.000966      0.000232      0.001594      0.000000
     39 O2    c       0.002180      0.001707      0.000141      0.000000
     40 O2    c      -0.002455     -0.001538      0.000691      0.000000
     41 O2    c      -0.002350      0.001509     -0.000651      0.000000
     42 O2    c       0.002053     -0.001624     -0.000146      0.000000
     43 O2    c      -0.001626     -0.001777     -0.000606      0.000000
     44 O2    c       0.001199      0.001993     -0.000022      0.000000
     45 O2    c       0.001229     -0.002047      0.000010      0.000000
     46 O2    c      -0.001643      0.001801      0.000641      0.000000
     47 O2    c      -0.002461      0.000177      0.000381      0.000000
     48 O2    c      -0.002275     -0.000198     -0.000400      0.000000
     49 O2    c       0.000058     -0.000417     -0.000128      0.000000
     50 O2    c      -0.000098      0.000308     -0.000177      0.000000
     51 O2    c      -0.000081     -0.000318      0.000164      0.000000
     52 O2    c       0.000052      0.000420      0.000137      0.000000
     53 O2    c      -0.000835      0.000006      0.000007      0.000000
     54 O2    c       0.001273     -0.000045     -0.000112      0.000000
     55 O2    c       0.001241      0.000041      0.000121      0.000000
     56 O2    c      -0.000874      0.000000     -0.000010      0.000000
     57 O2    c      -0.000235     -0.000055      0.000157      0.000000
     58 O2    c       0.000170     -0.000010     -0.000130      0.000000
     59 O2    c       0.000154      0.000018      0.000124      0.000000
     60 O2    c      -0.000237      0.000062     -0.000163      0.000000
     61 O2    c       0.000413      0.000053      0.000034      0.000000
     62 O2    c      -0.000315     -0.000096      0.000067      0.000000
     63 O2    c      -0.000294      0.000075     -0.000088      0.000000
     64 O2    c       0.000411     -0.000047     -0.000031      0.000000
     65 O2    c      -0.000045      0.000266     -0.000057      0.000000
     66 O2    c       0.000186     -0.000557     -0.000061      0.000000
     67 O2    c       0.000165      0.000553      0.000074      0.000000
     68 O2    c      -0.000029     -0.000260      0.000056      0.000000
     69 O2    c       0.001011      0.000065     -0.000058      0.000000
     70 O2    c      -0.000972     -0.000052     -0.000011      0.000000
     71 O2    c      -0.000937      0.000056      0.000014      0.000000
     72 O2    c       0.000990     -0.000069      0.000069      0.000000
     73 O3    s       0.000445      0.000737      0.001039      0.000000
     74 O2    s      -0.000550     -0.000848     -0.000185      0.000000
     75 O2    s      -0.000523      0.000882      0.000205      0.000000
     76 O3    s       0.000430     -0.000809     -0.001340      0.000000
     77 O2    s      -0.000339     -0.000694      0.000235      0.000000
     78 O3    s       0.000383      0.000613     -0.001318      0.000000
     79 O3    s       0.000434     -0.000546      0.000989      0.000000
     80 O2    s      -0.000338      0.000675     -0.000227      0.000000
     81 O3    s      -0.000127     -0.000025      0.000178      0.000000
     82 O3    s       0.000100      0.000037     -0.000186      0.000000
     83 O3    s       0.001337     -0.000127      0.000193      0.000000
     84 O2    s       0.000029      0.000060      0.000789      0.000000
     85 O2    s       0.000109     -0.000075     -0.000664      0.000000
     86 O3    s       0.000720      0.000156     -0.000233      0.000000
     87 O2    s       0.001800      0.001289      0.000689      0.000000
     88 O2    s      -0.001639     -0.001071      0.000411      0.000000
     89 O2    s      -0.001751      0.001068     -0.000386      0.000000
     90 O2    s       0.001691     -0.001251     -0.000618      0.000000
     91 O2    s      -0.001645     -0.001321     -0.000413      0.000000
     92 O2    s       0.001468      0.001499     -0.000630      0.000000
     93 O2    s       0.001520     -0.001545      0.000711      0.000000
     94 O2    s      -0.001418      0.001348      0.000454      0.000000
     95 O2    s      -0.001933      0.000227      0.000522      0.000000
     96 O2    s      -0.001606     -0.000233     -0.000417      0.000000
     97 O2    s       0.000053     -0.000213      0.000236      0.000000
     98 O2    s       0.000217      0.000169      0.000661      0.000000
     99 O2    s       0.000245     -0.000172     -0.000660      0.000000
    100 O2    s       0.000034      0.000205     -0.000271      0.000000
    101 O2    s      -0.000300     -0.000013      0.000406      0.000000
    102 O2    s       0.000498      0.000048      0.000334      0.000000
    103 O2    s       0.000508     -0.000043     -0.000342      0.000000
    104 O2    s      -0.000276      0.000010     -0.000424      0.000000
    105 O2    s       0.000061      0.000262      0.000032      0.000000
    106 O2    s      -0.000051      0.000116     -0.000002      0.000000
    107 O2    s      -0.000035     -0.000112      0.000030      0.000000
    108 O2    s       0.000088     -0.000288      0.000018      0.000000
    109 O2    s       0.000632      0.000373     -0.000036      0.000000
    110 O2    s      -0.000345      0.000055      0.000093      0.000000
    111 O2    s      -0.000384     -0.000035     -0.000051      0.000000
    112 O2    s       0.000614     -0.000372      0.000068      0.000000
    113 O2    s      -0.000244      0.000130      0.000217      0.000000
    114 O2    s       0.000245     -0.000227      0.000637      0.000000
    115 O2    s       0.000193      0.000225     -0.000618      0.000000
    116 O2    s      -0.000218     -0.000131     -0.000191      0.000000
    117 O2    s       0.000533     -0.000093      0.000285      0.000000
    118 O2    s      -0.000271      0.000176      0.000451      0.000000
    119 O2    s      -0.000286     -0.000171     -0.000430      0.000000
    120 O2    s       0.000513      0.000089     -0.000258      0.000000
--------------------------------------------------------------------------------
  Maximum abs         0.002461      0.002047      0.001778      0.000000
--------------------------------------------------------------------------------


  Born effective charge tensors : 

-------------------------------------------------------------------------------
  Atom             x           y             z
-------------------------------------------------------------------------------
    1 Ge    x       4.2812      0.0006      0.0479
            y      -0.0004      3.9043     -0.0000
            z      -0.8967      0.0000      4.4569
-------------------------------------------------------------------------------
    2 Ge    x       4.2812     -0.0006     -0.0479
            y       0.0004      3.9043     -0.0000
            z       0.8967      0.0000      4.4569
-------------------------------------------------------------------------------
    3 Si    x       3.5175      0.0004      0.5153
            y      -0.0004      3.3232      0.0001
            z       0.3591      0.0004      4.2818
-------------------------------------------------------------------------------
    4 Si    x       3.5175     -0.0004     -0.5153
            y       0.0004      3.3232      0.0001
            z      -0.3591      0.0004      4.2818
-------------------------------------------------------------------------------
    5 Si    x       3.5592     -0.0005     -0.3901
            y       0.0005      3.3036      0.0001
            z      -0.3610      0.0001      3.1011
-------------------------------------------------------------------------------
    6 Si    x       3.8620     -0.0007      0.1720
            y       0.0004      3.3022     -0.0002
            z       0.8481     -0.0004      3.1818
-------------------------------------------------------------------------------
    7 Si    x       3.8620      0.0007     -0.1720
            y      -0.0004      3.3022     -0.0002
            z      -0.8481     -0.0004      3.1818
-------------------------------------------------------------------------------
    8 Si    x       3.5592      0.0005      0.3901
            y      -0.0005      3.3036      0.0001
            z       0.3610      0.0001      3.1011
-------------------------------------------------------------------------------
    9 Si    x       3.4057      0.3905     -0.2597
            y       0.3922      3.5531     -0.3346
            z      -0.2521     -0.1743      3.0032
-------------------------------------------------------------------------------
   10 Si    x       3.1820      0.2404      0.0818
            y       0.2659      3.4338      0.1234
            z       0.1114      0.0911      2.8021
-------------------------------------------------------------------------------
   11 Si    x       3.1820     -0.2404     -0.0818
            y      -0.2659      3.4338      0.1234
            z      -0.1114      0.0911      2.8021
-------------------------------------------------------------------------------
   12 Si    x       3.4057     -0.3905      0.2597
            y      -0.3922      3.5530     -0.3346
            z       0.2521     -0.1743      3.0032
-------------------------------------------------------------------------------
   13 Si    x       3.1821      0.2407     -0.0818
            y       0.2656      3.4340     -0.1233
            z      -0.1115     -0.0912      2.8021
-------------------------------------------------------------------------------
   14 Si    x       3.4055      0.3908      0.2598
            y       0.3918      3.5534      0.3347
            z       0.2519      0.1744      3.0031
-------------------------------------------------------------------------------
   15 Si    x       3.4055     -0.3908     -0.2598
            y      -0.3918      3.5534      0.3347
            z      -0.2519      0.1744      3.0031
-------------------------------------------------------------------------------
   16 Si    x       3.1821     -0.2407      0.0818
            y      -0.2656      3.4340     -0.1233
            z       0.1115     -0.0912      2.8021
-------------------------------------------------------------------------------
   17 Si    x       3.2709      0.2697     -0.1635
            y       0.2156      3.4499     -0.2070
            z      -0.1622     -0.0632      2.7263
-------------------------------------------------------------------------------
   18 Si    x       3.2537      0.2826      0.1243
            y       0.2159      3.4037      0.1314
            z       0.0956      0.0681      2.6939
-------------------------------------------------------------------------------
   19 Si    x       3.2537     -0.2826     -0.1243
            y      -0.2159      3.4037      0.1314
            z      -0.0957      0.0681      2.6939
-------------------------------------------------------------------------------
   20 Si    x       3.2709     -0.2697      0.1635
            y      -0.2156      3.4499     -0.2070
            z       0.1622     -0.0632      2.7263
-------------------------------------------------------------------------------
   21 Si    x       3.2538      0.2823     -0.1242
            y       0.2163      3.4036     -0.1315
            z      -0.0957     -0.0682      2.6939
-------------------------------------------------------------------------------
   22 Si    x       3.2711      0.2695      0.1633
            y       0.2161      3.4497      0.2070
            z       0.1623      0.0631      2.7263
-------------------------------------------------------------------------------
   23 Si    x       3.2711     -0.2695     -0.1633
            y      -0.2161      3.4497      0.2070
            z      -0.1623      0.0631      2.7263
-------------------------------------------------------------------------------
   24 Si    x       3.2538     -0.2823      0.1242
            y      -0.2164      3.4036     -0.1315
            z       0.0957     -0.0681      2.6939
-------------------------------------------------------------------------------
   25 O3    x      -2.0756     -0.9606      0.4278
            y      -0.9786     -2.3157      0.4531
            z       0.5568      0.4537     -1.6204
-------------------------------------------------------------------------------
   26 O2    x      -1.6970     -0.7238     -0.3454
            y      -0.7240     -2.0073     -0.3482
            z      -0.3440     -0.3491     -1.3427
-------------------------------------------------------------------------------
   27 O2    x      -1.6970      0.7238      0.3454
            y       0.7239     -2.0073     -0.3482
            z       0.3440     -0.3491     -1.3427
-------------------------------------------------------------------------------
   28 O3    x      -2.0756      0.9606     -0.4278
            y       0.9786     -2.3157      0.4530
            z      -0.5568      0.4536     -1.6203
-------------------------------------------------------------------------------
   29 O2    x      -1.6973     -0.7239      0.3455
            y      -0.7243     -2.0073      0.3483
            z       0.3442      0.3492     -1.3427
-------------------------------------------------------------------------------
   30 O3    x      -2.0759     -0.9606     -0.4276
            y      -0.9789     -2.3156     -0.4531
            z      -0.5565     -0.4536     -1.6204
-------------------------------------------------------------------------------
   31 O3    x      -2.0758      0.9606      0.4276
            y       0.9789     -2.3156     -0.4531
            z       0.5566     -0.4536     -1.6204
-------------------------------------------------------------------------------
   32 O2    x      -1.6973      0.7239     -0.3455
            y       0.7243     -2.0073      0.3483
            z      -0.3442      0.3492     -1.3427
-------------------------------------------------------------------------------
   33 O3    x      -1.9599      0.0001      1.0375
            y      -0.0000     -1.2074     -0.0001
            z       1.3030     -0.0002     -3.4329
-------------------------------------------------------------------------------
   34 O3    x      -1.9600     -0.0000     -1.0376
            y       0.0000     -1.2074     -0.0001
            z      -1.3031     -0.0002     -3.4329
-------------------------------------------------------------------------------
   35 O3    x      -2.2481      0.0002     -1.0402
            y       0.0001     -1.2447      0.0001
            z      -1.0509      0.0001     -2.6341
-------------------------------------------------------------------------------
   36 O2    x      -1.7904      0.0000      0.6477
            y      -0.0001     -1.1155     -0.0000
            z       0.6104     -0.0001     -2.1676
-------------------------------------------------------------------------------
   37 O2    x      -1.7904     -0.0000     -0.6477
            y       0.0001     -1.1155     -0.0000
            z      -0.6104     -0.0001     -2.1676
-------------------------------------------------------------------------------
   38 O3    x      -2.2480     -0.0002      1.0402
            y      -0.0001     -1.2447      0.0001
            z       1.0509      0.0000     -2.6342
-------------------------------------------------------------------------------
   39 O2    x      -1.7389     -0.7419      0.4267
            y      -0.6887     -1.9996      0.4226
            z       0.3774      0.3708     -1.2667
-------------------------------------------------------------------------------
   40 O2    x      -1.7091     -0.7161     -0.2182
            y      -0.6792     -1.9836     -0.2465
            z      -0.3089     -0.2552     -1.2155
-------------------------------------------------------------------------------
   41 O2    x      -1.7091      0.7161      0.2182
            y       0.6792     -1.9836     -0.2465
            z       0.3089     -0.2552     -1.2155
-------------------------------------------------------------------------------
   42 O2    x      -1.7389      0.7419     -0.4267
            y       0.6887     -1.9996      0.4226
            z      -0.3774      0.3708     -1.2667
-------------------------------------------------------------------------------
   43 O2    x      -1.7087     -0.7161      0.2184
            y      -0.6788     -1.9839      0.2466
            z       0.3090      0.2553     -1.2155
-------------------------------------------------------------------------------
   44 O2    x      -1.7387     -0.7418     -0.4266
            y      -0.6884     -1.9999     -0.4226
            z      -0.3774     -0.3708     -1.2666
-------------------------------------------------------------------------------
   45 O2    x      -1.7386      0.7418      0.4266
            y       0.6883     -1.9999     -0.4226
            z       0.3774     -0.3708     -1.2666
-------------------------------------------------------------------------------
   46 O2    x      -1.7087      0.7161     -0.2184
            y       0.6788     -1.9839      0.2466
            z      -0.3090      0.2553     -1.2155
-------------------------------------------------------------------------------
   47 O2    x      -1.8928      0.0001     -0.5671
            y       0.0001     -1.1591      0.0000
            z      -0.3159      0.0000     -1.6780
-------------------------------------------------------------------------------
   48 O2    x      -1.8928     -0.0001      0.5671
            y      -0.0001     -1.1591      0.0000
            z       0.3159      0.0000     -1.6780
-------------------------------------------------------------------------------
   49 O2    x      -1.1750     -0.0002      0.0667
            y      -0.0003     -2.4754      0.0000
            z       0.0840      0.0000     -1.0885
-------------------------------------------------------------------------------
   50 O2    x      -1.1532     -0.0002     -0.0607
            y      -0.0004     -2.5447     -0.0000
            z      -0.0764      0.0000     -1.0786
-------------------------------------------------------------------------------
   51 O2    x      -1.1532      0.0002      0.0607
            y       0.0004     -2.5447     -0.0000
            z       0.0764      0.0000     -1.0786
-------------------------------------------------------------------------------
   52 O2    x      -1.1750      0.0002     -0.0667
            y       0.0004     -2.4754      0.0000
            z      -0.0840      0.0000     -1.0885
-------------------------------------------------------------------------------
   53 O2    x      -2.3537      0.0082      0.0233
            y       0.0140     -1.2508      0.0709
            z       0.0333      0.0543     -1.0849
-------------------------------------------------------------------------------
   54 O2    x      -2.3537     -0.0075      0.0233
            y      -0.0137     -1.2508     -0.0709
            z       0.0332     -0.0543     -1.0849
-------------------------------------------------------------------------------
   55 O2    x      -2.3537      0.0075     -0.0232
            y       0.0137     -1.2508     -0.0709
            z      -0.0332     -0.0543     -1.0849
-------------------------------------------------------------------------------
   56 O2    x      -2.3537     -0.0082     -0.0233
            y      -0.0140     -1.2508      0.0709
            z      -0.0332      0.0543     -1.0849
-------------------------------------------------------------------------------
   57 O2    x      -1.2108     -0.1382     -0.0685
            y      -0.1199     -1.3007     -0.0017
            z      -0.0704     -0.0071     -2.0395
-------------------------------------------------------------------------------
   58 O2    x      -1.1882     -0.1237     -0.0170
            y      -0.1079     -1.2601      0.0047
            z      -0.0122      0.0063     -2.0593
-------------------------------------------------------------------------------
   59 O2    x      -1.1882      0.1237      0.0170
            y       0.1079     -1.2601      0.0047
            z       0.0122      0.0063     -2.0593
-------------------------------------------------------------------------------
   60 O2    x      -1.2107      0.1382      0.0685
            y       0.1199     -1.3007     -0.0017
            z       0.0704     -0.0071     -2.0395
-------------------------------------------------------------------------------
   61 O2    x      -1.1881     -0.1238      0.0170
            y      -0.1078     -1.2602     -0.0046
            z       0.0123     -0.0062     -2.0593
-------------------------------------------------------------------------------
   62 O2    x      -1.2107     -0.1382      0.0685
            y      -0.1198     -1.3008      0.0017
            z       0.0703      0.0071     -2.0395
-------------------------------------------------------------------------------
   63 O2    x      -1.2107      0.1382     -0.0685
            y       0.1198     -1.3008      0.0017
            z      -0.0703      0.0071     -2.0395
-------------------------------------------------------------------------------
   64 O2    x      -1.1881      0.1238     -0.0170
            y       0.1078     -1.2602     -0.0046
            z      -0.0123     -0.0062     -2.0593
-------------------------------------------------------------------------------
   65 O2    x      -1.2210      0.0002      0.0778
            y       0.0004     -2.5770     -0.0000
            z       0.0936      0.0000     -1.0093
-------------------------------------------------------------------------------
   66 O2    x      -1.2021      0.0002     -0.0858
            y       0.0005     -2.4846     -0.0000
            z      -0.0893     -0.0000     -1.0426
-------------------------------------------------------------------------------
   67 O2    x      -1.2021     -0.0002      0.0858
            y      -0.0005     -2.4846     -0.0000
            z       0.0893     -0.0000     -1.0426
-------------------------------------------------------------------------------
   68 O2    x      -1.2210     -0.0002     -0.0778
            y      -0.0004     -2.5770     -0.0000
            z      -0.0936      0.0000     -1.0093
-------------------------------------------------------------------------------
   69 O2    x      -2.4279     -0.0126     -0.0473
            y      -0.0173     -1.2349      0.0652
            z      -0.0089      0.0407     -1.0415
-------------------------------------------------------------------------------
   70 O2    x      -2.4278      0.0119     -0.0473
            y       0.0169     -1.2349     -0.0652
            z      -0.0088     -0.0407     -1.0415
-------------------------------------------------------------------------------
   71 O2    x      -2.4278     -0.0119      0.0473
            y      -0.0169     -1.2349     -0.0652
            z       0.0088     -0.0407     -1.0415
-------------------------------------------------------------------------------
   72 O2    x      -2.4279      0.0126      0.0473
            y       0.0173     -1.2349      0.0652
            z       0.0089      0.0407     -1.0415
-------------------------------------------------------------------------------




  Elastic Constant Matrix: (Units=GPa)

-------------------------------------------------------------------------------
  Indices      1         2         3         4         5         6    
-------------------------------------------------------------------------------
       1     89.2824   70.0899   20.5486    0.0013   -0.0001   -0.0019
       2     70.0899  128.9751   20.8822    0.0020   -0.0003   -0.0023
       3     20.5486   20.8822   20.9535   -0.0024   -0.0004   -0.0004
       4      0.0013    0.0020   -0.0024   10.3988   -0.0001   -0.0000
       5     -0.0001   -0.0003   -0.0004   -0.0001   25.1225    0.0083
       6     -0.0019   -0.0023   -0.0004   -0.0000    0.0083   18.8860
-------------------------------------------------------------------------------


  Elastic Compliance Matrix: (Units=1/GPa)

-------------------------------------------------------------------------------
  Indices      1         2         3         4         5         6    
-------------------------------------------------------------------------------
       1    0.021563 -0.009890 -0.011290 -0.000003 -0.000000  0.000001
       2   -0.009890  0.013782 -0.004036 -0.000002  0.000000  0.000001
       3   -0.011290 -0.004036  0.062818  0.000016  0.000001 -0.000000
       4   -0.000003 -0.000002  0.000016  0.096165  0.000000  0.000000
       5   -0.000000  0.000000  0.000001  0.000000  0.039805 -0.000018
       6    0.000001  0.000001 -0.000000  0.000000 -0.000018  0.052949
-------------------------------------------------------------------------------

  Mechanical properties :

-------------------------------------------------------------------------------
  Convention :                    Reuss         Voigt         Hill
-------------------------------------------------------------------------------
  Bulk  Modulus (GPa)     =      20.95050      51.36137      36.15593
  Shear Modulus (GPa)     =      14.14735      19.39414      16.77074
-------------------------------------------------------------------------------
  Velocity S-wave (km/s)  =       2.72725       3.19318       2.96937
  Velocity P-wave (km/s)  =       4.57513       6.37167       5.54662
-------------------------------------------------------------------------------
  Compressibility (1/GPa) =    0.04773156
-------------------------------------------------------------------------------
  Stress axis :                     x             y             z
-------------------------------------------------------------------------------
  Youngs Moduli (GPa)     =      46.37586      72.56080      15.91903
-------------------------------------------------------------------------------
  Poissons Ratio (x)      =                     0.71764       0.17972
  Poissons Ratio (y)      =       0.45867                     0.06424
  Poissons Ratio (z)      =       0.52357       0.29282
-------------------------------------------------------------------------------


  Piezoelectric Strain Matrix: (Units=C/m**2)

-------------------------------------------------------------------------------
  Indices      1         2         3         4         5         6    
-------------------------------------------------------------------------------
       x     0.52046   0.71753   0.28335  -0.00000  -0.00001  -0.00002
       y     0.00004   0.00006   0.00002  -0.00001   0.00000   0.66829
       z    -0.00001  -0.00000   0.00001   0.00001  -0.83592  -0.00001
-------------------------------------------------------------------------------


  Piezoelectric Stress Matrix: (Units=10**-11 C/N)

-------------------------------------------------------------------------------
  Indices      1         2         3         4         5         6    
-------------------------------------------------------------------------------
       x     0.09271   0.35978   0.90281   0.00009  -0.00002  -0.00003
       y     0.00006   0.00007   0.00003  -0.00012  -0.00117   3.53856
       z    -0.00002  -0.00000  -0.00000   0.00003  -3.32737   0.00139
-------------------------------------------------------------------------------


  Static dielectric constant tensor : 

-------------------------------------------------------------------------------
              x         y         z
-------------------------------------------------------------------------------
       x     3.83041  -0.00000  -0.00000
       y    -0.00000   3.91853  -0.00025
       z    -0.00000  -0.00025   3.31850
--------------------------------------------------------------------------------

  High frequency dielectric constant tensor : 

-------------------------------------------------------------------------------
              x         y         z
-------------------------------------------------------------------------------
       x     1.68682  -0.00000  -0.00000
       y    -0.00000   1.69425  -0.00000
       z    -0.00000  -0.00000   1.62022
-------------------------------------------------------------------------------

  Static refractive indices : 

-------------------------------------------------------------------------------
    1 =    1.82167      2 =    1.95714      3 =    1.97953
-------------------------------------------------------------------------------

  High frequency refractive indices : 

-------------------------------------------------------------------------------
    1 =    1.27288      2 =    1.29878      3 =    1.30163
-------------------------------------------------------------------------------


  Time to end of optimisation =       8.4361 seconds


  Peak dynamic memory used =       5.01 MB 


  Timing analysis for GULP :

--------------------------------------------------------------------------------
  Task / Subroutine                                          Time (Seconds)
--------------------------------------------------------------------------------
  Calculation of reciprocal space energy and derivatives          0.4903
  Calculation of real space energy and derivatives                4.9562
  Calculation of three-body energy and derivatives                0.5336
  Calculation and manipulation of Hessian matrix                  2.7026
  Calculation of matrix inversion                                 0.0275
--------------------------------------------------------------------------------
  Total CPU time                                                  8.4361
--------------------------------------------------------------------------------


  Dump file written as c00003.vasp.grs
  CIF file written as c00003.vasp.cif


  Job Finished at 10:47.03  7th October    2025                               

