********************************************************************************
*                       GENERAL UTILITY LATTICE PROGRAM                        *
*                                 Julian Gale                                  *
*                       Curtin Institute for Computation                       *
*                    School of Molecular and Life Sciences                     *
*                    Curtin University, Western Australia                      *
********************************************************************************
* Version = 6.1.2 * Last modified =   3rd November 2022                        *
********************************************************************************
*  optimise     - perform optimisation run                                     *
*  conp         - constant pressure calculation                                *
*  property     - calculate properties for final geometry                      *
********************************************************************************

  Job Started  at 10:52.41  7th October    2025                               

  Number of CPUs =     1


  Total number of configurations input =      1

********************************************************************************
*  Input for Configuration =   1 : c00038.vasp                                 *
********************************************************************************

  Formula = Ge2Si22O48                                                  

  Number of irreducible atoms/shells =     120


  Total number atoms/shells =     120

  Dimensionality = 3               :  Bulk   



  Cartesian lattice vectors (Angstroms) :

       17.182800    0.000000    0.000000
        0.000000    7.513760    0.000000
        0.000000    0.000000   10.447700

  Cell parameters (Angstroms/Degrees):

  a =      17.1828    alpha =  90.0000
  b =       7.5138    beta  =  90.0000
  c =      10.4477    gamma =  90.0000

  Initial cell volume =        1348.875752 Angs**3

  Temperature of configuration =   0.00     K 

  Pressure of configuration =         0.000 GPa 

  Fractional coordinates of asymmetric unit :

--------------------------------------------------------------------------------
   No.  Atomic       x           y          z         Charge      Occupancy
        Label      (Frac)      (Frac)     (Frac)        (e)         (Frac)  
--------------------------------------------------------------------------------
      1 Ge    c    0.160190    0.293910    0.273440     4.00000    1.000000    
      2 Ge    c    0.339340 *  0.705910 *  0.982560 *   4.00000    1.000000    
      3 Si    c    0.052090 *  0.000000 *  0.372270 *   4.00000    1.000000    
      4 Si    c    0.447910 *  0.000000 *  0.372270 *   4.00000    1.000000    
      5 Si    c    0.947910 *  0.000000 *  0.627730 *   4.00000    1.000000    
      6 Si    c    0.552090 *  0.000000 *  0.627730 *   4.00000    1.000000    
      7 Si    c    0.556730 *  0.000000 *  0.122130 *   4.00000    1.000000    
      8 Si    c    0.943270 *  0.000000 *  0.122130 *   4.00000    1.000000    
      9 Si    c    0.443270 *  0.000000 *  0.877870 *   4.00000    1.000000    
     10 Si    c    0.056730 *  0.000000 *  0.877870 *   4.00000    1.000000    
     11 Si    c    0.339810 *  0.706090 *  0.273440 *   4.00000    1.000000    
     12 Si    c    0.839810 *  0.293910 *  0.726560 *   4.00000    1.000000    
     13 Si    c    0.660190 *  0.706090 *  0.726560 *   4.00000    1.000000    
     14 Si    c    0.839810 *  0.706090 *  0.726560 *   4.00000    1.000000    
     15 Si    c    0.660190 *  0.293910 *  0.726560 *   4.00000    1.000000    
     16 Si    c    0.160190 *  0.706090 *  0.273440 *   4.00000    1.000000    
     17 Si    c    0.339810 *  0.293910 *  0.273440 *   4.00000    1.000000    
     18 Si    c    0.660660 *  0.294090 *  0.017440 *   4.00000    1.000000    
     19 Si    c    0.839340 *  0.705910 *  0.017440 *   4.00000    1.000000    
     20 Si    c    0.339340 *  0.294090 *  0.982560 *   4.00000    1.000000    
     21 Si    c    0.160660 *  0.705910 *  0.982560 *   4.00000    1.000000    
     22 Si    c    0.160660 *  0.294090 *  0.982560 *   4.00000    1.000000    
     23 Si    c    0.660660 *  0.705910 *  0.017440 *   4.00000    1.000000    
     24 Si    c    0.839340 *  0.294090 *  0.017440 *   4.00000    1.000000    
     25 O3    c    0.106570 *  0.174340 *  0.366200 *   1.33043    1.000000    
     26 O2    c    0.393430 *  0.825660 *  0.366200 *   0.87073    1.000000    
     27 O2    c    0.893430 *  0.174340 *  0.633800 *   0.87073    1.000000    
     28 O2    c    0.606570 *  0.825660 *  0.633800 *   0.87073    1.000000    
     29 O2    c    0.893430 *  0.825660 *  0.633800 *   0.87073    1.000000    
     30 O2    c    0.606570 *  0.174340 *  0.633800 *   0.87073    1.000000    
     31 O2    c    0.106570 *  0.825660 *  0.366200 *   0.87073    1.000000    
     32 O2    c    0.393430 *  0.174340 *  0.366200 *   0.87073    1.000000    
     33 O2    c    0.000000 *  0.000000 *  0.500000 *   0.87073    1.000000    
     34 O2    c    0.500000 *  0.000000 *  0.500000 *   0.87073    1.000000    
     35 O2    c    0.994520 *  0.000000 *  0.250840 *   0.87073    1.000000    
     36 O2    c    0.505480 *  0.000000 *  0.250840 *   0.87073    1.000000    
     37 O2    c    0.005480 *  0.000000 *  0.749160 *   0.87073    1.000000    
     38 O2    c    0.494520 *  0.000000 *  0.749160 *   0.87073    1.000000    
     39 O2    c    0.610230 *  0.175520 *  0.115390 *   0.87073    1.000000    
     40 O2    c    0.889770 *  0.824480 *  0.115390 *   0.87073    1.000000    
     41 O2    c    0.389770 *  0.175520 *  0.884610 *   0.87073    1.000000    
     42 O2    c    0.110230 *  0.824480 *  0.884610 *   0.87073    1.000000    
     43 O3    c    0.389770 *  0.824480 *  0.884610 *   1.33043    1.000000    
     44 O2    c    0.110230 *  0.175520 *  0.884610 *   0.87073    1.000000    
     45 O2    c    0.610230 *  0.824480 *  0.115390 *   0.87073    1.000000    
     46 O2    c    0.889770 *  0.175520 *  0.115390 *   0.87073    1.000000    
     47 O2    c    0.500000 *  0.000000 *  0.000000 *   0.87073    1.000000    
     48 O2    c    0.000000 *  0.000000 *  0.000000 *   0.87073    1.000000    
     49 O3    c    0.151750 *  0.500000 *  0.313330 *   1.33043    1.000000    
     50 O2    c    0.348250 *  0.500000 *  0.313330 *   0.87073    1.000000    
     51 O2    c    0.848250 *  0.500000 *  0.686670 *   0.87073    1.000000    
     52 O2    c    0.651750 *  0.500000 *  0.686670 *   0.87073    1.000000    
     53 O3    c    0.250000 *  0.234950 *  0.285720 *   1.33043    1.000000    
     54 O2    c    0.250000 *  0.765050 *  0.285720 *   0.87073    1.000000    
     55 O2    c    0.750000 *  0.234950 *  0.714280 *   0.87073    1.000000    
     56 O2    c    0.750000 *  0.765050 *  0.714280 *   0.87073    1.000000    
     57 O3    c    0.131410 *  0.268650 *  0.127790 *   1.33043    1.000000    
     58 O3    c    0.368590 *  0.731350 *  0.127790 *   1.33043    1.000000    
     59 O2    c    0.868590 *  0.268650 *  0.872210 *   0.87073    1.000000    
     60 O2    c    0.631410 *  0.731350 *  0.872210 *   0.87073    1.000000    
     61 O2    c    0.868590 *  0.731350 *  0.872210 *   0.87073    1.000000    
     62 O2    c    0.631410 *  0.268650 *  0.872210 *   0.87073    1.000000    
     63 O2    c    0.131410 *  0.731350 *  0.127790 *   0.87073    1.000000    
     64 O2    c    0.368590 *  0.268650 *  0.127790 *   0.87073    1.000000    
     65 O2    c    0.653920 *  0.500000 *  0.058200 *   0.87073    1.000000    
     66 O2    c    0.846080 *  0.500000 *  0.058200 *   0.87073    1.000000    
     67 O3    c    0.346080 *  0.500000 *  0.941800 *   1.33043    1.000000    
     68 O2    c    0.153920 *  0.500000 *  0.941800 *   0.87073    1.000000    
     69 O2    c    0.750000 *  0.231060 *  0.027050 *   0.87073    1.000000    
     70 O2    c    0.750000 *  0.768940 *  0.027050 *   0.87073    1.000000    
     71 O2    c    0.250000 *  0.231060 *  0.972950 *   0.87073    1.000000    
     72 O3    c    0.250000 *  0.768940 *  0.972950 *   1.33043    1.000000    
     73 O3    s    0.106570 *  0.174340 *  0.366200 *  -3.33043    1.000000    
     74 O2    s    0.393430 *  0.825660 *  0.366200 *  -2.87073    1.000000    
     75 O2    s    0.893430 *  0.174340 *  0.633800 *  -2.87073    1.000000    
     76 O2    s    0.606570 *  0.825660 *  0.633800 *  -2.87073    1.000000    
     77 O2    s    0.893430 *  0.825660 *  0.633800 *  -2.87073    1.000000    
     78 O2    s    0.606570 *  0.174340 *  0.633800 *  -2.87073    1.000000    
     79 O2    s    0.106570 *  0.825660 *  0.366200 *  -2.87073    1.000000    
     80 O2    s    0.393430 *  0.174340 *  0.366200 *  -2.87073    1.000000    
     81 O2    s    0.000000 *  0.000000 *  0.500000 *  -2.87073    1.000000    
     82 O2    s    0.500000 *  0.000000 *  0.500000 *  -2.87073    1.000000    
     83 O2    s    0.994520 *  0.000000 *  0.250840 *  -2.87073    1.000000    
     84 O2    s    0.505480 *  0.000000 *  0.250840 *  -2.87073    1.000000    
     85 O2    s    0.005480 *  0.000000 *  0.749160 *  -2.87073    1.000000    
     86 O2    s    0.494520 *  0.000000 *  0.749160 *  -2.87073    1.000000    
     87 O2    s    0.610230 *  0.175520 *  0.115390 *  -2.87073    1.000000    
     88 O2    s    0.889770 *  0.824480 *  0.115390 *  -2.87073    1.000000    
     89 O2    s    0.389770 *  0.175520 *  0.884610 *  -2.87073    1.000000    
     90 O2    s    0.110230 *  0.824480 *  0.884610 *  -2.87073    1.000000    
     91 O3    s    0.389770 *  0.824480 *  0.884610 *  -3.33043    1.000000    
     92 O2    s    0.110230 *  0.175520 *  0.884610 *  -2.87073    1.000000    
     93 O2    s    0.610230 *  0.824480 *  0.115390 *  -2.87073    1.000000    
     94 O2    s    0.889770 *  0.175520 *  0.115390 *  -2.87073    1.000000    
     95 O2    s    0.500000 *  0.000000 *  0.000000 *  -2.87073    1.000000    
     96 O2    s    0.000000 *  0.000000 *  0.000000 *  -2.87073    1.000000    
     97 O3    s    0.151750 *  0.500000 *  0.313330 *  -3.33043    1.000000    
     98 O2    s    0.348250 *  0.500000 *  0.313330 *  -2.87073    1.000000    
     99 O2    s    0.848250 *  0.500000 *  0.686670 *  -2.87073    1.000000    
    100 O2    s    0.651750 *  0.500000 *  0.686670 *  -2.87073    1.000000    
    101 O3    s    0.250000 *  0.234950 *  0.285720 *  -3.33043    1.000000    
    102 O2    s    0.250000 *  0.765050 *  0.285720 *  -2.87073    1.000000    
    103 O2    s    0.750000 *  0.234950 *  0.714280 *  -2.87073    1.000000    
    104 O2    s    0.750000 *  0.765050 *  0.714280 *  -2.87073    1.000000    
    105 O3    s    0.131410 *  0.268650 *  0.127790 *  -3.33043    1.000000    
    106 O3    s    0.368590 *  0.731350 *  0.127790 *  -3.33043    1.000000    
    107 O2    s    0.868590 *  0.268650 *  0.872210 *  -2.87073    1.000000    
    108 O2    s    0.631410 *  0.731350 *  0.872210 *  -2.87073    1.000000    
    109 O2    s    0.868590 *  0.731350 *  0.872210 *  -2.87073    1.000000    
    110 O2    s    0.631410 *  0.268650 *  0.872210 *  -2.87073    1.000000    
    111 O2    s    0.131410 *  0.731350 *  0.127790 *  -2.87073    1.000000    
    112 O2    s    0.368590 *  0.268650 *  0.127790 *  -2.87073    1.000000    
    113 O2    s    0.653920 *  0.500000 *  0.058200 *  -2.87073    1.000000    
    114 O2    s    0.846080 *  0.500000 *  0.058200 *  -2.87073    1.000000    
    115 O3    s    0.346080 *  0.500000 *  0.941800 *  -3.33043    1.000000    
    116 O2    s    0.153920 *  0.500000 *  0.941800 *  -2.87073    1.000000    
    117 O2    s    0.750000 *  0.231060 *  0.027050 *  -2.87073    1.000000    
    118 O2    s    0.750000 *  0.768940 *  0.027050 *  -2.87073    1.000000    
    119 O2    s    0.250000 *  0.231060 *  0.972950 *  -2.87073    1.000000    
    120 O3    s    0.250000 *  0.768940 *  0.972950 *  -3.33043    1.000000    
--------------------------------------------------------------------------------



********************************************************************************
*  General input information                                                   *
********************************************************************************

  Species output for all configurations : 

--------------------------------------------------------------------------------
  Species    Type    Atomic    Atomic    Charge       Radii (Angs)     Library
                     Number     Mass       (e)     Cova   Ionic  VDW   Symbol
--------------------------------------------------------------------------------
    Ge       Core       32      72.61   4.000000   1.170  0.000  1.750 Ge       
    Si       Core       14      28.09   4.000000   1.200  0.000  2.100 Si       
    O1       Core        8      16.00   1.733957   0.730  0.000  0.000 O1       
    O2       Core        8      16.00   0.870733   0.730  0.000  1.360 O2       
    O3       Core        8      16.00   1.330431   0.730  0.000  1.360 O3       
    O1       Shell       8       0.00  -3.733957   0.730  0.000  0.000 O1       
    O2       Shell       8       0.00  -2.870733   0.730  0.000  0.000 O2       
    O3       Shell       8       0.00  -3.330431   0.730  0.000  0.000 O3       
--------------------------------------------------------------------------------


  Lattice summation method               =    Ewald          (3-D)
                                         =    Parry          (2-D)
                                         =    Saunders et al (1-D)
  Accuracy factor for lattice sums       =   12.000


  Analytic derivatives to be used

  Time limit = Infinity

  Maximum range for interatomic potentials =    100000.000000 Angstroms

  General interatomic potentials :

--------------------------------------------------------------------------------
Atom  Types   Potential      Parameter       Value         Units   Cutoffs(Ang)
  1     2                                                            Min /  Max 
--------------------------------------------------------------------------------
Si   c O1   s Buckingham    Buckingham A     1315.2478    eV        0.000 16.000
                            Buckingham rho  0.31775900    Ang       
                            Buckingham C     10.141118    eV*Ang^6  
--------------------------------------------------------------------------------
Si   c O2   s Buckingham    Buckingham A     1315.2478    eV        0.000 16.000
                            Buckingham rho  0.31775900    Ang       
                            Buckingham C     10.141118    eV*Ang^6  
--------------------------------------------------------------------------------
Si   c O3   s Buckingham    Buckingham A     1315.2478    eV        0.000 16.000
                            Buckingham rho  0.31775900    Ang       
                            Buckingham C     10.141118    eV*Ang^6  
--------------------------------------------------------------------------------
Ge   c O1   s Buckingham    Buckingham A     1497.3996    eV        0.000 16.000
                            Buckingham rho  0.32564600    Ang       
                            Buckingham C     16.808599    eV*Ang^6  
--------------------------------------------------------------------------------
Ge   c O2   s Buckingham    Buckingham A     1497.3996    eV        0.000 16.000
                            Buckingham rho  0.32564600    Ang       
                            Buckingham C     16.808599    eV*Ang^6  
--------------------------------------------------------------------------------
Ge   c O3   s Buckingham    Buckingham A     1497.3996    eV        0.000 16.000
                            Buckingham rho  0.32564600    Ang       
                            Buckingham C     16.808599    eV*Ang^6  
--------------------------------------------------------------------------------
O1   s O1   s Buckingham    Buckingham A     22764.000    eV        0.000 16.000
                            Buckingham rho  0.14900000    Ang       
                            Buckingham C     10.937044    eV*Ang^6  
--------------------------------------------------------------------------------
O1   s O2   s Buckingham    Buckingham A     22764.000    eV        0.000 16.000
                            Buckingham rho  0.14900000    Ang       
                            Buckingham C     10.937044    eV*Ang^6  
--------------------------------------------------------------------------------
O1   s O3   s Buckingham    Buckingham A     22764.000    eV        0.000 16.000
                            Buckingham rho  0.14900000    Ang       
                            Buckingham C     10.937044    eV*Ang^6  
--------------------------------------------------------------------------------
O2   s O2   s Buckingham    Buckingham A     22764.000    eV        0.000 16.000
                            Buckingham rho  0.14900000    Ang       
                            Buckingham C     10.937044    eV*Ang^6  
--------------------------------------------------------------------------------
O2   s O3   s Buckingham    Buckingham A     22764.000    eV        0.000 16.000
                            Buckingham rho  0.14900000    Ang       
                            Buckingham C     10.937044    eV*Ang^6  
--------------------------------------------------------------------------------
O3   s O3   s Buckingham    Buckingham A     22764.000    eV        0.000 16.000
                            Buckingham rho  0.14900000    Ang       
                            Buckingham C     10.937044    eV*Ang^6  
--------------------------------------------------------------------------------
O1   c O1   s Spring (c-s)  Spring k 2       180.31577    eV*Ang^-2 0.000  0.800
                            Spring k 4       0.0000000    eV*Ang^-4 
--------------------------------------------------------------------------------
O2   c O2   s Spring (c-s)  Spring k 2       75.969800    eV*Ang^-2 0.000  0.800
                            Spring k 4       0.0000000    eV*Ang^-4 
--------------------------------------------------------------------------------
O3   c O3   s Spring (c-s)  Spring k 2       128.14270    eV*Ang^-2 0.000  0.800
                            Spring k 4       0.0000000    eV*Ang^-4 
--------------------------------------------------------------------------------

  General Three-body potentials :

--------------------------------------------------------------------------------
  Atoms       Potential      Parameter       Value         Units   Cutoffs(Ang)
  1 / 2 / 3                                                          Min /  Max 
--------------------------------------------------------------------------------
Si    core    Harmonic      Three-body cnst  1.2614000    eV*rad^-2 0.000  1.900
O1    shel                  Three-body angl  109.47000    degrees   0.000  1.900
O1    shel                  Three-body k4    0.0000000    eV*rad^-4 0.000  3.500
                            Three-body k3    0.0000000    eV*rad^-3 
--------------------------------------------------------------------------------
Si    core    Harmonic      Three-body cnst  1.2614000    eV*rad^-2 0.000  1.900
O1    shel                  Three-body angl  109.47000    degrees   0.000  1.900
õ(1   shel                  Three-body k4    0.0000000    eV*rad^-4 0.000  3.500
                            Three-body k3    0.0000000    eV*rad^-3 
--------------------------------------------------------------------------------
Si    core    Harmonic      Three-body cnst  1.2614000    eV*rad^-2 0.000  1.900
õ(1   shel                  Three-body angl  109.47000    degrees   0.000  1.900
õ(1   shel                  Three-body k4    0.0000000    eV*rad^-4 0.000  3.500
                            Three-body k3    0.0000000    eV*rad^-3 
--------------------------------------------------------------------------------
Si    core    Harmonic      Three-body cnst  1.2614000    eV*rad^-2 0.000  1.900
O1    shel                  Three-body angl  109.47000    degrees   0.000  1.900
O2    shel                  Three-body k4    0.0000000    eV*rad^-4 0.000  3.500
                            Three-body k3    0.0000000    eV*rad^-3 
--------------------------------------------------------------------------------
Si    core    Harmonic      Three-body cnst  1.2614000    eV*rad^-2 0.000  1.900
O1    shel                  Three-body angl  109.47000    degrees   0.000  1.900
õ(2   shel                  Three-body k4    0.0000000    eV*rad^-4 0.000  3.500
                            Three-body k3    0.0000000    eV*rad^-3 
--------------------------------------------------------------------------------
Si    core    Harmonic      Three-body cnst  1.2614000    eV*rad^-2 0.000  1.900
O2    shel                  Three-body angl  109.47000    degrees   0.000  1.900
õ(1   shel                  Three-body k4    0.0000000    eV*rad^-4 0.000  3.500
                            Three-body k3    0.0000000    eV*rad^-3 
--------------------------------------------------------------------------------
Si    core    Harmonic      Three-body cnst  1.2614000    eV*rad^-2 0.000  1.900
õ(1   shel                  Three-body angl  109.47000    degrees   0.000  1.900
õ(2   shel                  Three-body k4    0.0000000    eV*rad^-4 0.000  3.500
                            Three-body k3    0.0000000    eV*rad^-3 
--------------------------------------------------------------------------------
Si    core    Harmonic      Three-body cnst  1.2614000    eV*rad^-2 0.000  1.900
O2    shel                  Three-body angl  109.47000    degrees   0.000  1.900
O2    shel                  Three-body k4    0.0000000    eV*rad^-4 0.000  3.500
                            Three-body k3    0.0000000    eV*rad^-3 
--------------------------------------------------------------------------------
Si    core    Harmonic      Three-body cnst  1.2614000    eV*rad^-2 0.000  1.900
O2    shel                  Three-body angl  109.47000    degrees   0.000  1.900
õ(2   shel                  Three-body k4    0.0000000    eV*rad^-4 0.000  3.500
                            Three-body k3    0.0000000    eV*rad^-3 
--------------------------------------------------------------------------------
Si    core    Harmonic      Three-body cnst  1.2614000    eV*rad^-2 0.000  1.900
õ(2   shel                  Three-body angl  109.47000    degrees   0.000  1.900
õ(2   shel                  Three-body k4    0.0000000    eV*rad^-4 0.000  3.500
                            Three-body k3    0.0000000    eV*rad^-3 
--------------------------------------------------------------------------------

********************************************************************************
*  Output for configuration   1 : c00038.vasp                                  *
********************************************************************************


  Components of energy : 

--------------------------------------------------------------------------------
  Interatomic potentials     =         752.29713821 eV    
  Three-body potentials      =           0.01687093 eV    
  Monopole - monopole (real) =       -2676.00317478 eV    
  Monopole - monopole (recip)=       -1115.35404472 eV    
  Monopole - monopole (total)=       -3791.35721950 eV    
--------------------------------------------------------------------------------
  Total lattice energy       =       -3039.04321036 eV    
--------------------------------------------------------------------------------
  Total lattice energy       =         -293221.2138 kJ/(mole unit cells)
--------------------------------------------------------------------------------


  Number of variables =      363

  Maximum number of calculations  =          1000
  Maximum Hessian update interval =            10
  Maximum step size               =   0.100000000
  Maximum parameter tolerance     =   0.000010000
  Maximum function  tolerance     =   0.000010000
  Maximum gradient  tolerance     =   0.001000000
  Maximum gradient  component     =   0.010000000

  Symmetry not applied to optimisation

  Cell parameters to be optimised using strains

  Newton-Raphson optimiser to be used

  BFGS hessian update to be used

  Lower half triangular hessian to be used

  Minimiser to switch to RFO
  When gradient norm is less than     0.050000

  Dumpfile to be written after every cycle

  Start of bulk optimisation :

  Cycle:      0 Energy:     -3039.043210  Gnorm:      4.333905  CPU:    0.109
  ** Hessian calculated **
  Cycle:      1 Energy:     -3056.417723  Gnorm:      3.111285  CPU:    0.298
  ** Hessian calculated **
  Cycle:      2 Energy:     -3067.292350  Gnorm:      1.928936  CPU:    0.598
  ** Hessian calculated **
  Cycle:      3 Energy:     -3073.334288  Gnorm:      0.421274  CPU:    0.817
  Cycle:      4 Energy:     -3073.902194  Gnorm:      0.200107  CPU:    0.930
  Cycle:      5 Energy:     -3074.066553  Gnorm:      0.136778  CPU:    1.062
  Cycle:      6 Energy:     -3074.170251  Gnorm:      0.109393  CPU:    1.175
  Cycle:      7 Energy:     -3074.268106  Gnorm:      0.093498  CPU:    1.308
  Cycle:      8 Energy:     -3074.329515  Gnorm:      0.078387  CPU:    1.421
  Cycle:      9 Energy:     -3074.383220  Gnorm:      0.059892  CPU:    1.550
  Cycle:     10 Energy:     -3074.412991  Gnorm:      0.051292  CPU:    1.656
  Cycle:     11 Energy:     -3074.435759  Gnorm:      0.040036  CPU:    1.761
  ** Hessian has required structure
  Cycle:     12 Energy:     -3074.445067  Gnorm:      0.074412  CPU:    1.913
  ** Hessian has wrong structure
  ** Imaginary eigenvectors =   1
  ** Hessian has wrong structure
  ** Imaginary eigenvectors =   1
  Cycle:     13 Energy:     -3074.447133  Gnorm:      0.074411  CPU:    2.513
  ** Hessian has wrong structure
  ** Imaginary eigenvectors =   1
  ** Hessian has wrong structure
  ** Imaginary eigenvectors =   1
  Cycle:     14 Energy:     -3074.451706  Gnorm:      0.074452  CPU:    3.035
  ** Hessian has wrong structure
  ** Imaginary eigenvectors =   1
  ** Hessian has wrong structure
  ** Imaginary eigenvectors =   1
  Cycle:     15 Energy:     -3074.473502  Gnorm:      0.073479  CPU:    3.550
  ** Hessian has wrong structure
  ** Imaginary eigenvectors =   1
  Cycle:     16 Energy:     -3074.479476  Gnorm:      0.038219  CPU:    3.817
  ** Hessian has wrong structure
  ** Imaginary eigenvectors =   1
  Cycle:     17 Energy:     -3074.617436  Gnorm:      0.035720  CPU:    4.211
  ** Hessian has required structure
  Cycle:     18 Energy:     -3074.818675  Gnorm:      0.025729  CPU:    4.454
  ** Hessian has required structure
  Cycle:     19 Energy:     -3074.930342  Gnorm:      0.025795  CPU:    4.621
  ** Hessian has required structure
  Cycle:     20 Energy:     -3074.977568  Gnorm:      0.020022  CPU:    4.787
  ** Hessian has required structure
  Cycle:     21 Energy:     -3074.995665  Gnorm:      0.021610  CPU:    4.954
  ** Hessian has required structure
  Cycle:     22 Energy:     -3075.019676  Gnorm:      0.017000  CPU:    5.104
  ** Hessian has required structure
  Cycle:     23 Energy:     -3075.035707  Gnorm:      0.016032  CPU:    5.272
  ** Hessian has required structure
  Cycle:     24 Energy:     -3075.051371  Gnorm:      0.014234  CPU:    5.440
  ** Hessian has required structure
  Cycle:     25 Energy:     -3075.063083  Gnorm:      0.018224  CPU:    5.591
  ** Hessian has required structure
  Cycle:     26 Energy:     -3075.073154  Gnorm:      0.014246  CPU:    5.749
  ** Hessian has required structure
  Cycle:     27 Energy:     -3075.080236  Gnorm:      0.014180  CPU:    5.910
  ** Hessian has required structure
  Cycle:     28 Energy:     -3075.106074  Gnorm:      0.014553  CPU:    6.155
  ** Hessian has required structure
  Cycle:     29 Energy:     -3075.116308  Gnorm:      0.009457  CPU:    6.335
  ** Hessian has required structure
  Cycle:     30 Energy:     -3075.119912  Gnorm:      0.005191  CPU:    6.512
  ** Hessian has required structure
  Cycle:     31 Energy:     -3075.121081  Gnorm:      0.003472  CPU:    6.674
  ** Hessian has required structure
  Cycle:     32 Energy:     -3075.121544  Gnorm:      0.001713  CPU:    6.834
  ** Hessian has required structure
  Cycle:     33 Energy:     -3075.121708  Gnorm:      0.001381  CPU:    7.000
  ** Hessian has required structure
  Cycle:     34 Energy:     -3075.121771  Gnorm:      0.000295  CPU:    7.163
  ** Hessian has required structure
  Cycle:     35 Energy:     -3075.121789  Gnorm:      0.000151  CPU:    7.318
  ** Hessian has required structure
  Cycle:     36 Energy:     -3075.121792  Gnorm:      0.000107  CPU:    7.456
  ** Hessian has required structure


  **** Optimisation achieved ****


  Final energy =   -3075.12179344 eV      
  Final Gnorm  =       0.00007470

  Components of energy : 

--------------------------------------------------------------------------------
  Interatomic potentials     =         817.22133152 eV    
  Three-body potentials      =           0.24826563 eV    
  Monopole - monopole (real) =       -2241.10842587 eV    
  Monopole - monopole (recip)=       -1651.48296472 eV    
  Monopole - monopole (total)=       -3892.59139059 eV    
--------------------------------------------------------------------------------
  Total lattice energy       =       -3075.12179344 eV    
--------------------------------------------------------------------------------
  Total lattice energy       =         -296702.2455 kJ/(mole unit cells)
--------------------------------------------------------------------------------

  Final fractional coordinates of atoms :

--------------------------------------------------------------------------------
   No.  Atomic        x           y          z          Radius
        Label       (Frac)      (Frac)     (Frac)       (Angs) 
--------------------------------------------------------------------------------
     1  Ge    c     0.160190    0.293910    0.273440    0.000000
     2  Ge    c     0.362717    0.628093    0.952118    0.000000
     3  Si    c     0.056580    0.988439    0.355188    0.000000
     4  Si    c     0.461428    0.967767    0.355819    0.000000
     5  Si    c     0.960969    0.961737    0.615076    0.000000
     6  Si    c     0.559463    0.965375    0.616172    0.000000
     7  Si    c     0.567313    0.969876    0.105479    0.000000
     8  Si    c     0.953437    0.969248    0.104293    0.000000
     9  Si    c     0.455599    0.945283    0.866057    0.000000
    10  Si    c     0.067518    0.961056    0.865832    0.000000
    11  Si    c     0.357989    0.662622    0.260317    0.000000
    12  Si    c     0.855348    0.271444    0.698494    0.000000
    13  Si    c     0.664720    0.659128    0.704754    0.000000
    14  Si    c     0.845534    0.677481    0.702467    0.000000
    15  Si    c     0.675018    0.252546    0.701595    0.000000
    16  Si    c     0.178506    0.703845    0.254828    0.000000
    17  Si    c     0.343662    0.256267    0.273514    0.000000
    18  Si    c     0.676537    0.254886    0.004795    0.000000
    19  Si    c     0.844799    0.680095    0.005479    0.000000
    20  Si    c     0.341441    0.226252    0.968988    0.000000
    21  Si    c     0.180029    0.671229    0.949339    0.000000
    22  Si    c     0.160455    0.275204    0.965354    0.000000
    23  Si    c     0.663812    0.655290    0.007115    0.000000
    24  Si    c     0.857209    0.279922    0.001586    0.000000
    25  O3    c     0.091631    0.182574    0.363060    0.000000
    26  O2    c     0.416344    0.782830    0.345083    0.000000
    27  O2    c     0.914361    0.148758    0.613727    0.000000
    28  O2    c     0.605787    0.778671    0.622641    0.000000
    29  O2    c     0.897809    0.805347    0.616840    0.000000
    30  O2    c     0.622293    0.122520    0.615928    0.000000
    31  O2    c     0.131084    0.859963    0.327681    0.000000
    32  O2    c     0.399285    0.129634    0.356764    0.000000
    33  O2    c     0.014319    0.939270    0.488295    0.000000
    34  O2    c     0.509214    0.970930    0.487605    0.000000
    35  O2    c     0.992103    0.965358    0.244010    0.000000
    36  O2    c     0.523961    0.991649    0.241486    0.000000
    37  O2    c     0.017232    0.948463    0.737302    0.000000
    38  O2    c     0.499538    0.994597    0.735007    0.000000
    39  O2    c     0.632667    0.120255    0.096566    0.000000
    40  O2    c     0.887942    0.818574    0.098163    0.000000
    41  O2    c     0.376576    0.063377    0.884682    0.000000
    42  O2    c     0.133503    0.807779    0.860203    0.000000
    43  O3    c     0.429962    0.743476    0.862415    0.000000
    44  O2    c     0.106677    0.153256    0.873703    0.000000
    45  O2    c     0.607645    0.776341    0.097233    0.000000
    46  O2    c     0.914661    0.161812    0.086458    0.000000
    47  O2    c     0.508327    0.997184    0.988402    0.000000
    48  O2    c     0.015961    0.924809    0.992524    0.000000
    49  O3    c     0.141966    0.517433    0.288472    0.000000
    50  O2    c     0.374945    0.456352    0.285858    0.000000
    51  O2    c     0.871831    0.475992    0.671038    0.000000
    52  O2    c     0.648441    0.453561    0.675354    0.000000
    53  O3    c     0.254880    0.250039    0.322912    0.000000
    54  O2    c     0.268523    0.708831    0.302030    0.000000
    55  O2    c     0.765988    0.226348    0.661815    0.000000
    56  O2    c     0.754196    0.703842    0.667819    0.000000
    57  O3    c     0.145949    0.226612    0.113829    0.000000
    58  O3    c     0.372177    0.703586    0.110494    0.000000
    59  O2    c     0.870188    0.231413    0.849799    0.000000
    60  O2    c     0.648852    0.702751    0.856928    0.000000
    61  O2    c     0.857486    0.725842    0.854400    0.000000
    62  O2    c     0.664672    0.205895    0.853078    0.000000
    63  O2    c     0.178977    0.734495    0.100088    0.000000
    64  O2    c     0.345767    0.190944    0.123124    0.000000
    65  O2    c     0.643252    0.452303    0.032720    0.000000
    66  O2    c     0.877801    0.483516    0.030674    0.000000
    67  O3    c     0.385273    0.406302    0.938426    0.000000
    68  O2    c     0.139199    0.479516    0.939306    0.000000
    69  O2    c     0.767771    0.243808    0.040458    0.000000
    70  O2    c     0.753508    0.691405    0.042076    0.000000
    71  O2    c     0.251267    0.244824    0.928457    0.000000
    72  O3    c     0.268298    0.660655    0.898984    0.000000
    73  O3    s     0.093704    0.172268    0.355058    0.000000
    74  O2    s     0.414851    0.789709    0.337031    0.000000
    75  O2    s     0.912780    0.142581    0.623156    0.000000
    76  O2    s     0.607428    0.785204    0.631103    0.000000
    77  O2    s     0.898701    0.807782    0.626310    0.000000
    78  O2    s     0.621481    0.120233    0.625586    0.000000
    79  O2    s     0.128450    0.856209    0.322371    0.000000
    80  O2    s     0.399811    0.126147    0.347534    0.000000
    81  O2    s     0.012961    0.947508    0.487795    0.000000
    82  O2    s     0.509593    0.969879    0.487448    0.000000
    83  O2    s     0.994789    0.968399    0.239995    0.000000
    84  O2    s     0.522004    0.986356    0.238258    0.000000
    85  O2    s     0.016671    0.951511    0.738450    0.000000
    86  O2    s     0.501220    0.985618    0.736791    0.000000
    87  O2    s     0.630561    0.119218    0.087027    0.000000
    88  O2    s     0.890152    0.819217    0.088253    0.000000
    89  O2    s     0.380972    0.068774    0.892057    0.000000
    90  O2    s     0.131500    0.809328    0.870652    0.000000
    91  O3    s     0.427110    0.754214    0.869976    0.000000
    92  O2    s     0.108302    0.145925    0.882818    0.000000
    93  O2    s     0.609621    0.783372    0.087987    0.000000
    94  O2    s     0.912359    0.154396    0.078732    0.000000
    95  O2    s     0.509193    0.988330    0.988173    0.000000
    96  O2    s     0.014602    0.933893    0.991092    0.000000
    97  O3    s     0.147126    0.517969    0.283898    0.000000
    98  O2    s     0.369844    0.457267    0.281840    0.000000
    99  O2    s     0.867211    0.475384    0.677372    0.000000
   100  O2    s     0.653068    0.454299    0.681347    0.000000
   101  O3    s     0.256155    0.254167    0.314048    0.000000
   102  O2    s     0.268441    0.703414    0.292690    0.000000
   103  O2    s     0.765795    0.234015    0.669987    0.000000
   104  O2    s     0.754413    0.696209    0.675467    0.000000
   105  O3    s     0.148516    0.236757    0.111707    0.000000
   106  O3    s     0.370005    0.693422    0.112743    0.000000
   107  O2    s     0.867229    0.240766    0.849958    0.000000
   108  O2    s     0.652079    0.693254    0.856726    0.000000
   109  O2    s     0.854864    0.715909    0.854358    0.000000
   110  O2    s     0.667043    0.216009    0.853194    0.000000
   111  O2    s     0.179055    0.724575    0.100570    0.000000
   112  O2    s     0.345085    0.201482    0.122705    0.000000
   113  O2    s     0.648997    0.453285    0.026963    0.000000
   114  O2    s     0.872073    0.482566    0.024844    0.000000
   115  O3    s     0.379167    0.406507    0.942490    0.000000
   116  O2    s     0.145643    0.477726    0.943119    0.000000
   117  O2    s     0.767584    0.249070    0.032219    0.000000
   118  O2    s     0.753650    0.686047    0.034084    0.000000
   119  O2    s     0.251310    0.246214    0.936956    0.000000
   120  O3    s     0.267036    0.659056    0.908457    0.000000
--------------------------------------------------------------------------------

  Final Cartesian lattice vectors (Angstroms) :

       17.076433    0.105211    0.056656
        0.045986    7.582619   -0.069850
        0.034063   -0.102437   10.281819


  Final cell parameters and derivatives :

--------------------------------------------------------------------------------
       a           17.076851 Angstrom     dE/de1(xx)     0.007176 eV/strain
       b            7.583080 Angstrom     dE/de2(yy)     0.007617 eV/strain
       c           10.282385 Angstrom     dE/de3(zz)     0.009064 eV/strain
       alpha       91.097421 Degrees      dE/de4(yz)    -0.000577 eV/strain
       beta        89.623630 Degrees      dE/de5(xz)    -0.000433 eV/strain
       gamma       89.301306 Degrees      dE/de6(xy)     0.000757 eV/strain
--------------------------------------------------------------------------------

  Primitive cell volume =          1331.144745 Angs**3

  Density of cell =      1.910129 g/cm**3

  Non-primitive cell volume =          1331.144745 Angs**3


  Final internal derivatives :

--------------------------------------------------------------------------------
   No.  Atomic          a             b             c           Radius
        Label          (eV)          (eV)          (eV)        (eV/Angs)
--------------------------------------------------------------------------------
      1 Ge    c       0.000000      0.000000      0.000000      0.000000
      2 Ge    c      -0.002113      0.000153     -0.000076      0.000000
      3 Si    c       0.000557      0.000152     -0.000236      0.000000
      4 Si    c      -0.001972     -0.000142     -0.000193      0.000000
      5 Si    c      -0.000571      0.000080      0.000177      0.000000
      6 Si    c       0.001564     -0.000251      0.000609      0.000000
      7 Si    c       0.000890     -0.000660      0.000544      0.000000
      8 Si    c      -0.000249     -0.000004      0.000074      0.000000
      9 Si    c      -0.001779     -0.000137      0.000600      0.000000
     10 Si    c       0.000501      0.000132      0.000351      0.000000
     11 Si    c       0.000640      0.001620     -0.000788      0.000000
     12 Si    c       0.000350      0.000033     -0.000070      0.000000
     13 Si    c      -0.000214      0.000022      0.000097      0.000000
     14 Si    c      -0.000190     -0.000117      0.000106      0.000000
     15 Si    c      -0.000001      0.000134     -0.000091      0.000000
     16 Si    c       0.000870      0.001546     -0.002654      0.000000
     17 Si    c       0.004584     -0.000833      0.001851      0.000000
     18 Si    c       0.000327      0.000214      0.000074      0.000000
     19 Si    c      -0.000565     -0.000177     -0.000000      0.000000
     20 Si    c      -0.000126     -0.001630     -0.001046      0.000000
     21 Si    c       0.001129     -0.000382      0.000865      0.000000
     22 Si    c       0.001838     -0.000928     -0.003139      0.000000
     23 Si    c      -0.000195      0.000168     -0.000240      0.000000
     24 Si    c       0.000015     -0.000155     -0.000183      0.000000
     25 O3    c       0.000589      0.000237     -0.000178      0.000000
     26 O2    c       0.000317     -0.000237      0.000321      0.000000
     27 O2    c       0.000184     -0.000075     -0.000060      0.000000
     28 O2    c      -0.000216      0.000049     -0.000079      0.000000
     29 O2    c       0.000093      0.000006     -0.000067      0.000000
     30 O2    c       0.000054      0.000114     -0.000047      0.000000
     31 O2    c      -0.000871      0.000476      0.001147      0.000000
     32 O2    c      -0.000602      0.000346     -0.000199      0.000000
     33 O2    c       0.000205     -0.000228      0.000006      0.000000
     34 O2    c      -0.000670      0.000057     -0.000732      0.000000
     35 O2    c      -0.000833     -0.000125     -0.000329      0.000000
     36 O2    c       0.001292      0.000140     -0.000568      0.000000
     37 O2    c      -0.000323     -0.000022     -0.000472      0.000000
     38 O2    c      -0.000186      0.000412     -0.000924      0.000000
     39 O2    c       0.000525      0.000216     -0.000015      0.000000
     40 O2    c       0.000106     -0.000001     -0.000033      0.000000
     41 O2    c      -0.000268      0.000290      0.000140      0.000000
     42 O2    c      -0.000574      0.000209     -0.000314      0.000000
     43 O3    c       0.000174     -0.000134      0.000090      0.000000
     44 O2    c       0.000250      0.000383      0.000336      0.000000
     45 O2    c      -0.000140      0.000015      0.000041      0.000000
     46 O2    c       0.000031      0.000074      0.000052      0.000000
     47 O2    c      -0.000791      0.000337     -0.000736      0.000000
     48 O2    c       0.000590     -0.000032     -0.000212      0.000000
     49 O3    c      -0.005385     -0.001372      0.005860      0.000000
     50 O2    c       0.002113     -0.001276      0.003303      0.000000
     51 O2    c      -0.000128      0.000352      0.000043      0.000000
     52 O2    c       0.000119     -0.000222      0.000031      0.000000
     53 O3    c      -0.005001     -0.003054      0.001750      0.000000
     54 O2    c       0.001707      0.001128      0.000891      0.000000
     55 O2    c      -0.001096     -0.000087      0.000047      0.000000
     56 O2    c       0.000510      0.000001      0.000177      0.000000
     57 O3    c      -0.007088     -0.000751      0.002813      0.000000
     58 O3    c       0.001672      0.000447     -0.001668      0.000000
     59 O2    c       0.000250      0.000039      0.000308      0.000000
     60 O2    c       0.000106     -0.000131     -0.000054      0.000000
     61 O2    c      -0.000092     -0.000155     -0.000149      0.000000
     62 O2    c      -0.000095      0.000085     -0.000122      0.000000
     63 O2    c       0.000383     -0.000149     -0.002167      0.000000
     64 O2    c       0.005000     -0.000360     -0.000778      0.000000
     65 O2    c       0.000477     -0.000520     -0.000030      0.000000
     66 O2    c      -0.000490      0.000643     -0.000076      0.000000
     67 O3    c       0.004236      0.004051     -0.004227      0.000000
     68 O2    c      -0.001199      0.002065     -0.001535      0.000000
     69 O2    c      -0.000925     -0.000076     -0.000154      0.000000
     70 O2    c       0.001607      0.000127     -0.000297      0.000000
     71 O2    c      -0.004532     -0.000569      0.000019      0.000000
     72 O3    c       0.002670      0.000208      0.000452      0.000000
     73 O3    s      -0.000961     -0.000267      0.000391      0.000000
     74 O2    s       0.000450      0.001060      0.000704      0.000000
     75 O2    s      -0.000061     -0.000003      0.000027      0.000000
     76 O2    s       0.000697     -0.000116      0.000257      0.000000
     77 O2    s      -0.000474     -0.000094      0.000208      0.000000
     78 O2    s       0.000949      0.000141      0.000125      0.000000
     79 O2    s       0.000334      0.001297      0.000334      0.000000
     80 O2    s       0.001420     -0.000712      0.000736      0.000000
     81 O2    s      -0.000252      0.000136      0.000300      0.000000
     82 O2    s       0.000506      0.000033      0.000287      0.000000
     83 O2    s      -0.000522      0.000244     -0.000068      0.000000
     84 O2    s      -0.000057      0.000176      0.000028      0.000000
     85 O2    s       0.000015     -0.000058      0.000063      0.000000
     86 O2    s       0.000085     -0.000139      0.000076      0.000000
     87 O2    s       0.000436      0.000332      0.000099      0.000000
     88 O2    s      -0.000517     -0.000239     -0.000094      0.000000
     89 O2    s       0.000322     -0.001149     -0.000921      0.000000
     90 O2    s       0.000267      0.000277     -0.000128      0.000000
     91 O3    s      -0.000522     -0.000103     -0.000318      0.000000
     92 O2    s      -0.000291     -0.000778     -0.000969      0.000000
     93 O2    s       0.000383     -0.000188      0.000087      0.000000
     94 O2    s      -0.000183      0.000108      0.000014      0.000000
     95 O2    s       0.000713      0.000384      0.000362      0.000000
     96 O2    s      -0.000397     -0.000216      0.000059      0.000000
     97 O3    s      -0.000875     -0.000353      0.000328      0.000000
     98 O2    s       0.002441      0.000514      0.002683      0.000000
     99 O2    s      -0.000210      0.000179      0.000043      0.000000
    100 O2    s       0.000440     -0.000092      0.000129      0.000000
    101 O3    s      -0.001012     -0.001024      0.001751      0.000000
    102 O2    s       0.000153      0.002512      0.002745      0.000000
    103 O2    s      -0.000239      0.000056      0.000253      0.000000
    104 O2    s       0.000165     -0.000056      0.000328      0.000000
    105 O3    s      -0.000415     -0.000742     -0.000661      0.000000
    106 O3    s       0.003377      0.000788     -0.001664      0.000000
    107 O2    s      -0.000175     -0.000080      0.000042      0.000000
    108 O2    s       0.000037      0.000069     -0.000121      0.000000
    109 O2    s      -0.000223     -0.000199      0.000176      0.000000
    110 O2    s       0.000189      0.000137      0.000169      0.000000
    111 O2    s      -0.003588      0.001709     -0.002269      0.000000
    112 O2    s       0.004930     -0.001526      0.000727      0.000000
    113 O2    s      -0.000017     -0.000182      0.000032      0.000000
    114 O2    s      -0.000152      0.000105      0.000037      0.000000
    115 O3    s       0.001608     -0.000740     -0.000964      0.000000
    116 O2    s      -0.002293      0.000118     -0.001154      0.000000
    117 O2    s      -0.000207      0.000011     -0.000318      0.000000
    118 O2    s       0.000313     -0.000020     -0.000234      0.000000
    119 O2    s      -0.000571     -0.002215     -0.001287      0.000000
    120 O3    s      -0.001194      0.000755     -0.001665      0.000000
--------------------------------------------------------------------------------
  Maximum abs         0.007088      0.004051      0.005860      0.000000
--------------------------------------------------------------------------------


  Born effective charge tensors : 

-------------------------------------------------------------------------------
  Atom             x           y             z
-------------------------------------------------------------------------------
    1 Ge    x       3.9808      0.2971     -0.0524
            y       0.3809      4.2146     -0.2776
            z      -0.1512     -0.0553      3.4415
-------------------------------------------------------------------------------
    2 Ge    x       4.0600      0.3474     -0.1079
            y       0.3399      4.2106     -0.2767
            z      -0.2193     -0.0258      3.3005
-------------------------------------------------------------------------------
    3 Si    x       3.5954      0.3975     -0.2515
            y      -0.0189      3.4528      0.0728
            z      -0.3964     -0.2101      3.8936
-------------------------------------------------------------------------------
    4 Si    x       3.4780      0.0937      0.2182
            y      -0.0934      3.2050      0.0102
            z       0.4425     -0.0495      3.8231
-------------------------------------------------------------------------------
    5 Si    x       3.4650     -0.0997     -0.1195
            y       0.1059      3.2326     -0.0387
            z      -0.5252      0.0463      3.7666
-------------------------------------------------------------------------------
    6 Si    x       3.4644     -0.0940      0.2105
            y       0.1040      3.2381     -0.0568
            z       0.5207     -0.0135      3.7773
-------------------------------------------------------------------------------
    7 Si    x       3.4633     -0.1257     -0.2416
            y       0.1420      3.2467     -0.0134
            z      -0.4977      0.0472      3.1236
-------------------------------------------------------------------------------
    8 Si    x       3.4636     -0.1236      0.2487
            y       0.1444      3.2529     -0.0277
            z       0.4496      0.0003      3.1478
-------------------------------------------------------------------------------
    9 Si    x       3.5507      0.4173     -0.2185
            y      -0.1111      3.5042      0.0556
            z      -0.5093     -0.1505      3.1497
-------------------------------------------------------------------------------
   10 Si    x       3.4924      0.1358      0.1691
            y      -0.1411      3.2181      0.0203
            z       0.5354      0.0044      3.0818
-------------------------------------------------------------------------------
   11 Si    x       3.3023      0.2699      0.0140
            y       0.2854      3.5197      0.1125
            z       0.0923     -0.0051      3.1296
-------------------------------------------------------------------------------
   12 Si    x       3.1972     -0.2323     -0.0837
            y      -0.2839      3.4416      0.1677
            z      -0.1033      0.0684      2.8062
-------------------------------------------------------------------------------
   13 Si    x       3.2100     -0.2266      0.0724
            y      -0.2850      3.4428     -0.1720
            z       0.1044     -0.0858      2.8177
-------------------------------------------------------------------------------
   14 Si    x       3.2079      0.2827     -0.1298
            y       0.2010      3.4628     -0.1618
            z      -0.1081     -0.0695      2.8069
-------------------------------------------------------------------------------
   15 Si    x       3.2035      0.2825      0.1230
            y       0.2038      3.4650      0.1585
            z       0.1211      0.0589      2.8072
-------------------------------------------------------------------------------
   16 Si    x       3.3067     -0.2713     -0.0769
            y       0.0166      3.7596      0.0417
            z      -0.1726      0.0267      2.8790
-------------------------------------------------------------------------------
   17 Si    x       3.5903     -0.3034      0.0039
            y      -0.1599      3.5160     -0.2055
            z       0.0658     -0.0547      2.8782
-------------------------------------------------------------------------------
   18 Si    x       3.2145      0.3157     -0.1793
            y       0.1149      3.4402     -0.1992
            z      -0.1254     -0.0885      2.7459
-------------------------------------------------------------------------------
   19 Si    x       3.2164      0.3242      0.1762
            y       0.1191      3.4348      0.1815
            z       0.1133      0.0709      2.7327
-------------------------------------------------------------------------------
   20 Si    x       3.3449     -0.3196     -0.1499
            y       0.1110      3.6996      0.0811
            z      -0.1570      0.0185      2.7999
-------------------------------------------------------------------------------
   21 Si    x       3.6251     -0.3873      0.0342
            y      -0.0985      3.4847     -0.2159
            z       0.0869     -0.0556      2.7950
-------------------------------------------------------------------------------
   22 Si    x       3.3588      0.3292      0.1024
            y       0.2502      3.4733      0.1064
            z       0.1292     -0.0372      3.0134
-------------------------------------------------------------------------------
   23 Si    x       3.2416     -0.2482     -0.1434
            y      -0.2372      3.3918      0.1724
            z      -0.1427      0.0479      2.7143
-------------------------------------------------------------------------------
   24 Si    x       3.2529     -0.2408      0.1460
            y      -0.2397      3.3969     -0.1789
            z       0.1689     -0.0721      2.7285
-------------------------------------------------------------------------------
   25 O3    x      -1.9365     -0.8945      0.3691
            y      -0.8528     -2.5380      0.3186
            z       0.4295      0.3400     -1.5468
-------------------------------------------------------------------------------
   26 O2    x      -1.6885     -0.7240     -0.3153
            y      -0.6741     -1.9998     -0.3278
            z      -0.3651     -0.3272     -1.3515
-------------------------------------------------------------------------------
   27 O2    x      -1.6589      0.7049      0.2972
            y       0.6837     -1.9995     -0.3012
            z       0.3568     -0.2991     -1.3483
-------------------------------------------------------------------------------
   28 O2    x      -1.6658      0.7052     -0.3241
            y       0.6871     -2.0051      0.3533
            z      -0.3771      0.3498     -1.3600
-------------------------------------------------------------------------------
   29 O2    x      -1.7551     -0.7164      0.3165
            y      -0.7607     -1.9400      0.3449
            z       0.3680      0.3165     -1.3493
-------------------------------------------------------------------------------
   30 O2    x      -1.7556     -0.7186     -0.3164
            y      -0.7622     -1.9369     -0.3155
            z      -0.3658     -0.3089     -1.3444
-------------------------------------------------------------------------------
   31 O2    x      -1.8614      0.6576      0.3633
            y       0.7241     -1.8621     -0.3609
            z       0.3903     -0.3035     -1.3511
-------------------------------------------------------------------------------
   32 O2    x      -1.7542      0.7165     -0.3181
            y       0.7301     -1.9299      0.3242
            z      -0.3491      0.3123     -1.3651
-------------------------------------------------------------------------------
   33 O2    x      -1.5993     -0.0545      0.7856
            y      -0.0232     -1.1010      0.0605
            z       1.0022      0.1121     -2.7408
-------------------------------------------------------------------------------
   34 O2    x      -1.6545      0.0093     -0.8505
            y       0.0062     -1.0783      0.0187
            z      -1.0818      0.0289     -2.7775
-------------------------------------------------------------------------------
   35 O2    x      -1.6954     -0.0204     -0.7090
            y      -0.0080     -1.1057     -0.0109
            z      -0.7098     -0.0068     -2.2773
-------------------------------------------------------------------------------
   36 O2    x      -1.7202     -0.0042      0.7283
            y      -0.0176     -1.1121      0.0079
            z       0.7338      0.0080     -2.2389
-------------------------------------------------------------------------------
   37 O2    x      -1.7466     -0.0068     -0.7617
            y       0.0096     -1.1132      0.0067
            z      -0.7427     -0.0044     -2.2239
-------------------------------------------------------------------------------
   38 O2    x      -1.6798     -0.0557      0.6857
            y      -0.0119     -1.1319      0.0559
            z       0.6750      0.0828     -2.1955
-------------------------------------------------------------------------------
   39 O2    x      -1.7425     -0.7086      0.3675
            y      -0.6825     -1.9221      0.3922
            z       0.3587      0.3473     -1.2720
-------------------------------------------------------------------------------
   40 O2    x      -1.7416     -0.7107     -0.3521
            y      -0.6778     -1.9180     -0.3652
            z      -0.3352     -0.3358     -1.2641
-------------------------------------------------------------------------------
   41 O2    x      -1.8407      0.6160      0.3442
            y       0.6145     -1.8209     -0.3696
            z       0.3409     -0.2986     -1.2563
-------------------------------------------------------------------------------
   42 O2    x      -1.7544      0.7098     -0.2938
            y       0.6612     -1.9064      0.3286
            z      -0.3189      0.3060     -1.2546
-------------------------------------------------------------------------------
   43 O3    x      -1.9145     -0.8663      0.3778
            y      -0.7197     -2.5883      0.3541
            z       0.4316      0.3622     -1.3832
-------------------------------------------------------------------------------
   44 O2    x      -1.6638     -0.7057     -0.3208
            y      -0.5853     -2.0112     -0.3435
            z      -0.3511     -0.3276     -1.2324
-------------------------------------------------------------------------------
   45 O2    x      -1.6430      0.6807      0.3429
            y       0.5939     -1.9982     -0.3531
            z       0.3530     -0.3315     -1.2519
-------------------------------------------------------------------------------
   46 O2    x      -1.6555      0.6829     -0.3732
            y       0.6002     -2.0061      0.3996
            z      -0.3787      0.3721     -1.2624
-------------------------------------------------------------------------------
   47 O2    x      -1.7848     -0.0215     -0.5953
            y       0.0097     -1.1814     -0.0325
            z      -0.3347     -0.0285     -1.7263
-------------------------------------------------------------------------------
   48 O2    x      -1.8135      0.0137      0.6152
            y       0.0107     -1.1825      0.0031
            z       0.3411      0.0023     -1.7017
-------------------------------------------------------------------------------
   49 O3    x      -1.3795     -0.1858      0.0874
            y      -0.2699     -3.1557      0.1777
            z       0.1244      0.1294     -1.2077
-------------------------------------------------------------------------------
   50 O2    x      -1.1883     -0.0431     -0.0422
            y      -0.0947     -2.5896      0.0390
            z      -0.0649      0.0390     -1.0681
-------------------------------------------------------------------------------
   51 O2    x      -1.1554      0.0315      0.0636
            y       0.0756     -2.5642     -0.0090
            z       0.0736      0.0062     -1.0672
-------------------------------------------------------------------------------
   52 O2    x      -1.1586      0.0388     -0.0588
            y       0.0792     -2.5719      0.0007
            z      -0.0729     -0.0044     -1.0652
-------------------------------------------------------------------------------
   53 O3    x      -3.0361      0.1198      0.0835
            y       0.0445     -1.3733      0.0911
            z       0.1126      0.0396     -1.2571
-------------------------------------------------------------------------------
   54 O2    x      -2.4155      0.1565     -0.0702
            y       0.0845     -1.2600     -0.0509
            z      -0.0540     -0.0275     -1.0982
-------------------------------------------------------------------------------
   55 O2    x      -2.3926     -0.0665      0.0087
            y      -0.0328     -1.2474     -0.0672
            z       0.0119     -0.0435     -1.0707
-------------------------------------------------------------------------------
   56 O2    x      -2.4055     -0.0651      0.0090
            y      -0.0307     -1.2516      0.0682
            z      -0.0069      0.0476     -1.0641
-------------------------------------------------------------------------------
   57 O3    x      -1.3606     -0.1708      0.0276
            y      -0.1483     -1.4509      0.0528
            z      -0.0030      0.0194     -2.6019
-------------------------------------------------------------------------------
   58 O3    x      -1.3526     -0.1561      0.1085
            y      -0.1404     -1.4550      0.0215
            z       0.0925     -0.0316     -2.6202
-------------------------------------------------------------------------------
   59 O2    x      -1.1929      0.1238     -0.0301
            y       0.1202     -1.2752     -0.0046
            z      -0.0407     -0.0120     -2.0638
-------------------------------------------------------------------------------
   60 O2    x      -1.2081      0.1321      0.0242
            y       0.1293     -1.2774      0.0140
            z       0.0325      0.0204     -2.0579
-------------------------------------------------------------------------------
   61 O2    x      -1.1791     -0.1306     -0.0260
            y      -0.0951     -1.2878      0.0174
            z      -0.0171      0.0006     -2.0602
-------------------------------------------------------------------------------
   62 O2    x      -1.1717     -0.1264      0.0115
            y      -0.0908     -1.2913     -0.0047
            z       0.0016      0.0112     -2.0667
-------------------------------------------------------------------------------
   63 O2    x      -1.2017      0.1126     -0.0665
            y       0.0446     -1.2983     -0.0854
            z      -0.0503     -0.0819     -2.0868
-------------------------------------------------------------------------------
   64 O2    x      -1.2017      0.1197     -0.0344
            y       0.0527     -1.2993     -0.0564
            z      -0.0423     -0.0858     -2.0835
-------------------------------------------------------------------------------
   65 O2    x      -1.2235      0.0451      0.0865
            y       0.0975     -2.5001      0.0062
            z       0.0972      0.0028     -1.0177
-------------------------------------------------------------------------------
   66 O2    x      -1.2242      0.0436     -0.0869
            y       0.0917     -2.4996     -0.0054
            z      -0.0985      0.0083     -1.0185
-------------------------------------------------------------------------------
   67 O3    x      -1.4914     -0.2090      0.1192
            y      -0.3006     -3.0609      0.1531
            z       0.1590      0.1305     -1.1457
-------------------------------------------------------------------------------
   68 O2    x      -1.2707     -0.0566     -0.0668
            y      -0.1291     -2.4926      0.0529
            z      -0.0955      0.0302     -1.0137
-------------------------------------------------------------------------------
   69 O2    x      -2.4158     -0.0841      0.0068
            y      -0.0461     -1.2405      0.0679
            z       0.0012      0.0397     -1.0400
-------------------------------------------------------------------------------
   70 O2    x      -2.4163     -0.0851      0.0048
            y      -0.0449     -1.2376     -0.0620
            z       0.0056     -0.0317     -1.0334
-------------------------------------------------------------------------------
   71 O2    x      -2.4475      0.1841     -0.0618
            y       0.1021     -1.2644     -0.0386
            z      -0.0489     -0.0101     -1.0492
-------------------------------------------------------------------------------
   72 O3    x      -3.0699      0.1620      0.0750
            y       0.0959     -1.3712      0.0771
            z       0.0901      0.0188     -1.2270
-------------------------------------------------------------------------------




  Elastic Constant Matrix: (Units=GPa)

-------------------------------------------------------------------------------
  Indices      1         2         3         4         5         6    
-------------------------------------------------------------------------------
       1     56.1899   27.1999   28.9148   -2.4140    7.1157    1.6597
       2     27.1999   73.5974   19.7203   -1.8534    6.9663    2.5439
       3     28.9148   19.7203   54.2311   -2.5575    5.3483    2.7045
       4     -2.4140   -1.8534   -2.5575   12.5526    1.2174    0.2010
       5      7.1157    6.9663    5.3483    1.2174   24.7665   -3.1739
       6      1.6597    2.5439    2.7045    0.2010   -3.1739   26.4198
-------------------------------------------------------------------------------


  Elastic Compliance Matrix: (Units=1/GPa)

-------------------------------------------------------------------------------
  Indices      1         2         3         4         5         6    
-------------------------------------------------------------------------------
       1    0.027688 -0.006636 -0.011861  0.002291 -0.003684 -0.000346
       2   -0.006636  0.016963 -0.002260  0.001040 -0.002595 -0.001305
       3   -0.011861 -0.002260  0.026014  0.002908 -0.001968 -0.001959
       4    0.002291  0.001040  0.002908  0.081446 -0.005821 -0.001861
       5   -0.003684 -0.002595 -0.001968 -0.005821  0.043642  0.005970
       6   -0.000346 -0.001305 -0.001959 -0.001861  0.005970  0.038930
-------------------------------------------------------------------------------

  Mechanical properties :

-------------------------------------------------------------------------------
  Convention :                    Reuss         Voigt         Hill
-------------------------------------------------------------------------------
  Bulk  Modulus (GPa)     =      34.30432      37.29871      35.80151
  Shear Modulus (GPa)     =      17.48789      19.96001      18.72395
-------------------------------------------------------------------------------
  Velocity S-wave (km/s)  =       3.02578       3.23258       3.13089
  Velocity P-wave (km/s)  =       5.49239       5.78442       5.64029
-------------------------------------------------------------------------------
  Compressibility (1/GPa) =    0.02915085
-------------------------------------------------------------------------------
  Stress axis :                     x             y             z
-------------------------------------------------------------------------------
  Youngs Moduli (GPa)     =      36.11693      58.95354      38.44067
-------------------------------------------------------------------------------
  Poissons Ratio (x)      =                     0.39124       0.45593
  Poissons Ratio (y)      =       0.23969                     0.08687
  Poissons Ratio (z)      =       0.42837       0.13322
-------------------------------------------------------------------------------


  Piezoelectric Strain Matrix: (Units=C/m**2)

-------------------------------------------------------------------------------
  Indices      1         2         3         4         5         6    
-------------------------------------------------------------------------------
       x     0.05329  -0.07823   0.03678   0.05742  -0.18202  -0.23983
       y     0.10567  -0.20503   0.21650   0.16197  -0.23181  -0.04752
       z     0.04244  -0.40195   1.56475  -0.26194   0.25238   0.18873
-------------------------------------------------------------------------------


  Piezoelectric Stress Matrix: (Units=10**-11 C/N)

-------------------------------------------------------------------------------
  Indices      1         2         3         4         5         6    
-------------------------------------------------------------------------------
       x     0.24436  -0.09189   0.14966   0.63298  -0.97752  -1.05182
       y     0.29601  -0.38364   0.58625   1.52881  -1.16266  -0.37285
       z    -1.63117  -1.18094   3.94825  -1.89250   1.14721   0.67858
-------------------------------------------------------------------------------


  Static dielectric constant tensor : 

-------------------------------------------------------------------------------
              x         y         z
-------------------------------------------------------------------------------
       x     3.82421   0.07924  -0.06913
       y     0.07924   4.00009  -0.04208
       z    -0.06913  -0.04208   3.23961
--------------------------------------------------------------------------------

  High frequency dielectric constant tensor : 

-------------------------------------------------------------------------------
              x         y         z
-------------------------------------------------------------------------------
       x     1.68910   0.00069   0.00132
       y     0.00069   1.69561  -0.00198
       z     0.00132  -0.00198   1.62910
-------------------------------------------------------------------------------

  Static refractive indices : 

-------------------------------------------------------------------------------
    1 =    1.79726      2 =    1.94885      3 =    2.00892
-------------------------------------------------------------------------------

  High frequency refractive indices : 

-------------------------------------------------------------------------------
    1 =    1.27633      2 =    1.29964      3 =    1.30220
-------------------------------------------------------------------------------


  Time to end of optimisation =       7.7671 seconds


  Peak dynamic memory used =       5.01 MB 


  Timing analysis for GULP :

--------------------------------------------------------------------------------
  Task / Subroutine                                          Time (Seconds)
--------------------------------------------------------------------------------
  Calculation of reciprocal space energy and derivatives          0.5112
  Calculation of real space energy and derivatives                4.8973
  Calculation of three-body energy and derivatives                0.5612
  Calculation and manipulation of Hessian matrix                  2.3228
  Calculation of matrix inversion                                 0.0231
--------------------------------------------------------------------------------
  Total CPU time                                                  7.7672
--------------------------------------------------------------------------------


  Dump file written as c00038.vasp.grs
  CIF file written as c00038.vasp.cif


  Job Finished at 10:52.49  7th October    2025                               

