********************************************************************************
*                       GENERAL UTILITY LATTICE PROGRAM                        *
*                                 Julian Gale                                  *
*                       Curtin Institute for Computation                       *
*                    School of Molecular and Life Sciences                     *
*                    Curtin University, Western Australia                      *
********************************************************************************
* Version = 6.1.2 * Last modified =   3rd November 2022                        *
********************************************************************************
*  optimise     - perform optimisation run                                     *
*  conp         - constant pressure calculation                                *
*  property     - calculate properties for final geometry                      *
********************************************************************************

  Job Started  at 10:50.59  7th October    2025                               

  Number of CPUs =     1


  Total number of configurations input =      1

********************************************************************************
*  Input for Configuration =   1 : c00027.vasp                                 *
********************************************************************************

  Formula = Ge2Si22O48                                                  

  Number of irreducible atoms/shells =     120


  Total number atoms/shells =     120

  Dimensionality = 3               :  Bulk   



  Cartesian lattice vectors (Angstroms) :

       17.182800    0.000000    0.000000
        0.000000    7.513760    0.000000
        0.000000    0.000000   10.447700

  Cell parameters (Angstroms/Degrees):

  a =      17.1828    alpha =  90.0000
  b =       7.5138    beta  =  90.0000
  c =      10.4477    gamma =  90.0000

  Initial cell volume =        1348.875752 Angs**3

  Temperature of configuration =   0.00     K 

  Pressure of configuration =         0.000 GPa 

  Fractional coordinates of asymmetric unit :

--------------------------------------------------------------------------------
   No.  Atomic       x           y          z         Charge      Occupancy
        Label      (Frac)      (Frac)     (Frac)        (e)         (Frac)  
--------------------------------------------------------------------------------
      1 Ge    c    0.160190    0.293910    0.273440     4.00000    1.000000    
      2 Ge    c    0.339810 *  0.706090 *  0.273440 *   4.00000    1.000000    
      3 Si    c    0.052090 *  0.000000 *  0.372270 *   4.00000    1.000000    
      4 Si    c    0.447910 *  0.000000 *  0.372270 *   4.00000    1.000000    
      5 Si    c    0.947910 *  0.000000 *  0.627730 *   4.00000    1.000000    
      6 Si    c    0.552090 *  0.000000 *  0.627730 *   4.00000    1.000000    
      7 Si    c    0.556730 *  0.000000 *  0.122130 *   4.00000    1.000000    
      8 Si    c    0.943270 *  0.000000 *  0.122130 *   4.00000    1.000000    
      9 Si    c    0.443270 *  0.000000 *  0.877870 *   4.00000    1.000000    
     10 Si    c    0.056730 *  0.000000 *  0.877870 *   4.00000    1.000000    
     11 Si    c    0.839810 *  0.293910 *  0.726560 *   4.00000    1.000000    
     12 Si    c    0.660190 *  0.706090 *  0.726560 *   4.00000    1.000000    
     13 Si    c    0.839810 *  0.706090 *  0.726560 *   4.00000    1.000000    
     14 Si    c    0.660190 *  0.293910 *  0.726560 *   4.00000    1.000000    
     15 Si    c    0.160190 *  0.706090 *  0.273440 *   4.00000    1.000000    
     16 Si    c    0.339810 *  0.293910 *  0.273440 *   4.00000    1.000000    
     17 Si    c    0.660660 *  0.294090 *  0.017440 *   4.00000    1.000000    
     18 Si    c    0.839340 *  0.705910 *  0.017440 *   4.00000    1.000000    
     19 Si    c    0.339340 *  0.294090 *  0.982560 *   4.00000    1.000000    
     20 Si    c    0.160660 *  0.705910 *  0.982560 *   4.00000    1.000000    
     21 Si    c    0.339340 *  0.705910 *  0.982560 *   4.00000    1.000000    
     22 Si    c    0.160660 *  0.294090 *  0.982560 *   4.00000    1.000000    
     23 Si    c    0.660660 *  0.705910 *  0.017440 *   4.00000    1.000000    
     24 Si    c    0.839340 *  0.294090 *  0.017440 *   4.00000    1.000000    
     25 O3    c    0.106570 *  0.174340 *  0.366200 *   1.33043    1.000000    
     26 O3    c    0.393430 *  0.825660 *  0.366200 *   1.33043    1.000000    
     27 O2    c    0.893430 *  0.174340 *  0.633800 *   0.87073    1.000000    
     28 O2    c    0.606570 *  0.825660 *  0.633800 *   0.87073    1.000000    
     29 O2    c    0.893430 *  0.825660 *  0.633800 *   0.87073    1.000000    
     30 O2    c    0.606570 *  0.174340 *  0.633800 *   0.87073    1.000000    
     31 O2    c    0.106570 *  0.825660 *  0.366200 *   0.87073    1.000000    
     32 O2    c    0.393430 *  0.174340 *  0.366200 *   0.87073    1.000000    
     33 O2    c    0.000000 *  0.000000 *  0.500000 *   0.87073    1.000000    
     34 O2    c    0.500000 *  0.000000 *  0.500000 *   0.87073    1.000000    
     35 O2    c    0.994520 *  0.000000 *  0.250840 *   0.87073    1.000000    
     36 O2    c    0.505480 *  0.000000 *  0.250840 *   0.87073    1.000000    
     37 O2    c    0.005480 *  0.000000 *  0.749160 *   0.87073    1.000000    
     38 O2    c    0.494520 *  0.000000 *  0.749160 *   0.87073    1.000000    
     39 O2    c    0.610230 *  0.175520 *  0.115390 *   0.87073    1.000000    
     40 O2    c    0.889770 *  0.824480 *  0.115390 *   0.87073    1.000000    
     41 O2    c    0.389770 *  0.175520 *  0.884610 *   0.87073    1.000000    
     42 O2    c    0.110230 *  0.824480 *  0.884610 *   0.87073    1.000000    
     43 O2    c    0.389770 *  0.824480 *  0.884610 *   0.87073    1.000000    
     44 O2    c    0.110230 *  0.175520 *  0.884610 *   0.87073    1.000000    
     45 O2    c    0.610230 *  0.824480 *  0.115390 *   0.87073    1.000000    
     46 O2    c    0.889770 *  0.175520 *  0.115390 *   0.87073    1.000000    
     47 O2    c    0.500000 *  0.000000 *  0.000000 *   0.87073    1.000000    
     48 O2    c    0.000000 *  0.000000 *  0.000000 *   0.87073    1.000000    
     49 O3    c    0.151750 *  0.500000 *  0.313330 *   1.33043    1.000000    
     50 O3    c    0.348250 *  0.500000 *  0.313330 *   1.33043    1.000000    
     51 O2    c    0.848250 *  0.500000 *  0.686670 *   0.87073    1.000000    
     52 O2    c    0.651750 *  0.500000 *  0.686670 *   0.87073    1.000000    
     53 O3    c    0.250000 *  0.234950 *  0.285720 *   1.33043    1.000000    
     54 O3    c    0.250000 *  0.765050 *  0.285720 *   1.33043    1.000000    
     55 O2    c    0.750000 *  0.234950 *  0.714280 *   0.87073    1.000000    
     56 O2    c    0.750000 *  0.765050 *  0.714280 *   0.87073    1.000000    
     57 O3    c    0.131410 *  0.268650 *  0.127790 *   1.33043    1.000000    
     58 O3    c    0.368590 *  0.731350 *  0.127790 *   1.33043    1.000000    
     59 O2    c    0.868590 *  0.268650 *  0.872210 *   0.87073    1.000000    
     60 O2    c    0.631410 *  0.731350 *  0.872210 *   0.87073    1.000000    
     61 O2    c    0.868590 *  0.731350 *  0.872210 *   0.87073    1.000000    
     62 O2    c    0.631410 *  0.268650 *  0.872210 *   0.87073    1.000000    
     63 O2    c    0.131410 *  0.731350 *  0.127790 *   0.87073    1.000000    
     64 O2    c    0.368590 *  0.268650 *  0.127790 *   0.87073    1.000000    
     65 O2    c    0.653920 *  0.500000 *  0.058200 *   0.87073    1.000000    
     66 O2    c    0.846080 *  0.500000 *  0.058200 *   0.87073    1.000000    
     67 O2    c    0.346080 *  0.500000 *  0.941800 *   0.87073    1.000000    
     68 O2    c    0.153920 *  0.500000 *  0.941800 *   0.87073    1.000000    
     69 O2    c    0.750000 *  0.231060 *  0.027050 *   0.87073    1.000000    
     70 O2    c    0.750000 *  0.768940 *  0.027050 *   0.87073    1.000000    
     71 O2    c    0.250000 *  0.231060 *  0.972950 *   0.87073    1.000000    
     72 O2    c    0.250000 *  0.768940 *  0.972950 *   0.87073    1.000000    
     73 O3    s    0.106570 *  0.174340 *  0.366200 *  -3.33043    1.000000    
     74 O3    s    0.393430 *  0.825660 *  0.366200 *  -3.33043    1.000000    
     75 O2    s    0.893430 *  0.174340 *  0.633800 *  -2.87073    1.000000    
     76 O2    s    0.606570 *  0.825660 *  0.633800 *  -2.87073    1.000000    
     77 O2    s    0.893430 *  0.825660 *  0.633800 *  -2.87073    1.000000    
     78 O2    s    0.606570 *  0.174340 *  0.633800 *  -2.87073    1.000000    
     79 O2    s    0.106570 *  0.825660 *  0.366200 *  -2.87073    1.000000    
     80 O2    s    0.393430 *  0.174340 *  0.366200 *  -2.87073    1.000000    
     81 O2    s    0.000000 *  0.000000 *  0.500000 *  -2.87073    1.000000    
     82 O2    s    0.500000 *  0.000000 *  0.500000 *  -2.87073    1.000000    
     83 O2    s    0.994520 *  0.000000 *  0.250840 *  -2.87073    1.000000    
     84 O2    s    0.505480 *  0.000000 *  0.250840 *  -2.87073    1.000000    
     85 O2    s    0.005480 *  0.000000 *  0.749160 *  -2.87073    1.000000    
     86 O2    s    0.494520 *  0.000000 *  0.749160 *  -2.87073    1.000000    
     87 O2    s    0.610230 *  0.175520 *  0.115390 *  -2.87073    1.000000    
     88 O2    s    0.889770 *  0.824480 *  0.115390 *  -2.87073    1.000000    
     89 O2    s    0.389770 *  0.175520 *  0.884610 *  -2.87073    1.000000    
     90 O2    s    0.110230 *  0.824480 *  0.884610 *  -2.87073    1.000000    
     91 O2    s    0.389770 *  0.824480 *  0.884610 *  -2.87073    1.000000    
     92 O2    s    0.110230 *  0.175520 *  0.884610 *  -2.87073    1.000000    
     93 O2    s    0.610230 *  0.824480 *  0.115390 *  -2.87073    1.000000    
     94 O2    s    0.889770 *  0.175520 *  0.115390 *  -2.87073    1.000000    
     95 O2    s    0.500000 *  0.000000 *  0.000000 *  -2.87073    1.000000    
     96 O2    s    0.000000 *  0.000000 *  0.000000 *  -2.87073    1.000000    
     97 O3    s    0.151750 *  0.500000 *  0.313330 *  -3.33043    1.000000    
     98 O3    s    0.348250 *  0.500000 *  0.313330 *  -3.33043    1.000000    
     99 O2    s    0.848250 *  0.500000 *  0.686670 *  -2.87073    1.000000    
    100 O2    s    0.651750 *  0.500000 *  0.686670 *  -2.87073    1.000000    
    101 O3    s    0.250000 *  0.234950 *  0.285720 *  -3.33043    1.000000    
    102 O3    s    0.250000 *  0.765050 *  0.285720 *  -3.33043    1.000000    
    103 O2    s    0.750000 *  0.234950 *  0.714280 *  -2.87073    1.000000    
    104 O2    s    0.750000 *  0.765050 *  0.714280 *  -2.87073    1.000000    
    105 O3    s    0.131410 *  0.268650 *  0.127790 *  -3.33043    1.000000    
    106 O3    s    0.368590 *  0.731350 *  0.127790 *  -3.33043    1.000000    
    107 O2    s    0.868590 *  0.268650 *  0.872210 *  -2.87073    1.000000    
    108 O2    s    0.631410 *  0.731350 *  0.872210 *  -2.87073    1.000000    
    109 O2    s    0.868590 *  0.731350 *  0.872210 *  -2.87073    1.000000    
    110 O2    s    0.631410 *  0.268650 *  0.872210 *  -2.87073    1.000000    
    111 O2    s    0.131410 *  0.731350 *  0.127790 *  -2.87073    1.000000    
    112 O2    s    0.368590 *  0.268650 *  0.127790 *  -2.87073    1.000000    
    113 O2    s    0.653920 *  0.500000 *  0.058200 *  -2.87073    1.000000    
    114 O2    s    0.846080 *  0.500000 *  0.058200 *  -2.87073    1.000000    
    115 O2    s    0.346080 *  0.500000 *  0.941800 *  -2.87073    1.000000    
    116 O2    s    0.153920 *  0.500000 *  0.941800 *  -2.87073    1.000000    
    117 O2    s    0.750000 *  0.231060 *  0.027050 *  -2.87073    1.000000    
    118 O2    s    0.750000 *  0.768940 *  0.027050 *  -2.87073    1.000000    
    119 O2    s    0.250000 *  0.231060 *  0.972950 *  -2.87073    1.000000    
    120 O2    s    0.250000 *  0.768940 *  0.972950 *  -2.87073    1.000000    
--------------------------------------------------------------------------------



********************************************************************************
*  General input information                                                   *
********************************************************************************

  Species output for all configurations : 

--------------------------------------------------------------------------------
  Species    Type    Atomic    Atomic    Charge       Radii (Angs)     Library
                     Number     Mass       (e)     Cova   Ionic  VDW   Symbol
--------------------------------------------------------------------------------
    Ge       Core       32      72.61   4.000000   1.170  0.000  1.750 Ge       
    Si       Core       14      28.09   4.000000   1.200  0.000  2.100 Si       
    O1       Core        8      16.00   1.733957   0.730  0.000  0.000 O1       
    O2       Core        8      16.00   0.870733   0.730  0.000  1.360 O2       
    O3       Core        8      16.00   1.330431   0.730  0.000  1.360 O3       
    O1       Shell       8       0.00  -3.733957   0.730  0.000  0.000 O1       
    O2       Shell       8       0.00  -2.870733   0.730  0.000  0.000 O2       
    O3       Shell       8       0.00  -3.330431   0.730  0.000  0.000 O3       
--------------------------------------------------------------------------------


  Lattice summation method               =    Ewald          (3-D)
                                         =    Parry          (2-D)
                                         =    Saunders et al (1-D)
  Accuracy factor for lattice sums       =   12.000


  Analytic derivatives to be used

  Time limit = Infinity

  Maximum range for interatomic potentials =    100000.000000 Angstroms

  General interatomic potentials :

--------------------------------------------------------------------------------
Atom  Types   Potential      Parameter       Value         Units   Cutoffs(Ang)
  1     2                                                            Min /  Max 
--------------------------------------------------------------------------------
Si   c O1   s Buckingham    Buckingham A     1315.2478    eV        0.000 16.000
                            Buckingham rho  0.31775900    Ang       
                            Buckingham C     10.141118    eV*Ang^6  
--------------------------------------------------------------------------------
Si   c O2   s Buckingham    Buckingham A     1315.2478    eV        0.000 16.000
                            Buckingham rho  0.31775900    Ang       
                            Buckingham C     10.141118    eV*Ang^6  
--------------------------------------------------------------------------------
Si   c O3   s Buckingham    Buckingham A     1315.2478    eV        0.000 16.000
                            Buckingham rho  0.31775900    Ang       
                            Buckingham C     10.141118    eV*Ang^6  
--------------------------------------------------------------------------------
Ge   c O1   s Buckingham    Buckingham A     1497.3996    eV        0.000 16.000
                            Buckingham rho  0.32564600    Ang       
                            Buckingham C     16.808599    eV*Ang^6  
--------------------------------------------------------------------------------
Ge   c O2   s Buckingham    Buckingham A     1497.3996    eV        0.000 16.000
                            Buckingham rho  0.32564600    Ang       
                            Buckingham C     16.808599    eV*Ang^6  
--------------------------------------------------------------------------------
Ge   c O3   s Buckingham    Buckingham A     1497.3996    eV        0.000 16.000
                            Buckingham rho  0.32564600    Ang       
                            Buckingham C     16.808599    eV*Ang^6  
--------------------------------------------------------------------------------
O1   s O1   s Buckingham    Buckingham A     22764.000    eV        0.000 16.000
                            Buckingham rho  0.14900000    Ang       
                            Buckingham C     10.937044    eV*Ang^6  
--------------------------------------------------------------------------------
O1   s O2   s Buckingham    Buckingham A     22764.000    eV        0.000 16.000
                            Buckingham rho  0.14900000    Ang       
                            Buckingham C     10.937044    eV*Ang^6  
--------------------------------------------------------------------------------
O1   s O3   s Buckingham    Buckingham A     22764.000    eV        0.000 16.000
                            Buckingham rho  0.14900000    Ang       
                            Buckingham C     10.937044    eV*Ang^6  
--------------------------------------------------------------------------------
O2   s O2   s Buckingham    Buckingham A     22764.000    eV        0.000 16.000
                            Buckingham rho  0.14900000    Ang       
                            Buckingham C     10.937044    eV*Ang^6  
--------------------------------------------------------------------------------
O2   s O3   s Buckingham    Buckingham A     22764.000    eV        0.000 16.000
                            Buckingham rho  0.14900000    Ang       
                            Buckingham C     10.937044    eV*Ang^6  
--------------------------------------------------------------------------------
O3   s O3   s Buckingham    Buckingham A     22764.000    eV        0.000 16.000
                            Buckingham rho  0.14900000    Ang       
                            Buckingham C     10.937044    eV*Ang^6  
--------------------------------------------------------------------------------
O1   c O1   s Spring (c-s)  Spring k 2       180.31577    eV*Ang^-2 0.000  0.800
                            Spring k 4       0.0000000    eV*Ang^-4 
--------------------------------------------------------------------------------
O2   c O2   s Spring (c-s)  Spring k 2       75.969800    eV*Ang^-2 0.000  0.800
                            Spring k 4       0.0000000    eV*Ang^-4 
--------------------------------------------------------------------------------
O3   c O3   s Spring (c-s)  Spring k 2       128.14270    eV*Ang^-2 0.000  0.800
                            Spring k 4       0.0000000    eV*Ang^-4 
--------------------------------------------------------------------------------

  General Three-body potentials :

--------------------------------------------------------------------------------
  Atoms       Potential      Parameter       Value         Units   Cutoffs(Ang)
  1 / 2 / 3                                                          Min /  Max 
--------------------------------------------------------------------------------
Si    core    Harmonic      Three-body cnst  1.2614000    eV*rad^-2 0.000  1.900
O1    shel                  Three-body angl  109.47000    degrees   0.000  1.900
O1    shel                  Three-body k4    0.0000000    eV*rad^-4 0.000  3.500
                            Three-body k3    0.0000000    eV*rad^-3 
--------------------------------------------------------------------------------
Si    core    Harmonic      Three-body cnst  1.2614000    eV*rad^-2 0.000  1.900
O1    shel                  Three-body angl  109.47000    degrees   0.000  1.900
õ(1   shel                  Three-body k4    0.0000000    eV*rad^-4 0.000  3.500
                            Three-body k3    0.0000000    eV*rad^-3 
--------------------------------------------------------------------------------
Si    core    Harmonic      Three-body cnst  1.2614000    eV*rad^-2 0.000  1.900
õ(1   shel                  Three-body angl  109.47000    degrees   0.000  1.900
õ(1   shel                  Three-body k4    0.0000000    eV*rad^-4 0.000  3.500
                            Three-body k3    0.0000000    eV*rad^-3 
--------------------------------------------------------------------------------
Si    core    Harmonic      Three-body cnst  1.2614000    eV*rad^-2 0.000  1.900
O1    shel                  Three-body angl  109.47000    degrees   0.000  1.900
O2    shel                  Three-body k4    0.0000000    eV*rad^-4 0.000  3.500
                            Three-body k3    0.0000000    eV*rad^-3 
--------------------------------------------------------------------------------
Si    core    Harmonic      Three-body cnst  1.2614000    eV*rad^-2 0.000  1.900
O1    shel                  Three-body angl  109.47000    degrees   0.000  1.900
õ(2   shel                  Three-body k4    0.0000000    eV*rad^-4 0.000  3.500
                            Three-body k3    0.0000000    eV*rad^-3 
--------------------------------------------------------------------------------
Si    core    Harmonic      Three-body cnst  1.2614000    eV*rad^-2 0.000  1.900
O2    shel                  Three-body angl  109.47000    degrees   0.000  1.900
õ(1   shel                  Three-body k4    0.0000000    eV*rad^-4 0.000  3.500
                            Three-body k3    0.0000000    eV*rad^-3 
--------------------------------------------------------------------------------
Si    core    Harmonic      Three-body cnst  1.2614000    eV*rad^-2 0.000  1.900
õ(1   shel                  Three-body angl  109.47000    degrees   0.000  1.900
õ(2   shel                  Three-body k4    0.0000000    eV*rad^-4 0.000  3.500
                            Three-body k3    0.0000000    eV*rad^-3 
--------------------------------------------------------------------------------
Si    core    Harmonic      Three-body cnst  1.2614000    eV*rad^-2 0.000  1.900
O2    shel                  Three-body angl  109.47000    degrees   0.000  1.900
O2    shel                  Three-body k4    0.0000000    eV*rad^-4 0.000  3.500
                            Three-body k3    0.0000000    eV*rad^-3 
--------------------------------------------------------------------------------
Si    core    Harmonic      Three-body cnst  1.2614000    eV*rad^-2 0.000  1.900
O2    shel                  Three-body angl  109.47000    degrees   0.000  1.900
õ(2   shel                  Three-body k4    0.0000000    eV*rad^-4 0.000  3.500
                            Three-body k3    0.0000000    eV*rad^-3 
--------------------------------------------------------------------------------
Si    core    Harmonic      Three-body cnst  1.2614000    eV*rad^-2 0.000  1.900
õ(2   shel                  Three-body angl  109.47000    degrees   0.000  1.900
õ(2   shel                  Three-body k4    0.0000000    eV*rad^-4 0.000  3.500
                            Three-body k3    0.0000000    eV*rad^-3 
--------------------------------------------------------------------------------

********************************************************************************
*  Output for configuration   1 : c00027.vasp                                  *
********************************************************************************


  Components of energy : 

--------------------------------------------------------------------------------
  Interatomic potentials     =         752.27043345 eV    
  Three-body potentials      =           0.01759412 eV    
  Monopole - monopole (real) =       -2676.00317478 eV    
  Monopole - monopole (recip)=       -1115.35404472 eV    
  Monopole - monopole (total)=       -3791.35721950 eV    
--------------------------------------------------------------------------------
  Total lattice energy       =       -3039.06919193 eV    
--------------------------------------------------------------------------------
  Total lattice energy       =         -293223.7206 kJ/(mole unit cells)
--------------------------------------------------------------------------------


  Number of variables =      363

  Maximum number of calculations  =          1000
  Maximum Hessian update interval =            10
  Maximum step size               =   0.100000000
  Maximum parameter tolerance     =   0.000010000
  Maximum function  tolerance     =   0.000010000
  Maximum gradient  tolerance     =   0.001000000
  Maximum gradient  component     =   0.010000000

  Symmetry not applied to optimisation

  Cell parameters to be optimised using strains

  Newton-Raphson optimiser to be used

  BFGS hessian update to be used

  Lower half triangular hessian to be used

  Minimiser to switch to RFO
  When gradient norm is less than     0.050000

  Dumpfile to be written after every cycle

  Start of bulk optimisation :

  Cycle:      0 Energy:     -3039.069192  Gnorm:      4.333656  CPU:    0.102
  ** Hessian calculated **
  Cycle:      1 Energy:     -3055.292249  Gnorm:      3.212817  CPU:    0.282
  ** Hessian calculated **
  Cycle:      2 Energy:     -3065.160425  Gnorm:      2.241080  CPU:    0.557
  ** Hessian calculated **
  Cycle:      3 Energy:     -3073.214318  Gnorm:      0.486847  CPU:    0.760
  Cycle:      4 Energy:     -3073.918648  Gnorm:      0.237252  CPU:    0.866
  Cycle:      5 Energy:     -3074.121618  Gnorm:      0.165346  CPU:    0.990
  Cycle:      6 Energy:     -3074.261985  Gnorm:      0.132287  CPU:    1.094
  Cycle:      7 Energy:     -3074.394482  Gnorm:      0.105484  CPU:    1.217
  Cycle:      8 Energy:     -3074.471240  Gnorm:      0.086946  CPU:    1.321
  Cycle:      9 Energy:     -3074.530892  Gnorm:      0.062623  CPU:    1.444
  Cycle:     10 Energy:     -3074.559598  Gnorm:      0.050191  CPU:    1.547
  Cycle:     11 Energy:     -3074.578793  Gnorm:      0.037939  CPU:    1.651
  ** Hessian has required structure
  Cycle:     12 Energy:     -3074.586562  Gnorm:      0.065899  CPU:    1.796
  ** Hessian has wrong structure
  ** Imaginary eigenvectors =   1
  ** Hessian has wrong structure
  ** Imaginary eigenvectors =   1
  Cycle:     13 Energy:     -3074.593728  Gnorm:      0.065388  CPU:    2.351
  ** Hessian has wrong structure
  ** Imaginary eigenvectors =   1
  Cycle:     14 Energy:     -3074.657915  Gnorm:      0.057440  CPU:    2.656
  ** Hessian has wrong structure
  ** Imaginary eigenvectors =   1
  ** Hessian has wrong structure
  ** Imaginary eigenvectors =   1
  Cycle:     15 Energy:     -3074.667236  Gnorm:      0.057118  CPU:    3.174
  ** Hessian has wrong structure
  ** Imaginary eigenvectors =   1
  Cycle:     16 Energy:     -3074.680510  Gnorm:      0.057178  CPU:    3.469
  ** Hessian has required structure
  Cycle:     17 Energy:     -3074.772719  Gnorm:      0.047682  CPU:    3.709
  ** Hessian has required structure
  Cycle:     18 Energy:     -3074.877076  Gnorm:      0.035712  CPU:    3.873
  ** Hessian has required structure
  Cycle:     19 Energy:     -3074.974098  Gnorm:      0.021089  CPU:    4.037
  ** Hessian has required structure
  Cycle:     20 Energy:     -3075.011048  Gnorm:      0.025577  CPU:    4.200
  ** Hessian has required structure
  Cycle:     21 Energy:     -3075.046223  Gnorm:      0.033177  CPU:    4.347
  ** Hessian has required structure
  Cycle:     22 Energy:     -3075.062157  Gnorm:      0.022109  CPU:    4.478
  ** Hessian has required structure
  Cycle:     23 Energy:     -3075.071984  Gnorm:      0.018883  CPU:    4.632
  ** Hessian has required structure
  Cycle:     24 Energy:     -3075.080074  Gnorm:      0.013887  CPU:    4.790
  ** Hessian has required structure
  Cycle:     25 Energy:     -3075.085691  Gnorm:      0.011476  CPU:    4.947
  ** Hessian has required structure
  Cycle:     26 Energy:     -3075.088752  Gnorm:      0.007046  CPU:    5.104
  ** Hessian has required structure
  Cycle:     27 Energy:     -3075.092215  Gnorm:      0.003855  CPU:    5.359
  ** Hessian has required structure
  Cycle:     28 Energy:     -3075.093076  Gnorm:      0.002234  CPU:    5.534
  ** Hessian has required structure
  Cycle:     29 Energy:     -3075.093312  Gnorm:      0.001125  CPU:    5.709
  ** Hessian has required structure
  Cycle:     30 Energy:     -3075.093365  Gnorm:      0.000696  CPU:    5.866
  ** Hessian has required structure
  Cycle:     31 Energy:     -3075.093387  Gnorm:      0.000419  CPU:    6.022
  ** Hessian has required structure
  Cycle:     32 Energy:     -3075.093396  Gnorm:      0.000213  CPU:    6.196
  ** Hessian has required structure
  Cycle:     33 Energy:     -3075.093397  Gnorm:      0.000149  CPU:    6.334
  ** Hessian has required structure
  Cycle:     34 Energy:     -3075.093398  Gnorm:      0.000105  CPU:    6.470
  ** Hessian has required structure


  **** Optimisation achieved ****


  Final energy =   -3075.09339825 eV      
  Final Gnorm  =       0.00007339

  Components of energy : 

--------------------------------------------------------------------------------
  Interatomic potentials     =         815.74402430 eV    
  Three-body potentials      =           0.22189913 eV    
  Monopole - monopole (real) =       -2242.10280203 eV    
  Monopole - monopole (recip)=       -1648.95651965 eV    
  Monopole - monopole (total)=       -3891.05932168 eV    
--------------------------------------------------------------------------------
  Total lattice energy       =       -3075.09339825 eV    
--------------------------------------------------------------------------------
  Total lattice energy       =         -296699.5058 kJ/(mole unit cells)
--------------------------------------------------------------------------------

  Final fractional coordinates of atoms :

--------------------------------------------------------------------------------
   No.  Atomic        x           y          z          Radius
        Label       (Frac)      (Frac)     (Frac)       (Angs) 
--------------------------------------------------------------------------------
     1  Ge    c     0.160190    0.293910    0.273440    0.000000
     2  Ge    c     0.331018    0.742593    0.273439    0.000000
     3  Si    c     0.041271    0.008412    0.356676    0.000000
     4  Si    c     0.449937    0.028091    0.356677    0.000000
     5  Si    c     0.944075    0.011607    0.615796    0.000000
     6  Si    c     0.547133    0.024902    0.615799    0.000000
     7  Si    c     0.550404    0.017758    0.099265    0.000000
     8  Si    c     0.940805    0.018750    0.099262    0.000000
     9  Si    c     0.437578    0.024413    0.858689    0.000000
    10  Si    c     0.053630    0.012094    0.858685    0.000000
    11  Si    c     0.832617    0.308169    0.712778    0.000000
    12  Si    c     0.658591    0.728339    0.712778    0.000000
    13  Si    c     0.837757    0.711467    0.712247    0.000000
    14  Si    c     0.653452    0.325042    0.712247    0.000000
    15  Si    c     0.148409    0.708354    0.273563    0.000000
    16  Si    c     0.342799    0.328150    0.273563    0.000000
    17  Si    c     0.650755    0.328470    0.018017    0.000000
    18  Si    c     0.840454    0.708037    0.018017    0.000000
    19  Si    c     0.342012    0.335057    0.966656    0.000000
    20  Si    c     0.149195    0.701450    0.966657    0.000000
    21  Si    c     0.330766    0.735003    0.962860    0.000000
    22  Si    c     0.160441    0.301504    0.962860    0.000000
    23  Si    c     0.660784    0.726251    0.018716    0.000000
    24  Si    c     0.830424    0.310257    0.018716    0.000000
    25  O3    c     0.103987    0.162120    0.370984    0.000000
    26  O3    c     0.387222    0.874382    0.370983    0.000000
    27  O2    c     0.887625    0.179012    0.631437    0.000000
    28  O2    c     0.603584    0.857497    0.631436    0.000000
    29  O2    c     0.895091    0.833140    0.629700    0.000000
    30  O2    c     0.596118    0.203368    0.629700    0.000000
    31  O2    c     0.085917    0.822292    0.354301    0.000000
    32  O2    c     0.405291    0.214211    0.354299    0.000000
    33  O2    c     0.978662    0.013617    0.471414    0.000000
    34  O2    c     0.512542    0.022890    0.471421    0.000000
    35  O2    c     0.996597    0.038751    0.221224    0.000000
    36  O2    c     0.494616    0.997756    0.221232    0.000000
    37  O2    c     0.015948    0.017360    0.715958    0.000000
    38  O2    c     0.475263    0.019147    0.715965    0.000000
    39  O2    c     0.593881    0.205709    0.102004    0.000000
    40  O2    c     0.897328    0.830798    0.102004    0.000000
    41  O2    c     0.397400    0.213402    0.879345    0.000000
    42  O2    c     0.093808    0.823106    0.879344    0.000000
    43  O2    c     0.373875    0.869596    0.866251    0.000000
    44  O2    c     0.117332    0.166913    0.866251    0.000000
    45  O2    c     0.613891    0.862508    0.107062    0.000000
    46  O2    c     0.877318    0.174000    0.107062    0.000000
    47  O2    c     0.503486    0.992092    0.965880    0.000000
    48  O2    c     0.987718    0.044414    0.965871    0.000000
    49  O3    c     0.144428    0.509118    0.317997    0.000000
    50  O3    c     0.346780    0.527385    0.317997    0.000000
    51  O2    c     0.856760    0.508446    0.681860    0.000000
    52  O2    c     0.634449    0.528063    0.681860    0.000000
    53  O3    c     0.257569    0.248445    0.296848    0.000000
    54  O3    c     0.233639    0.788058    0.296847    0.000000
    55  O2    c     0.742420    0.280218    0.673203    0.000000
    56  O2    c     0.748789    0.756290    0.673203    0.000000
    57  O3    c     0.137620    0.259260    0.110885    0.000000
    58  O3    c     0.353588    0.777244    0.110884    0.000000
    59  O2    c     0.842069    0.266458    0.866016    0.000000
    60  O2    c     0.649140    0.770051    0.866016    0.000000
    61  O2    c     0.851695    0.750999    0.865060    0.000000
    62  O2    c     0.639514    0.285509    0.865059    0.000000
    63  O2    c     0.128438    0.723835    0.118898    0.000000
    64  O2    c     0.362768    0.312674    0.118898    0.000000
    65  O2    c     0.629477    0.530373    0.047830    0.000000
    66  O2    c     0.861731    0.506135    0.047830    0.000000
    67  O2    c     0.355838    0.536607    0.925403    0.000000
    68  O2    c     0.135369    0.499900    0.925405    0.000000
    69  O2    c     0.740035    0.293379    0.057506    0.000000
    70  O2    c     0.751174    0.743128    0.057506    0.000000
    71  O2    c     0.252882    0.279592    0.943683    0.000000
    72  O2    c     0.238325    0.756916    0.943685    0.000000
    73  O3    s     0.102443    0.157849    0.361366    0.000000
    74  O3    s     0.388766    0.878653    0.361365    0.000000
    75  O2    s     0.887527    0.175426    0.638992    0.000000
    76  O2    s     0.603681    0.861083    0.638992    0.000000
    77  O2    s     0.893907    0.838856    0.637649    0.000000
    78  O2    s     0.597301    0.197653    0.637649    0.000000
    79  O2    s     0.087911    0.829772    0.345838    0.000000
    80  O2    s     0.403297    0.206731    0.345837    0.000000
    81  O2    s     0.981921    0.012812    0.474876    0.000000
    82  O2    s     0.509284    0.023694    0.474882    0.000000
    83  O2    s     0.994955    0.032946    0.221799    0.000000
    84  O2    s     0.496257    0.003560    0.221806    0.000000
    85  O2    s     0.012261    0.016125    0.721046    0.000000
    86  O2    s     0.478950    0.020382    0.721053    0.000000
    87  O2    s     0.595568    0.199449    0.092404    0.000000
    88  O2    s     0.895640    0.837059    0.092404    0.000000
    89  O2    s     0.395541    0.206630    0.886902    0.000000
    90  O2    s     0.095667    0.829878    0.886902    0.000000
    91  O2    s     0.375996    0.871513    0.876055    0.000000
    92  O2    s     0.115212    0.164996    0.876055    0.000000
    93  O2    s     0.612375    0.863783    0.096138    0.000000
    94  O2    s     0.878834    0.172724    0.096138    0.000000
    95  O2    s     0.501298    0.998645    0.968748    0.000000
    96  O2    s     0.989907    0.037862    0.968741    0.000000
    97  O3    s     0.146132    0.512198    0.309745    0.000000
    98  O3    s     0.345076    0.524306    0.309746    0.000000
    99  O2    s     0.852126    0.508852    0.688421    0.000000
   100  O2    s     0.639083    0.527657    0.688421    0.000000
   101  O3    s     0.258033    0.259935    0.292658    0.000000
   102  O3    s     0.233175    0.776568    0.292657    0.000000
   103  O2    s     0.742575    0.288001    0.681573    0.000000
   104  O2    s     0.748633    0.748508    0.681574    0.000000
   105  O3    s     0.141732    0.266222    0.109138    0.000000
   106  O3    s     0.349476    0.770283    0.109138    0.000000
   107  O2    s     0.839774    0.275665    0.865848    0.000000
   108  O2    s     0.651434    0.760844    0.865848    0.000000
   109  O2    s     0.848990    0.742203    0.865071    0.000000
   110  O2    s     0.642218    0.294305    0.865071    0.000000
   111  O2    s     0.132725    0.719873    0.118292    0.000000
   112  O2    s     0.358482    0.316635    0.118292    0.000000
   113  O2    s     0.635073    0.529435    0.041536    0.000000
   114  O2    s     0.856135    0.507073    0.041536    0.000000
   115  O2    s     0.351721    0.535784    0.933724    0.000000
   116  O2    s     0.139486    0.500724    0.933726    0.000000
   117  O2    s     0.740159    0.299144    0.048910    0.000000
   118  O2    s     0.751050    0.737364    0.048910    0.000000
   119  O2    s     0.252598    0.288149    0.948325    0.000000
   120  O2    s     0.238610    0.748358    0.948326    0.000000
--------------------------------------------------------------------------------

  Final Cartesian lattice vectors (Angstroms) :

       17.155097    0.004378   -0.000284
        0.002095    7.625244   -0.000075
        0.000162    0.000117   10.222836


  Final cell parameters and derivatives :

--------------------------------------------------------------------------------
       a           17.155097 Angstrom     dE/de1(xx)     0.006569 eV/strain
       b            7.625245 Angstrom     dE/de2(yy)     0.006141 eV/strain
       c           10.222836 Angstrom     dE/de3(zz)     0.009957 eV/strain
       alpha       89.999910 Degrees      dE/de4(yz)     0.000146 eV/strain
       beta        90.000043 Degrees      dE/de5(xz)     0.000028 eV/strain
       gamma       89.969638 Degrees      dE/de6(xy)     0.000417 eV/strain
--------------------------------------------------------------------------------

  Primitive cell volume =          1337.267545 Angs**3

  Density of cell =      1.901383 g/cm**3

  Non-primitive cell volume =          1337.267545 Angs**3


  Final internal derivatives :

--------------------------------------------------------------------------------
   No.  Atomic          a             b             c           Radius
        Label          (eV)          (eV)          (eV)        (eV/Angs)
--------------------------------------------------------------------------------
      1 Ge    c       0.000000      0.000000      0.000000      0.000000
      2 Ge    c       0.000486      0.000228      0.000847      0.000000
      3 Si    c       0.006292     -0.000177     -0.000197      0.000000
      4 Si    c      -0.002595      0.000329      0.000403      0.000000
      5 Si    c      -0.003573     -0.000039      0.001497      0.000000
      6 Si    c       0.000976      0.000064      0.001094      0.000000
      7 Si    c       0.002164     -0.000227     -0.000492      0.000000
      8 Si    c      -0.004714     -0.000024     -0.000936      0.000000
      9 Si    c       0.000848     -0.000012     -0.000139      0.000000
     10 Si    c       0.001252     -0.000239     -0.000477      0.000000
     11 Si    c       0.000072     -0.000571     -0.001920      0.000000
     12 Si    c      -0.000199      0.000697     -0.001843      0.000000
     13 Si    c      -0.000196      0.000545     -0.001613      0.000000
     14 Si    c       0.000384     -0.000576     -0.001628      0.000000
     15 Si    c      -0.001269      0.001300      0.000682      0.000000
     16 Si    c       0.000690     -0.001296      0.000447      0.000000
     17 Si    c      -0.001393     -0.001455      0.001704      0.000000
     18 Si    c       0.001703      0.001368      0.001720      0.000000
     19 Si    c       0.000222     -0.000856     -0.000347      0.000000
     20 Si    c      -0.000416      0.001063     -0.000567      0.000000
     21 Si    c      -0.000081      0.000144     -0.000408      0.000000
     22 Si    c       0.000535     -0.000431     -0.000283      0.000000
     23 Si    c      -0.001144      0.000930      0.002070      0.000000
     24 Si    c       0.001303     -0.000905      0.002236      0.000000
     25 O3    c       0.000291      0.000708     -0.001414      0.000000
     26 O3    c       0.000064     -0.000292     -0.000548      0.000000
     27 O2    c      -0.001339      0.000922      0.000526      0.000000
     28 O2    c       0.001393     -0.000744      0.000674      0.000000
     29 O2    c      -0.000549     -0.000654      0.000552      0.000000
     30 O2    c       0.000667      0.000585      0.000641      0.000000
     31 O2    c       0.001727     -0.000886     -0.000776      0.000000
     32 O2    c      -0.001623      0.000624     -0.000802      0.000000
     33 O2    c      -0.005902      0.000165      0.000214      0.000000
     34 O2    c       0.001942      0.000008     -0.000506      0.000000
     35 O2    c       0.002749      0.000829      0.000825      0.000000
     36 O2    c      -0.000708     -0.000181      0.000338      0.000000
     37 O2    c       0.004349     -0.000027     -0.000519      0.000000
     38 O2    c      -0.000653      0.000010     -0.000850      0.000000
     39 O2    c       0.001268      0.000854     -0.001195      0.000000
     40 O2    c      -0.001091     -0.001010     -0.001141      0.000000
     41 O2    c      -0.001454      0.001051      0.001025      0.000000
     42 O2    c       0.001573     -0.001286      0.001059      0.000000
     43 O2    c      -0.000900     -0.000569     -0.000058      0.000000
     44 O2    c       0.000692      0.000538     -0.000248      0.000000
     45 O2    c       0.000005      0.000032     -0.000996      0.000000
     46 O2    c      -0.000321      0.000299     -0.000909      0.000000
     47 O2    c       0.000407     -0.000112      0.000109      0.000000
     48 O2    c      -0.002767      0.000507      0.000323      0.000000
     49 O3    c       0.000225     -0.001099      0.000835      0.000000
     50 O3    c      -0.000241      0.001162      0.000631      0.000000
     51 O2    c       0.001028      0.000247     -0.001393      0.000000
     52 O2    c      -0.000998     -0.000326     -0.001396      0.000000
     53 O3    c       0.000103     -0.000033     -0.000579      0.000000
     54 O3    c       0.000063      0.000196     -0.000591      0.000000
     55 O2    c      -0.001366     -0.000302     -0.000396      0.000000
     56 O2    c       0.001589      0.000317     -0.000456      0.000000
     57 O3    c       0.000562      0.000175      0.000545      0.000000
     58 O3    c       0.000095     -0.000239     -0.000333      0.000000
     59 O2    c       0.002874     -0.000446     -0.000436      0.000000
     60 O2    c      -0.002792      0.000501     -0.000229      0.000000
     61 O2    c       0.002380      0.000286      0.000163      0.000000
     62 O2    c      -0.002403     -0.000278      0.000201      0.000000
     63 O2    c      -0.000379     -0.000296      0.000006      0.000000
     64 O2    c       0.000174      0.000290      0.000374      0.000000
     65 O2    c      -0.001859      0.000273      0.001466      0.000000
     66 O2    c       0.001906     -0.000129      0.001455      0.000000
     67 O2    c      -0.000194      0.000411     -0.000112      0.000000
     68 O2    c       0.000277     -0.000391     -0.000198      0.000000
     69 O2    c      -0.001040     -0.000471      0.000380      0.000000
     70 O2    c       0.000877      0.000503      0.000409      0.000000
     71 O2    c      -0.000285      0.000346     -0.000116      0.000000
     72 O2    c       0.000090     -0.000318     -0.000147      0.000000
     73 O3    s       0.002877     -0.000010      0.001044      0.000000
     74 O3    s      -0.000828     -0.000018      0.000250      0.000000
     75 O2    s      -0.000701     -0.000420     -0.000278      0.000000
     76 O2    s      -0.000417      0.000575     -0.000567      0.000000
     77 O2    s      -0.001047      0.000222     -0.000442      0.000000
     78 O2    s      -0.000001     -0.000365     -0.000545      0.000000
     79 O2    s       0.001592     -0.000077     -0.000227      0.000000
     80 O2    s      -0.000694     -0.000176     -0.000511      0.000000
     81 O2    s       0.000578     -0.000160      0.000170      0.000000
     82 O2    s      -0.000223     -0.000063      0.000267      0.000000
     83 O2    s      -0.000683     -0.000246     -0.000115      0.000000
     84 O2    s       0.000100     -0.000027      0.000278      0.000000
     85 O2    s       0.000142     -0.000071     -0.000199      0.000000
     86 O2    s      -0.000642      0.000152      0.000047      0.000000
     87 O2    s       0.000421     -0.000754      0.000365      0.000000
     88 O2    s      -0.001595      0.000467      0.000345      0.000000
     89 O2    s      -0.000861     -0.000017      0.000164      0.000000
     90 O2    s       0.001836     -0.000167      0.000155      0.000000
     91 O2    s      -0.001625     -0.000120     -0.000059      0.000000
     92 O2    s       0.002526      0.000394      0.000022      0.000000
     93 O2    s       0.000440      0.000569      0.000837      0.000000
     94 O2    s      -0.001608     -0.000400      0.000669      0.000000
     95 O2    s       0.000594      0.000276     -0.000282      0.000000
     96 O2    s       0.000095     -0.000128     -0.000710      0.000000
     97 O3    s      -0.000846      0.000223      0.000224      0.000000
     98 O3    s       0.000994     -0.000324      0.000368      0.000000
     99 O2    s       0.002895      0.000152     -0.001958      0.000000
    100 O2    s      -0.003145     -0.000141     -0.002031      0.000000
    101 O3    s      -0.000427     -0.000620      0.000635      0.000000
    102 O3    s       0.000552      0.000604      0.000751      0.000000
    103 O2    s      -0.000183     -0.001968     -0.002276      0.000000
    104 O2    s       0.000122      0.002007     -0.002277      0.000000
    105 O3    s      -0.001639     -0.000182     -0.001275      0.000000
    106 O3    s       0.000958      0.000356     -0.000029      0.000000
    107 O2    s       0.004193     -0.001341     -0.000208      0.000000
    108 O2    s      -0.004058      0.001237     -0.000044      0.000000
    109 O2    s       0.002480      0.001366     -0.000281      0.000000
    110 O2    s      -0.002544     -0.001280     -0.000197      0.000000
    111 O2    s      -0.000758      0.000538     -0.000749      0.000000
    112 O2    s       0.000703     -0.000472     -0.000527      0.000000
    113 O2    s      -0.003103     -0.000198      0.002118      0.000000
    114 O2    s       0.002960      0.000224      0.002139      0.000000
    115 O2    s       0.000705     -0.000032     -0.000036      0.000000
    116 O2    s      -0.000802     -0.000024      0.000264      0.000000
    117 O2    s      -0.000354     -0.001884      0.002794      0.000000
    118 O2    s       0.000112      0.001859      0.002800      0.000000
    119 O2    s      -0.000715     -0.000299     -0.000726      0.000000
    120 O2    s       0.000452      0.000413     -0.000653      0.000000
--------------------------------------------------------------------------------
  Maximum abs         0.006292      0.002007      0.002800      0.000000
--------------------------------------------------------------------------------


  Born effective charge tensors : 

-------------------------------------------------------------------------------
  Atom             x           y             z
-------------------------------------------------------------------------------
    1 Ge    x       3.9959      0.2558     -0.2559
            y       0.3135      4.1755     -0.1608
            z      -0.0796     -0.1110      3.4770
-------------------------------------------------------------------------------
    2 Ge    x       3.9959      0.2558      0.2559
            y       0.3135      4.1755      0.1608
            z       0.0796      0.1109      3.4770
-------------------------------------------------------------------------------
    3 Si    x       3.6287      0.0659     -0.0290
            y       0.2666      3.3788      0.0664
            z      -0.6449     -0.0200      3.8188
-------------------------------------------------------------------------------
    4 Si    x       3.6287      0.0659      0.0290
            y       0.2667      3.3788     -0.0664
            z       0.6448      0.0200      3.8188
-------------------------------------------------------------------------------
    5 Si    x       3.4495      0.0238     -0.2951
            y      -0.0578      3.2663      0.0149
            z      -0.2859     -0.0016      3.8022
-------------------------------------------------------------------------------
    6 Si    x       3.4495      0.0238      0.2951
            y      -0.0578      3.2663     -0.0148
            z       0.2859      0.0016      3.8021
-------------------------------------------------------------------------------
    7 Si    x       3.4976      0.1214     -0.0668
            y      -0.1123      3.2610     -0.0137
            z      -0.5681     -0.0512      3.0469
-------------------------------------------------------------------------------
    8 Si    x       3.4976      0.1214      0.0668
            y      -0.1122      3.2610      0.0137
            z       0.5681      0.0512      3.0469
-------------------------------------------------------------------------------
    9 Si    x       3.5323     -0.1208     -0.2928
            y       0.1130      3.2508      0.0293
            z      -0.3984      0.0127      3.1250
-------------------------------------------------------------------------------
   10 Si    x       3.5323     -0.1208      0.2928
            y       0.1130      3.2508     -0.0293
            z       0.3984     -0.0127      3.1250
-------------------------------------------------------------------------------
   11 Si    x       3.2089     -0.2830     -0.1033
            y      -0.2398      3.4685      0.1541
            z      -0.1348      0.0851      2.8123
-------------------------------------------------------------------------------
   12 Si    x       3.2089     -0.2830      0.1033
            y      -0.2398      3.4685     -0.1541
            z       0.1347     -0.0851      2.8123
-------------------------------------------------------------------------------
   13 Si    x       3.1993      0.2329     -0.0775
            y       0.2613      3.4391     -0.1597
            z      -0.1139     -0.0853      2.8112
-------------------------------------------------------------------------------
   14 Si    x       3.1993      0.2329      0.0775
            y       0.2613      3.4391      0.1597
            z       0.1139      0.0853      2.8112
-------------------------------------------------------------------------------
   15 Si    x       3.5908      0.0156     -0.1205
            y      -0.2081      3.8395      0.0251
            z      -0.0669      0.0530      2.9829
-------------------------------------------------------------------------------
   16 Si    x       3.5908      0.0156      0.1204
            y      -0.2080      3.8395     -0.0251
            z       0.0669     -0.0531      2.9829
-------------------------------------------------------------------------------
   17 Si    x       3.2607      0.2772     -0.1332
            y       0.2582      3.4044     -0.1623
            z      -0.1519     -0.0601      2.7106
-------------------------------------------------------------------------------
   18 Si    x       3.2607      0.2772      0.1332
            y       0.2582      3.4044      0.1623
            z       0.1519      0.0601      2.7106
-------------------------------------------------------------------------------
   19 Si    x       3.3087     -0.1991     -0.1784
            y      -0.2696      3.4120      0.1296
            z      -0.1016      0.1147      2.7188
-------------------------------------------------------------------------------
   20 Si    x       3.3087     -0.1991      0.1784
            y      -0.2696      3.4120     -0.1296
            z       0.1016     -0.1147      2.7188
-------------------------------------------------------------------------------
   21 Si    x       3.3722      0.3122     -0.1513
            y       0.1928      3.5396     -0.0723
            z       0.0043     -0.0370      3.0131
-------------------------------------------------------------------------------
   22 Si    x       3.3722      0.3122      0.1513
            y       0.1928      3.5396      0.0723
            z      -0.0043      0.0370      3.0131
-------------------------------------------------------------------------------
   23 Si    x       3.2240     -0.3138     -0.1448
            y      -0.1436      3.4327      0.1607
            z      -0.1154      0.0686      2.7134
-------------------------------------------------------------------------------
   24 Si    x       3.2241     -0.3138      0.1447
            y      -0.1436      3.4327     -0.1607
            z       0.1153     -0.0686      2.7134
-------------------------------------------------------------------------------
   25 O3    x      -2.1692     -0.9648      0.3249
            y      -1.0210     -2.3065      0.3239
            z       0.3921      0.3188     -1.5612
-------------------------------------------------------------------------------
   26 O3    x      -2.1692     -0.9648     -0.3248
            y      -1.0210     -2.3065     -0.3239
            z      -0.3920     -0.3188     -1.5612
-------------------------------------------------------------------------------
   27 O2    x      -1.7274      0.7409      0.3624
            y       0.7582     -2.0005     -0.3733
            z       0.3742     -0.3611     -1.3520
-------------------------------------------------------------------------------
   28 O2    x      -1.7274      0.7409     -0.3624
            y       0.7582     -2.0005      0.3732
            z      -0.3742      0.3611     -1.3520
-------------------------------------------------------------------------------
   29 O2    x      -1.6787     -0.7168      0.3509
            y      -0.7007     -1.9868      0.3556
            z       0.3618      0.3534     -1.3539
-------------------------------------------------------------------------------
   30 O2    x      -1.6788     -0.7168     -0.3508
            y      -0.7007     -1.9868     -0.3556
            z      -0.3617     -0.3533     -1.3539
-------------------------------------------------------------------------------
   31 O2    x      -1.7068      0.6645      0.3080
            y       0.6567     -1.9059     -0.3019
            z       0.3593     -0.2880     -1.3786
-------------------------------------------------------------------------------
   32 O2    x      -1.7068      0.6645     -0.3080
            y       0.6567     -1.9058      0.3019
            z      -0.3593      0.2880     -1.3786
-------------------------------------------------------------------------------
   33 O2    x      -1.6262      0.0324      0.7906
            y       0.0050     -1.0830     -0.0226
            z       0.9857     -0.0414     -2.7210
-------------------------------------------------------------------------------
   34 O2    x      -1.6263      0.0324     -0.7906
            y       0.0049     -1.0830      0.0225
            z      -0.9857      0.0414     -2.7210
-------------------------------------------------------------------------------
   35 O2    x      -1.6824      0.0072     -0.7050
            y       0.0144     -1.1383      0.0334
            z      -0.6800      0.0354     -2.2490
-------------------------------------------------------------------------------
   36 O2    x      -1.6823      0.0073      0.7050
            y       0.0145     -1.1383     -0.0334
            z       0.6800     -0.0354     -2.2490
-------------------------------------------------------------------------------
   37 O2    x      -1.7786      0.0142     -0.7102
            y      -0.0137     -1.1014      0.0053
            z      -0.7047      0.0087     -2.1870
-------------------------------------------------------------------------------
   38 O2    x      -1.7785      0.0143      0.7102
            y      -0.0137     -1.1014     -0.0053
            z       0.7047     -0.0088     -2.1871
-------------------------------------------------------------------------------
   39 O2    x      -1.6862     -0.7156      0.2912
            y      -0.6490     -2.0125      0.3100
            z       0.3516      0.3042     -1.2142
-------------------------------------------------------------------------------
   40 O2    x      -1.6862     -0.7156     -0.2912
            y      -0.6490     -2.0125     -0.3099
            z      -0.3516     -0.3042     -1.2142
-------------------------------------------------------------------------------
   41 O2    x      -1.6851      0.7118      0.3943
            y       0.6204     -2.0236     -0.4067
            z       0.3512     -0.3760     -1.2572
-------------------------------------------------------------------------------
   42 O2    x      -1.6851      0.7118     -0.3943
            y       0.6204     -2.0236      0.4068
            z      -0.3512      0.3760     -1.2572
-------------------------------------------------------------------------------
   43 O2    x      -1.7594     -0.7135      0.3611
            y      -0.6835     -1.9420      0.3589
            z       0.3224      0.3453     -1.2641
-------------------------------------------------------------------------------
   44 O2    x      -1.7594     -0.7135     -0.3611
            y      -0.6836     -1.9420     -0.3588
            z      -0.3224     -0.3453     -1.2641
-------------------------------------------------------------------------------
   45 O2    x      -1.7410      0.7205      0.2659
            y       0.6988     -1.9340     -0.3014
            z       0.3263     -0.2954     -1.2273
-------------------------------------------------------------------------------
   46 O2    x      -1.7410      0.7205     -0.2659
            y       0.6989     -1.9340      0.3014
            z      -0.3263      0.2954     -1.2273
-------------------------------------------------------------------------------
   47 O2    x      -1.8292      0.0250     -0.6247
            y       0.0229     -1.1690      0.0048
            z      -0.3508      0.0055     -1.7240
-------------------------------------------------------------------------------
   48 O2    x      -1.8292      0.0251      0.6247
            y       0.0229     -1.1690     -0.0048
            z       0.3508     -0.0055     -1.7240
-------------------------------------------------------------------------------
   49 O3    x      -1.2651      0.0758      0.0876
            y       0.1273     -3.2228      0.0897
            z       0.0598      0.1009     -1.2693
-------------------------------------------------------------------------------
   50 O3    x      -1.2651      0.0758     -0.0876
            y       0.1273     -3.2228     -0.0897
            z      -0.0598     -0.1008     -1.2693
-------------------------------------------------------------------------------
   51 O2    x      -1.1570     -0.0263      0.0583
            y      -0.0409     -2.5682      0.0030
            z       0.0759     -0.0043     -1.0702
-------------------------------------------------------------------------------
   52 O2    x      -1.1570     -0.0263     -0.0583
            y      -0.0409     -2.5682     -0.0030
            z      -0.0759      0.0043     -1.0702
-------------------------------------------------------------------------------
   53 O3    x      -3.0372     -0.1984      0.0386
            y      -0.1389     -1.4553      0.0778
            z       0.0291      0.0815     -1.1880
-------------------------------------------------------------------------------
   54 O3    x      -3.0372     -0.1984     -0.0385
            y      -0.1389     -1.4553     -0.0778
            z      -0.0290     -0.0815     -1.1880
-------------------------------------------------------------------------------
   55 O2    x      -2.3890      0.0560     -0.0006
            y       0.0242     -1.2472     -0.0679
            z      -0.0091     -0.0507     -1.0732
-------------------------------------------------------------------------------
   56 O2    x      -2.3890      0.0560      0.0007
            y       0.0242     -1.2472      0.0679
            z       0.0091      0.0507     -1.0732
-------------------------------------------------------------------------------
   57 O3    x      -1.3847     -0.1564      0.0670
            y      -0.1473     -1.4261      0.1056
            z       0.0369      0.0665     -2.5963
-------------------------------------------------------------------------------
   58 O3    x      -1.3847     -0.1564     -0.0670
            y      -0.1473     -1.4261     -0.1056
            z      -0.0370     -0.0665     -2.5963
-------------------------------------------------------------------------------
   59 O2    x      -1.1773      0.1274     -0.0189
            y       0.0967     -1.2797     -0.0133
            z      -0.0062      0.0015     -2.0623
-------------------------------------------------------------------------------
   60 O2    x      -1.1773      0.1274      0.0189
            y       0.0967     -1.2797      0.0133
            z       0.0061     -0.0015     -2.0623
-------------------------------------------------------------------------------
   61 O2    x      -1.1916     -0.1256     -0.0305
            y      -0.1170     -1.2694      0.0008
            z      -0.0436      0.0046     -2.0643
-------------------------------------------------------------------------------
   62 O2    x      -1.1916     -0.1256      0.0305
            y      -0.1170     -1.2694     -0.0008
            z       0.0436     -0.0047     -2.0643
-------------------------------------------------------------------------------
   63 O2    x      -1.2387      0.0919      0.0228
            y       0.1199     -1.2552     -0.0480
            z       0.0052     -0.0334     -2.1053
-------------------------------------------------------------------------------
   64 O2    x      -1.2387      0.0919     -0.0229
            y       0.1199     -1.2552      0.0480
            z      -0.0052      0.0334     -2.1053
-------------------------------------------------------------------------------
   65 O2    x      -1.2191     -0.0358      0.0833
            y      -0.0872     -2.4984     -0.0029
            z       0.0994      0.0010     -1.0223
-------------------------------------------------------------------------------
   66 O2    x      -1.2191     -0.0358     -0.0833
            y      -0.0872     -2.4984      0.0029
            z      -0.0994     -0.0009     -1.0223
-------------------------------------------------------------------------------
   67 O2    x      -1.2251      0.0494      0.0917
            y       0.0981     -2.5394      0.0467
            z       0.0715      0.0352     -1.0407
-------------------------------------------------------------------------------
   68 O2    x      -1.2251      0.0494     -0.0916
            y       0.0981     -2.5394     -0.0467
            z      -0.0715     -0.0352     -1.0407
-------------------------------------------------------------------------------
   69 O2    x      -2.4116      0.0511     -0.0000
            y       0.0354     -1.2347      0.0625
            z      -0.0006      0.0381     -1.0439
-------------------------------------------------------------------------------
   70 O2    x      -2.4116      0.0511      0.0001
            y       0.0354     -1.2347     -0.0625
            z       0.0007     -0.0381     -1.0439
-------------------------------------------------------------------------------
   71 O2    x      -2.5020     -0.1031     -0.0433
            y      -0.0533     -1.2686     -0.0468
            z      -0.0260     -0.0463     -1.0067
-------------------------------------------------------------------------------
   72 O2    x      -2.5020     -0.1031      0.0433
            y      -0.0533     -1.2686      0.0468
            z       0.0261      0.0463     -1.0067
-------------------------------------------------------------------------------




  Elastic Constant Matrix: (Units=GPa)

-------------------------------------------------------------------------------
  Indices      1         2         3         4         5         6    
-------------------------------------------------------------------------------
       1     58.0027   32.7632   20.4433    0.0001    0.0009   -5.3574
       2     32.7632   78.4510   19.4334    0.0001    0.0002   -3.4800
       3     20.4433   19.4334   30.8944    0.0002    0.0007   -3.2439
       4      0.0001    0.0001    0.0002   12.1560   -0.8739    0.0004
       5      0.0009    0.0002    0.0007   -0.8739   26.5340    0.0001
       6     -5.3574   -3.4800   -3.2439    0.0004    0.0001   24.4995
-------------------------------------------------------------------------------


  Elastic Compliance Matrix: (Units=1/GPa)

-------------------------------------------------------------------------------
  Indices      1         2         3         4         5         6    
-------------------------------------------------------------------------------
       1    0.026196 -0.007807 -0.012107 -0.000000 -0.000001  0.003016
       2   -0.007807  0.017446 -0.005808 -0.000000  0.000000  0.000002
       3   -0.012107 -0.005808  0.044284 -0.000001 -0.000001  0.002391
       4   -0.000000 -0.000000 -0.000001  0.082459  0.002716 -0.000002
       5   -0.000001  0.000000 -0.000001  0.002716  0.037777 -0.000000
       6    0.003016  0.000002  0.002391 -0.000002 -0.000000  0.041794
-------------------------------------------------------------------------------

  Mechanical properties :

-------------------------------------------------------------------------------
  Convention :                    Reuss         Voigt         Hill
-------------------------------------------------------------------------------
  Bulk  Modulus (GPa)     =      27.41021      34.73643      31.07332
  Shear Modulus (GPa)     =      15.94591      18.95178      17.44884
-------------------------------------------------------------------------------
  Velocity S-wave (km/s)  =       2.89594       3.15711       3.02934
  Velocity P-wave (km/s)  =       5.05944       5.61773       5.34587
-------------------------------------------------------------------------------
  Compressibility (1/GPa) =    0.03648275
-------------------------------------------------------------------------------
  Stress axis :                     x             y             z
-------------------------------------------------------------------------------
  Youngs Moduli (GPa)     =      38.17333      57.31937      22.58166
-------------------------------------------------------------------------------
  Poissons Ratio (x)      =                     0.44752       0.27339
  Poissons Ratio (y)      =       0.29804                     0.13115
  Poissons Ratio (z)      =       0.46215       0.33289
-------------------------------------------------------------------------------


  Piezoelectric Strain Matrix: (Units=C/m**2)

-------------------------------------------------------------------------------
  Indices      1         2         3         4         5         6    
-------------------------------------------------------------------------------
       x     0.00003   0.00002  -0.00005   0.24752   0.48697  -0.00006
       y    -0.00011  -0.00004  -0.00011   0.13348   0.48755   0.00005
       z    -0.50224  -0.29064  -1.83053  -0.00006  -0.00000   0.07587
-------------------------------------------------------------------------------


  Piezoelectric Stress Matrix: (Units=10**-11 C/N)

-------------------------------------------------------------------------------
  Indices      1         2         3         4         5         6    
-------------------------------------------------------------------------------
       x     0.00008   0.00006  -0.00037   2.17324   1.90684  -0.00033
       y    -0.00014   0.00009  -0.00036   1.23308   1.87806   0.00010
       z     1.15028   0.94817  -7.31127  -0.00033   0.00014  -0.27219
-------------------------------------------------------------------------------


  Static dielectric constant tensor : 

-------------------------------------------------------------------------------
              x         y         z
-------------------------------------------------------------------------------
       x     3.77593   0.08810  -0.00001
       y     0.08810   3.97446  -0.00000
       z    -0.00001  -0.00000   3.04483
--------------------------------------------------------------------------------

  High frequency dielectric constant tensor : 

-------------------------------------------------------------------------------
              x         y         z
-------------------------------------------------------------------------------
       x     1.68717  -0.00042  -0.00000
       y    -0.00042   1.69281  -0.00000
       z    -0.00000  -0.00000   1.62544
-------------------------------------------------------------------------------

  Static refractive indices : 

-------------------------------------------------------------------------------
    1 =    1.74494      2 =    1.93455      3 =    2.00198
-------------------------------------------------------------------------------

  High frequency refractive indices : 

-------------------------------------------------------------------------------
    1 =    1.27493      2 =    1.29890      3 =    1.30109
-------------------------------------------------------------------------------


  Time to end of optimisation =       6.7806 seconds


  Peak dynamic memory used =       5.01 MB 


  Timing analysis for GULP :

--------------------------------------------------------------------------------
  Task / Subroutine                                          Time (Seconds)
--------------------------------------------------------------------------------
  Calculation of reciprocal space energy and derivatives          0.4225
  Calculation of real space energy and derivatives                4.3141
  Calculation of three-body energy and derivatives                0.4665
  Calculation and manipulation of Hessian matrix                  2.0350
  Calculation of matrix inversion                                 0.0215
--------------------------------------------------------------------------------
  Total CPU time                                                  6.7806
--------------------------------------------------------------------------------


  Dump file written as c00027.vasp.grs
  CIF file written as c00027.vasp.cif


  Job Finished at 10:51.05  7th October    2025                               

