********************************************************************************
*                       GENERAL UTILITY LATTICE PROGRAM                        *
*                                 Julian Gale                                  *
*                       Curtin Institute for Computation                       *
*                    School of Molecular and Life Sciences                     *
*                    Curtin University, Western Australia                      *
********************************************************************************
* Version = 6.1.2 * Last modified =   3rd November 2022                        *
********************************************************************************
*  optimise     - perform optimisation run                                     *
*  conp         - constant pressure calculation                                *
*  property     - calculate properties for final geometry                      *
********************************************************************************

  Job Started  at 10:47.30  7th October    2025                               

  Number of CPUs =     1


  Total number of configurations input =      1

********************************************************************************
*  Input for Configuration =   1 : c00007.vasp                                 *
********************************************************************************

  Formula = Ge2Si22O48                                                  

  Number of irreducible atoms/shells =     120


  Total number atoms/shells =     120

  Dimensionality = 3               :  Bulk   



  Cartesian lattice vectors (Angstroms) :

       17.182800    0.000000    0.000000
        0.000000    7.513760    0.000000
        0.000000    0.000000   10.447700

  Cell parameters (Angstroms/Degrees):

  a =      17.1828    alpha =  90.0000
  b =       7.5138    beta  =  90.0000
  c =      10.4477    gamma =  90.0000

  Initial cell volume =        1348.875752 Angs**3

  Temperature of configuration =   0.00     K 

  Pressure of configuration =         0.000 GPa 

  Fractional coordinates of asymmetric unit :

--------------------------------------------------------------------------------
   No.  Atomic       x           y          z         Charge      Occupancy
        Label      (Frac)      (Frac)     (Frac)        (e)         (Frac)  
--------------------------------------------------------------------------------
      1 Ge    c    0.052090    0.000000    0.372270     4.00000    1.000000    
      2 Ge    c    0.056730 *  0.000000 *  0.877870 *   4.00000    1.000000    
      3 Si    c    0.447910 *  0.000000 *  0.372270 *   4.00000    1.000000    
      4 Si    c    0.947910 *  0.000000 *  0.627730 *   4.00000    1.000000    
      5 Si    c    0.552090 *  0.000000 *  0.627730 *   4.00000    1.000000    
      6 Si    c    0.556730 *  0.000000 *  0.122130 *   4.00000    1.000000    
      7 Si    c    0.943270 *  0.000000 *  0.122130 *   4.00000    1.000000    
      8 Si    c    0.443270 *  0.000000 *  0.877870 *   4.00000    1.000000    
      9 Si    c    0.160190 *  0.293910 *  0.273440 *   4.00000    1.000000    
     10 Si    c    0.339810 *  0.706090 *  0.273440 *   4.00000    1.000000    
     11 Si    c    0.839810 *  0.293910 *  0.726560 *   4.00000    1.000000    
     12 Si    c    0.660190 *  0.706090 *  0.726560 *   4.00000    1.000000    
     13 Si    c    0.839810 *  0.706090 *  0.726560 *   4.00000    1.000000    
     14 Si    c    0.660190 *  0.293910 *  0.726560 *   4.00000    1.000000    
     15 Si    c    0.160190 *  0.706090 *  0.273440 *   4.00000    1.000000    
     16 Si    c    0.339810 *  0.293910 *  0.273440 *   4.00000    1.000000    
     17 Si    c    0.660660 *  0.294090 *  0.017440 *   4.00000    1.000000    
     18 Si    c    0.839340 *  0.705910 *  0.017440 *   4.00000    1.000000    
     19 Si    c    0.339340 *  0.294090 *  0.982560 *   4.00000    1.000000    
     20 Si    c    0.160660 *  0.705910 *  0.982560 *   4.00000    1.000000    
     21 Si    c    0.339340 *  0.705910 *  0.982560 *   4.00000    1.000000    
     22 Si    c    0.160660 *  0.294090 *  0.982560 *   4.00000    1.000000    
     23 Si    c    0.660660 *  0.705910 *  0.017440 *   4.00000    1.000000    
     24 Si    c    0.839340 *  0.294090 *  0.017440 *   4.00000    1.000000    
     25 O3    c    0.106570 *  0.174340 *  0.366200 *   1.33043    1.000000    
     26 O2    c    0.393430 *  0.825660 *  0.366200 *   0.87073    1.000000    
     27 O2    c    0.893430 *  0.174340 *  0.633800 *   0.87073    1.000000    
     28 O2    c    0.606570 *  0.825660 *  0.633800 *   0.87073    1.000000    
     29 O2    c    0.893430 *  0.825660 *  0.633800 *   0.87073    1.000000    
     30 O2    c    0.606570 *  0.174340 *  0.633800 *   0.87073    1.000000    
     31 O3    c    0.106570 *  0.825660 *  0.366200 *   1.33043    1.000000    
     32 O2    c    0.393430 *  0.174340 *  0.366200 *   0.87073    1.000000    
     33 O3    c    0.000000 *  0.000000 *  0.500000 *   1.33043    1.000000    
     34 O2    c    0.500000 *  0.000000 *  0.500000 *   0.87073    1.000000    
     35 O3    c    0.994520 *  0.000000 *  0.250840 *   1.33043    1.000000    
     36 O2    c    0.505480 *  0.000000 *  0.250840 *   0.87073    1.000000    
     37 O3    c    0.005480 *  0.000000 *  0.749160 *   1.33043    1.000000    
     38 O2    c    0.494520 *  0.000000 *  0.749160 *   0.87073    1.000000    
     39 O2    c    0.610230 *  0.175520 *  0.115390 *   0.87073    1.000000    
     40 O2    c    0.889770 *  0.824480 *  0.115390 *   0.87073    1.000000    
     41 O2    c    0.389770 *  0.175520 *  0.884610 *   0.87073    1.000000    
     42 O3    c    0.110230 *  0.824480 *  0.884610 *   1.33043    1.000000    
     43 O2    c    0.389770 *  0.824480 *  0.884610 *   0.87073    1.000000    
     44 O3    c    0.110230 *  0.175520 *  0.884610 *   1.33043    1.000000    
     45 O2    c    0.610230 *  0.824480 *  0.115390 *   0.87073    1.000000    
     46 O2    c    0.889770 *  0.175520 *  0.115390 *   0.87073    1.000000    
     47 O2    c    0.500000 *  0.000000 *  0.000000 *   0.87073    1.000000    
     48 O3    c    0.000000 *  0.000000 *  0.000000 *   1.33043    1.000000    
     49 O2    c    0.151750 *  0.500000 *  0.313330 *   0.87073    1.000000    
     50 O2    c    0.348250 *  0.500000 *  0.313330 *   0.87073    1.000000    
     51 O2    c    0.848250 *  0.500000 *  0.686670 *   0.87073    1.000000    
     52 O2    c    0.651750 *  0.500000 *  0.686670 *   0.87073    1.000000    
     53 O2    c    0.250000 *  0.234950 *  0.285720 *   0.87073    1.000000    
     54 O2    c    0.250000 *  0.765050 *  0.285720 *   0.87073    1.000000    
     55 O2    c    0.750000 *  0.234950 *  0.714280 *   0.87073    1.000000    
     56 O2    c    0.750000 *  0.765050 *  0.714280 *   0.87073    1.000000    
     57 O2    c    0.131410 *  0.268650 *  0.127790 *   0.87073    1.000000    
     58 O2    c    0.368590 *  0.731350 *  0.127790 *   0.87073    1.000000    
     59 O2    c    0.868590 *  0.268650 *  0.872210 *   0.87073    1.000000    
     60 O2    c    0.631410 *  0.731350 *  0.872210 *   0.87073    1.000000    
     61 O2    c    0.868590 *  0.731350 *  0.872210 *   0.87073    1.000000    
     62 O2    c    0.631410 *  0.268650 *  0.872210 *   0.87073    1.000000    
     63 O2    c    0.131410 *  0.731350 *  0.127790 *   0.87073    1.000000    
     64 O2    c    0.368590 *  0.268650 *  0.127790 *   0.87073    1.000000    
     65 O2    c    0.653920 *  0.500000 *  0.058200 *   0.87073    1.000000    
     66 O2    c    0.846080 *  0.500000 *  0.058200 *   0.87073    1.000000    
     67 O2    c    0.346080 *  0.500000 *  0.941800 *   0.87073    1.000000    
     68 O2    c    0.153920 *  0.500000 *  0.941800 *   0.87073    1.000000    
     69 O2    c    0.750000 *  0.231060 *  0.027050 *   0.87073    1.000000    
     70 O2    c    0.750000 *  0.768940 *  0.027050 *   0.87073    1.000000    
     71 O2    c    0.250000 *  0.231060 *  0.972950 *   0.87073    1.000000    
     72 O2    c    0.250000 *  0.768940 *  0.972950 *   0.87073    1.000000    
     73 O3    s    0.106570 *  0.174340 *  0.366200 *  -3.33043    1.000000    
     74 O2    s    0.393430 *  0.825660 *  0.366200 *  -2.87073    1.000000    
     75 O2    s    0.893430 *  0.174340 *  0.633800 *  -2.87073    1.000000    
     76 O2    s    0.606570 *  0.825660 *  0.633800 *  -2.87073    1.000000    
     77 O2    s    0.893430 *  0.825660 *  0.633800 *  -2.87073    1.000000    
     78 O2    s    0.606570 *  0.174340 *  0.633800 *  -2.87073    1.000000    
     79 O3    s    0.106570 *  0.825660 *  0.366200 *  -3.33043    1.000000    
     80 O2    s    0.393430 *  0.174340 *  0.366200 *  -2.87073    1.000000    
     81 O3    s    0.000000 *  0.000000 *  0.500000 *  -3.33043    1.000000    
     82 O2    s    0.500000 *  0.000000 *  0.500000 *  -2.87073    1.000000    
     83 O3    s    0.994520 *  0.000000 *  0.250840 *  -3.33043    1.000000    
     84 O2    s    0.505480 *  0.000000 *  0.250840 *  -2.87073    1.000000    
     85 O3    s    0.005480 *  0.000000 *  0.749160 *  -3.33043    1.000000    
     86 O2    s    0.494520 *  0.000000 *  0.749160 *  -2.87073    1.000000    
     87 O2    s    0.610230 *  0.175520 *  0.115390 *  -2.87073    1.000000    
     88 O2    s    0.889770 *  0.824480 *  0.115390 *  -2.87073    1.000000    
     89 O2    s    0.389770 *  0.175520 *  0.884610 *  -2.87073    1.000000    
     90 O3    s    0.110230 *  0.824480 *  0.884610 *  -3.33043    1.000000    
     91 O2    s    0.389770 *  0.824480 *  0.884610 *  -2.87073    1.000000    
     92 O3    s    0.110230 *  0.175520 *  0.884610 *  -3.33043    1.000000    
     93 O2    s    0.610230 *  0.824480 *  0.115390 *  -2.87073    1.000000    
     94 O2    s    0.889770 *  0.175520 *  0.115390 *  -2.87073    1.000000    
     95 O2    s    0.500000 *  0.000000 *  0.000000 *  -2.87073    1.000000    
     96 O3    s    0.000000 *  0.000000 *  0.000000 *  -3.33043    1.000000    
     97 O2    s    0.151750 *  0.500000 *  0.313330 *  -2.87073    1.000000    
     98 O2    s    0.348250 *  0.500000 *  0.313330 *  -2.87073    1.000000    
     99 O2    s    0.848250 *  0.500000 *  0.686670 *  -2.87073    1.000000    
    100 O2    s    0.651750 *  0.500000 *  0.686670 *  -2.87073    1.000000    
    101 O2    s    0.250000 *  0.234950 *  0.285720 *  -2.87073    1.000000    
    102 O2    s    0.250000 *  0.765050 *  0.285720 *  -2.87073    1.000000    
    103 O2    s    0.750000 *  0.234950 *  0.714280 *  -2.87073    1.000000    
    104 O2    s    0.750000 *  0.765050 *  0.714280 *  -2.87073    1.000000    
    105 O2    s    0.131410 *  0.268650 *  0.127790 *  -2.87073    1.000000    
    106 O2    s    0.368590 *  0.731350 *  0.127790 *  -2.87073    1.000000    
    107 O2    s    0.868590 *  0.268650 *  0.872210 *  -2.87073    1.000000    
    108 O2    s    0.631410 *  0.731350 *  0.872210 *  -2.87073    1.000000    
    109 O2    s    0.868590 *  0.731350 *  0.872210 *  -2.87073    1.000000    
    110 O2    s    0.631410 *  0.268650 *  0.872210 *  -2.87073    1.000000    
    111 O2    s    0.131410 *  0.731350 *  0.127790 *  -2.87073    1.000000    
    112 O2    s    0.368590 *  0.268650 *  0.127790 *  -2.87073    1.000000    
    113 O2    s    0.653920 *  0.500000 *  0.058200 *  -2.87073    1.000000    
    114 O2    s    0.846080 *  0.500000 *  0.058200 *  -2.87073    1.000000    
    115 O2    s    0.346080 *  0.500000 *  0.941800 *  -2.87073    1.000000    
    116 O2    s    0.153920 *  0.500000 *  0.941800 *  -2.87073    1.000000    
    117 O2    s    0.750000 *  0.231060 *  0.027050 *  -2.87073    1.000000    
    118 O2    s    0.750000 *  0.768940 *  0.027050 *  -2.87073    1.000000    
    119 O2    s    0.250000 *  0.231060 *  0.972950 *  -2.87073    1.000000    
    120 O2    s    0.250000 *  0.768940 *  0.972950 *  -2.87073    1.000000    
--------------------------------------------------------------------------------



********************************************************************************
*  General input information                                                   *
********************************************************************************

  Species output for all configurations : 

--------------------------------------------------------------------------------
  Species    Type    Atomic    Atomic    Charge       Radii (Angs)     Library
                     Number     Mass       (e)     Cova   Ionic  VDW   Symbol
--------------------------------------------------------------------------------
    Ge       Core       32      72.61   4.000000   1.170  0.000  1.750 Ge       
    Si       Core       14      28.09   4.000000   1.200  0.000  2.100 Si       
    O1       Core        8      16.00   1.733957   0.730  0.000  0.000 O1       
    O2       Core        8      16.00   0.870733   0.730  0.000  1.360 O2       
    O3       Core        8      16.00   1.330431   0.730  0.000  1.360 O3       
    O1       Shell       8       0.00  -3.733957   0.730  0.000  0.000 O1       
    O2       Shell       8       0.00  -2.870733   0.730  0.000  0.000 O2       
    O3       Shell       8       0.00  -3.330431   0.730  0.000  0.000 O3       
--------------------------------------------------------------------------------


  Lattice summation method               =    Ewald          (3-D)
                                         =    Parry          (2-D)
                                         =    Saunders et al (1-D)
  Accuracy factor for lattice sums       =   12.000


  Analytic derivatives to be used

  Time limit = Infinity

  Maximum range for interatomic potentials =    100000.000000 Angstroms

  General interatomic potentials :

--------------------------------------------------------------------------------
Atom  Types   Potential      Parameter       Value         Units   Cutoffs(Ang)
  1     2                                                            Min /  Max 
--------------------------------------------------------------------------------
Si   c O1   s Buckingham    Buckingham A     1315.2478    eV        0.000 16.000
                            Buckingham rho  0.31775900    Ang       
                            Buckingham C     10.141118    eV*Ang^6  
--------------------------------------------------------------------------------
Si   c O2   s Buckingham    Buckingham A     1315.2478    eV        0.000 16.000
                            Buckingham rho  0.31775900    Ang       
                            Buckingham C     10.141118    eV*Ang^6  
--------------------------------------------------------------------------------
Si   c O3   s Buckingham    Buckingham A     1315.2478    eV        0.000 16.000
                            Buckingham rho  0.31775900    Ang       
                            Buckingham C     10.141118    eV*Ang^6  
--------------------------------------------------------------------------------
Ge   c O1   s Buckingham    Buckingham A     1497.3996    eV        0.000 16.000
                            Buckingham rho  0.32564600    Ang       
                            Buckingham C     16.808599    eV*Ang^6  
--------------------------------------------------------------------------------
Ge   c O2   s Buckingham    Buckingham A     1497.3996    eV        0.000 16.000
                            Buckingham rho  0.32564600    Ang       
                            Buckingham C     16.808599    eV*Ang^6  
--------------------------------------------------------------------------------
Ge   c O3   s Buckingham    Buckingham A     1497.3996    eV        0.000 16.000
                            Buckingham rho  0.32564600    Ang       
                            Buckingham C     16.808599    eV*Ang^6  
--------------------------------------------------------------------------------
O1   s O1   s Buckingham    Buckingham A     22764.000    eV        0.000 16.000
                            Buckingham rho  0.14900000    Ang       
                            Buckingham C     10.937044    eV*Ang^6  
--------------------------------------------------------------------------------
O1   s O2   s Buckingham    Buckingham A     22764.000    eV        0.000 16.000
                            Buckingham rho  0.14900000    Ang       
                            Buckingham C     10.937044    eV*Ang^6  
--------------------------------------------------------------------------------
O1   s O3   s Buckingham    Buckingham A     22764.000    eV        0.000 16.000
                            Buckingham rho  0.14900000    Ang       
                            Buckingham C     10.937044    eV*Ang^6  
--------------------------------------------------------------------------------
O2   s O2   s Buckingham    Buckingham A     22764.000    eV        0.000 16.000
                            Buckingham rho  0.14900000    Ang       
                            Buckingham C     10.937044    eV*Ang^6  
--------------------------------------------------------------------------------
O2   s O3   s Buckingham    Buckingham A     22764.000    eV        0.000 16.000
                            Buckingham rho  0.14900000    Ang       
                            Buckingham C     10.937044    eV*Ang^6  
--------------------------------------------------------------------------------
O3   s O3   s Buckingham    Buckingham A     22764.000    eV        0.000 16.000
                            Buckingham rho  0.14900000    Ang       
                            Buckingham C     10.937044    eV*Ang^6  
--------------------------------------------------------------------------------
O1   c O1   s Spring (c-s)  Spring k 2       180.31577    eV*Ang^-2 0.000  0.800
                            Spring k 4       0.0000000    eV*Ang^-4 
--------------------------------------------------------------------------------
O2   c O2   s Spring (c-s)  Spring k 2       75.969800    eV*Ang^-2 0.000  0.800
                            Spring k 4       0.0000000    eV*Ang^-4 
--------------------------------------------------------------------------------
O3   c O3   s Spring (c-s)  Spring k 2       128.14270    eV*Ang^-2 0.000  0.800
                            Spring k 4       0.0000000    eV*Ang^-4 
--------------------------------------------------------------------------------

  General Three-body potentials :

--------------------------------------------------------------------------------
  Atoms       Potential      Parameter       Value         Units   Cutoffs(Ang)
  1 / 2 / 3                                                          Min /  Max 
--------------------------------------------------------------------------------
Si    core    Harmonic      Three-body cnst  1.2614000    eV*rad^-2 0.000  1.900
O1    shel                  Three-body angl  109.47000    degrees   0.000  1.900
O1    shel                  Three-body k4    0.0000000    eV*rad^-4 0.000  3.500
                            Three-body k3    0.0000000    eV*rad^-3 
--------------------------------------------------------------------------------
Si    core    Harmonic      Three-body cnst  1.2614000    eV*rad^-2 0.000  1.900
O1    shel                  Three-body angl  109.47000    degrees   0.000  1.900
õ(1   shel                  Three-body k4    0.0000000    eV*rad^-4 0.000  3.500
                            Three-body k3    0.0000000    eV*rad^-3 
--------------------------------------------------------------------------------
Si    core    Harmonic      Three-body cnst  1.2614000    eV*rad^-2 0.000  1.900
õ(1   shel                  Three-body angl  109.47000    degrees   0.000  1.900
õ(1   shel                  Three-body k4    0.0000000    eV*rad^-4 0.000  3.500
                            Three-body k3    0.0000000    eV*rad^-3 
--------------------------------------------------------------------------------
Si    core    Harmonic      Three-body cnst  1.2614000    eV*rad^-2 0.000  1.900
O1    shel                  Three-body angl  109.47000    degrees   0.000  1.900
O2    shel                  Three-body k4    0.0000000    eV*rad^-4 0.000  3.500
                            Three-body k3    0.0000000    eV*rad^-3 
--------------------------------------------------------------------------------
Si    core    Harmonic      Three-body cnst  1.2614000    eV*rad^-2 0.000  1.900
O1    shel                  Three-body angl  109.47000    degrees   0.000  1.900
õ(2   shel                  Three-body k4    0.0000000    eV*rad^-4 0.000  3.500
                            Three-body k3    0.0000000    eV*rad^-3 
--------------------------------------------------------------------------------
Si    core    Harmonic      Three-body cnst  1.2614000    eV*rad^-2 0.000  1.900
O2    shel                  Three-body angl  109.47000    degrees   0.000  1.900
õ(1   shel                  Three-body k4    0.0000000    eV*rad^-4 0.000  3.500
                            Three-body k3    0.0000000    eV*rad^-3 
--------------------------------------------------------------------------------
Si    core    Harmonic      Three-body cnst  1.2614000    eV*rad^-2 0.000  1.900
õ(1   shel                  Three-body angl  109.47000    degrees   0.000  1.900
õ(2   shel                  Three-body k4    0.0000000    eV*rad^-4 0.000  3.500
                            Three-body k3    0.0000000    eV*rad^-3 
--------------------------------------------------------------------------------
Si    core    Harmonic      Three-body cnst  1.2614000    eV*rad^-2 0.000  1.900
O2    shel                  Three-body angl  109.47000    degrees   0.000  1.900
O2    shel                  Three-body k4    0.0000000    eV*rad^-4 0.000  3.500
                            Three-body k3    0.0000000    eV*rad^-3 
--------------------------------------------------------------------------------
Si    core    Harmonic      Three-body cnst  1.2614000    eV*rad^-2 0.000  1.900
O2    shel                  Three-body angl  109.47000    degrees   0.000  1.900
õ(2   shel                  Three-body k4    0.0000000    eV*rad^-4 0.000  3.500
                            Three-body k3    0.0000000    eV*rad^-3 
--------------------------------------------------------------------------------
Si    core    Harmonic      Three-body cnst  1.2614000    eV*rad^-2 0.000  1.900
õ(2   shel                  Three-body angl  109.47000    degrees   0.000  1.900
õ(2   shel                  Three-body k4    0.0000000    eV*rad^-4 0.000  3.500
                            Three-body k3    0.0000000    eV*rad^-3 
--------------------------------------------------------------------------------

********************************************************************************
*  Output for configuration   1 : c00007.vasp                                  *
********************************************************************************


  Components of energy : 

--------------------------------------------------------------------------------
  Interatomic potentials     =         752.34564416 eV    
  Three-body potentials      =           0.01398842 eV    
  Monopole - monopole (real) =       -2676.00317478 eV    
  Monopole - monopole (recip)=       -1115.35404472 eV    
  Monopole - monopole (total)=       -3791.35721950 eV    
--------------------------------------------------------------------------------
  Total lattice energy       =       -3038.99758692 eV    
--------------------------------------------------------------------------------
  Total lattice energy       =         -293216.8118 kJ/(mole unit cells)
--------------------------------------------------------------------------------


  Number of variables =      363

  Maximum number of calculations  =          1000
  Maximum Hessian update interval =            10
  Maximum step size               =   0.100000000
  Maximum parameter tolerance     =   0.000010000
  Maximum function  tolerance     =   0.000010000
  Maximum gradient  tolerance     =   0.001000000
  Maximum gradient  component     =   0.010000000

  Symmetry not applied to optimisation

  Cell parameters to be optimised using strains

  Newton-Raphson optimiser to be used

  BFGS hessian update to be used

  Lower half triangular hessian to be used

  Minimiser to switch to RFO
  When gradient norm is less than     0.050000

  Dumpfile to be written after every cycle

  Start of bulk optimisation :

  Cycle:      0 Energy:     -3038.997587  Gnorm:      4.220576  CPU:    0.097
  ** Hessian calculated **
  Cycle:      1 Energy:     -3051.690085  Gnorm:      3.340790  CPU:    0.260
  ** Hessian calculated **
  Cycle:      2 Energy:     -3071.196160  Gnorm:      0.737988  CPU:    0.439
  ** Hessian calculated **
  Cycle:      3 Energy:     -3072.695842  Gnorm:      0.369587  CPU:    0.618
  Cycle:      4 Energy:     -3073.082791  Gnorm:      0.215118  CPU:    0.710
  Cycle:      5 Energy:     -3073.341370  Gnorm:      0.168421  CPU:    0.820
  Cycle:      6 Energy:     -3073.602361  Gnorm:      0.128945  CPU:    0.929
  Cycle:      7 Energy:     -3073.813035  Gnorm:      0.115788  CPU:    1.039
  Cycle:      8 Energy:     -3073.915715  Gnorm:      0.092814  CPU:    1.132
  Cycle:      9 Energy:     -3073.985261  Gnorm:      0.083583  CPU:    1.225
  Cycle:     10 Energy:     -3074.034365  Gnorm:      0.075205  CPU:    1.335
  Cycle:     11 Energy:     -3074.074082  Gnorm:      0.073887  CPU:    1.446
  Cycle:     12 Energy:     -3074.115480  Gnorm:      0.073190  CPU:    1.556
  ** Hessian calculated **
  Cycle:     13 Energy:     -3074.166956  Gnorm:      0.070386  CPU:    1.752
  Cycle:     14 Energy:     -3074.250926  Gnorm:      0.065536  CPU:    1.880
  Cycle:     15 Energy:     -3074.354154  Gnorm:      0.058994  CPU:    1.990
  Cycle:     16 Energy:     -3074.513055  Gnorm:      0.047338  CPU:    2.118
  ** Hessian has wrong structure
  ** Imaginary eigenvectors =   3
  Cycle:     17 Energy:     -3074.555802  Gnorm:      0.103307  CPU:    2.405
  ** Hessian has wrong structure
  ** Imaginary eigenvectors =   2
  ** Hessian has wrong structure
  ** Imaginary eigenvectors =   1
  Cycle:     18 Energy:     -3074.602749  Gnorm:      0.108661  CPU:    2.872
  ** Hessian has required structure
  Cycle:     19 Energy:     -3074.803922  Gnorm:      0.085015  CPU:    3.055
  ** Hessian has required structure
  Cycle:     20 Energy:     -3074.930014  Gnorm:      0.053616  CPU:    3.204
  ** Hessian has required structure
  Cycle:     21 Energy:     -3075.000415  Gnorm:      0.036932  CPU:    3.353
  ** Hessian has required structure
  Cycle:     22 Energy:     -3075.054110  Gnorm:      0.032059  CPU:    3.503
  ** Hessian has required structure
  Cycle:     23 Energy:     -3075.072020  Gnorm:      0.029128  CPU:    3.654
  ** Hessian has required structure
  Cycle:     24 Energy:     -3075.086914  Gnorm:      0.026754  CPU:    3.803
  ** Hessian has required structure
  Cycle:     25 Energy:     -3075.100894  Gnorm:      0.023243  CPU:    3.952
  ** Hessian has required structure
  Cycle:     26 Energy:     -3075.108053  Gnorm:      0.025415  CPU:    4.084
  ** Hessian has required structure
  Cycle:     27 Energy:     -3075.112780  Gnorm:      0.018681  CPU:    4.215
  ** Hessian has required structure
  Cycle:     28 Energy:     -3075.115162  Gnorm:      0.018416  CPU:    4.463
  ** Hessian has required structure
  Cycle:     29 Energy:     -3075.121810  Gnorm:      0.004555  CPU:    4.613
  ** Hessian has required structure
  Cycle:     30 Energy:     -3075.122133  Gnorm:      0.003434  CPU:    4.762
  ** Hessian has required structure
  Cycle:     31 Energy:     -3075.122284  Gnorm:      0.000722  CPU:    4.911
  ** Hessian has required structure
  Cycle:     32 Energy:     -3075.122342  Gnorm:      0.000586  CPU:    5.078
  ** Hessian has required structure
  Cycle:     33 Energy:     -3075.122360  Gnorm:      0.000516  CPU:    5.228
  ** Hessian has required structure
  Cycle:     34 Energy:     -3075.122372  Gnorm:      0.000376  CPU:    5.411
  ** Hessian has required structure
  Cycle:     35 Energy:     -3075.095425  Gnorm:      0.055212  CPU:    5.594
  ** Hessian has required structure
  Cycle:     36 Energy:     -3075.111230  Gnorm:      0.035513  CPU:    5.842
  ** Hessian has required structure
  Cycle:     37 Energy:     -3075.119596  Gnorm:      0.017745  CPU:    6.008
  ** Hessian has required structure
  Cycle:     38 Energy:     -3075.121601  Gnorm:      0.009405  CPU:    6.173
  ** Hessian has required structure
  Cycle:     39 Energy:     -3075.121983  Gnorm:      0.006645  CPU:    6.339
  ** Hessian has required structure
  Cycle:     40 Energy:     -3075.122156  Gnorm:      0.005004  CPU:    6.503
  ** Hessian has required structure
  Cycle:     41 Energy:     -3075.122333  Gnorm:      0.002339  CPU:    6.651
  ** Hessian has required structure
  Cycle:     42 Energy:     -3075.122370  Gnorm:      0.001136  CPU:    6.816
  ** Hessian has required structure
  Cycle:     43 Energy:     -3075.122376  Gnorm:      0.000708  CPU:    6.966
  ** Hessian has required structure
  Cycle:     44 Energy:     -3075.122378  Gnorm:      0.000495  CPU:    7.096
  ** Hessian has required structure
  Cycle:     45 Energy:     -3075.122379  Gnorm:      0.000350  CPU:    7.228
  ** Hessian has required structure
  Cycle:     46 Energy:     -3075.122380  Gnorm:      0.000280  CPU:    7.440
  ** Hessian has required structure
  Cycle:     47 Energy:     -3075.122380  Gnorm:      0.000262  CPU:    7.571
  ** Hessian has required structure
  Cycle:     48 Energy:     -3075.122380  Gnorm:      0.000258  CPU:    7.703
  ** Hessian has required structure
  Cycle:     49 Energy:     -3075.122379  Gnorm:      0.000284  CPU:    7.903
  ** Hessian has required structure
  Cycle:     50 Energy:     -3075.122379  Gnorm:      0.000199  CPU:    8.115
  ** Hessian has required structure
  Cycle:     51 Energy:     -3075.122380  Gnorm:      0.000139  CPU:    8.246
  ** Hessian has required structure
  Cycle:     52 Energy:     -3075.122380  Gnorm:      0.000097  CPU:    8.378
  ** Hessian has required structure
  Cycle:     53 Energy:     -3075.122380  Gnorm:      0.000068  CPU:    8.508
  ** Hessian has required structure


  **** Optimisation achieved ****


  Final energy =   -3075.12237966 eV      
  Final Gnorm  =       0.00004773

  Components of energy : 

--------------------------------------------------------------------------------
  Interatomic potentials     =         817.81455951 eV    
  Three-body potentials      =           0.25035124 eV    
  Monopole - monopole (real) =       -2242.94192325 eV    
  Monopole - monopole (recip)=       -1650.24536716 eV    
  Monopole - monopole (total)=       -3893.18729041 eV    
--------------------------------------------------------------------------------
  Total lattice energy       =       -3075.12237966 eV    
--------------------------------------------------------------------------------
  Total lattice energy       =         -296702.3021 kJ/(mole unit cells)
--------------------------------------------------------------------------------

  Final fractional coordinates of atoms :

--------------------------------------------------------------------------------
   No.  Atomic        x           y          z          Radius
        Label       (Frac)      (Frac)     (Frac)       (Angs) 
--------------------------------------------------------------------------------
     1  Ge    c     0.052090    0.000000    0.372270    0.000000
     2  Ge    c     0.058527    0.996127    0.874821    0.000000
     3  Si    c     0.453976    0.018209    0.389147    0.000000
     4  Si    c     0.949134    0.003018    0.628593    0.000000
     5  Si    c     0.551365    0.009170    0.650625    0.000000
     6  Si    c     0.558408    0.011584    0.140440    0.000000
     7  Si    c     0.945756    0.013456    0.114915    0.000000
     8  Si    c     0.444832    0.011893    0.901882    0.000000
     9  Si    c     0.172855    0.285206    0.297871    0.000000
    10  Si    c     0.338172    0.726804    0.294947    0.000000
    11  Si    c     0.836565    0.296160    0.735777    0.000000
    12  Si    c     0.664948    0.719281    0.733040    0.000000
    13  Si    c     0.844800    0.700011    0.733179    0.000000
    14  Si    c     0.657778    0.314117    0.733474    0.000000
    15  Si    c     0.159012    0.692883    0.297305    0.000000
    16  Si    c     0.352804    0.324642    0.296567    0.000000
    17  Si    c     0.655250    0.322685    0.039341    0.000000
    18  Si    c     0.846702    0.699489    0.038760    0.000000
    19  Si    c     0.351968    0.326971    0.991981    0.000000
    20  Si    c     0.154108    0.685328    0.994410    0.000000
    21  Si    c     0.333800    0.723172    0.988337    0.000000
    22  Si    c     0.171655    0.282174    0.995925    0.000000
    23  Si    c     0.666339    0.722414    0.037920    0.000000
    24  Si    c     0.834407    0.302179    0.042985    0.000000
    25  O3    c     0.122360    0.163173    0.390607    0.000000
    26  O2    c     0.389883    0.864134    0.376126    0.000000
    27  O2    c     0.892038    0.165797    0.657522    0.000000
    28  O2    c     0.612261    0.847934    0.646541    0.000000
    29  O2    c     0.903034    0.819726    0.650102    0.000000
    30  O2    c     0.599371    0.192176    0.650425    0.000000
    31  O3    c     0.099839    0.800964    0.385163    0.000000
    32  O2    c     0.411579    0.206594    0.380565    0.000000
    33  O3    c     0.976281    0.014042    0.479940    0.000000
    34  O2    c     0.494805    0.001144    0.527974    0.000000
    35  O3    c     0.012403    0.029100    0.219467    0.000000
    36  O2    c     0.521370    0.999949    0.282456    0.000000
    37  O3    c     0.027163    0.008069    0.714928    0.000000
    38  O2    c     0.497668    0.991400    0.776599    0.000000
    39  O2    c     0.597693    0.202985    0.123792    0.000000
    40  O2    c     0.902894    0.823041    0.124741    0.000000
    41  O2    c     0.407841    0.206563    0.904030    0.000000
    42  O3    c     0.094831    0.788432    0.904584    0.000000
    43  O2    c     0.376632    0.865339    0.898062    0.000000
    44  O3    c     0.131062    0.150506    0.897413    0.000000
    45  O2    c     0.622852    0.859781    0.129792    0.000000
    46  O2    c     0.881306    0.166688    0.132223    0.000000
    47  O2    c     0.493706    0.975387    0.031796    0.000000
    48  O3    c     0.980555    0.041847    0.971617    0.000000
    49  O2    c     0.146261    0.486051    0.318302    0.000000
    50  O2    c     0.366713    0.529931    0.328764    0.000000
    51  O2    c     0.861583    0.495875    0.701702    0.000000
    52  O2    c     0.640687    0.517993    0.703135    0.000000
    53  O2    c     0.264460    0.269792    0.330885    0.000000
    54  O2    c     0.247766    0.746840    0.334296    0.000000
    55  O2    c     0.746468    0.266830    0.694839    0.000000
    56  O2    c     0.755724    0.747054    0.697600    0.000000
    57  O2    c     0.158806    0.224728    0.146922    0.000000
    58  O2    c     0.346898    0.766402    0.141167    0.000000
    59  O2    c     0.845032    0.259990    0.889708    0.000000
    60  O2    c     0.652562    0.766461    0.885489    0.000000
    61  O2    c     0.861644    0.737972    0.885759    0.000000
    62  O2    c     0.643905    0.275797    0.886667    0.000000
    63  O2    c     0.141964    0.743206    0.145670    0.000000
    64  O2    c     0.370110    0.288744    0.144018    0.000000
    65  O2    c     0.634856    0.525975    0.066632    0.000000
    66  O2    c     0.866480    0.498190    0.072752    0.000000
    67  O2    c     0.368432    0.530239    0.957372    0.000000
    68  O2    c     0.137803    0.478030    0.977418    0.000000
    69  O2    c     0.743970    0.286353    0.081233    0.000000
    70  O2    c     0.757266    0.737981    0.072567    0.000000
    71  O2    c     0.262847    0.280187    0.961736    0.000000
    72  O2    c     0.242713    0.729990    0.953006    0.000000
    73  O3    s     0.122043    0.162988    0.379595    0.000000
    74  O2    s     0.391004    0.865409    0.368297    0.000000
    75  O2    s     0.891871    0.163058    0.663385    0.000000
    76  O2    s     0.611659    0.850774    0.656590    0.000000
    77  O2    s     0.901342    0.825669    0.657221    0.000000
    78  O2    s     0.600742    0.186178    0.659663    0.000000
    79  O3    s     0.102088    0.805728    0.375180    0.000000
    80  O2    s     0.409603    0.199496    0.372184    0.000000
    81  O3    s     0.980006    0.011684    0.486030    0.000000
    82  O2    s     0.496719    0.004128    0.526156    0.000000
    83  O3    s     0.008298    0.024852    0.220741    0.000000
    84  O2    s     0.518061    0.003376    0.277928    0.000000
    85  O3    s     0.022103    0.006578    0.719468    0.000000
    86  O2    s     0.497544    0.995945    0.777121    0.000000
    87  O2    s     0.599952    0.195879    0.116008    0.000000
    88  O2    s     0.901114    0.828889    0.114333    0.000000
    89  O2    s     0.405658    0.199119    0.913454    0.000000
    90  O3    s     0.098154    0.794326    0.911654    0.000000
    91  O2    s     0.379172    0.865254    0.908532    0.000000
    92  O3    s     0.129387    0.151850    0.906152    0.000000
    93  O2    s     0.620780    0.860692    0.120394    0.000000
    94  O2    s     0.882759    0.165923    0.120516    0.000000
    95  O2    s     0.495590    0.983637    0.029539    0.000000
    96  O3    s     0.983829    0.035066    0.977578    0.000000
    97  O2    s     0.150537    0.487267    0.313801    0.000000
    98  O2    s     0.362186    0.528674    0.321736    0.000000
    99  O2    s     0.857131    0.496577    0.708666    0.000000
   100  O2    s     0.645154    0.517570    0.709611    0.000000
   101  O2    s     0.264154    0.277356    0.323678    0.000000
   102  O2    s     0.248160    0.739061    0.326237    0.000000
   103  O2    s     0.746651    0.274971    0.703265    0.000000
   104  O2    s     0.755557    0.739017    0.705189    0.000000
   105  O2    s     0.161516    0.236590    0.146662    0.000000
   106  O2    s     0.344536    0.757512    0.141355    0.000000
   107  O2    s     0.842927    0.268509    0.889381    0.000000
   108  O2    s     0.655350    0.756816    0.885554    0.000000
   109  O2    s     0.858275    0.729888    0.885681    0.000000
   110  O2    s     0.646591    0.284821    0.886664    0.000000
   111  O2    s     0.144918    0.732324    0.145552    0.000000
   112  O2    s     0.366342    0.296554    0.144109    0.000000
   113  O2    s     0.640386    0.525016    0.060633    0.000000
   114  O2    s     0.860950    0.499144    0.065917    0.000000
   115  O2    s     0.363034    0.528707    0.964343    0.000000
   116  O2    s     0.143122    0.479558    0.981209    0.000000
   117  O2    s     0.744170    0.292129    0.072435    0.000000
   118  O2    s     0.757123    0.731913    0.064943    0.000000
   119  O2    s     0.262855    0.285732    0.968927    0.000000
   120  O2    s     0.243275    0.724481    0.961277    0.000000
--------------------------------------------------------------------------------

  Final Cartesian lattice vectors (Angstroms) :

       17.162148   -0.046360   -0.022054
       -0.020069    7.608366   -0.011487
       -0.014518   -0.015608   10.218173


  Final cell parameters and derivatives :

--------------------------------------------------------------------------------
       a           17.162224 Angstrom     dE/de1(xx)    -0.002435 eV/strain
       b            7.608401 Angstrom     dE/de2(yy)    -0.004236 eV/strain
       c           10.218195 Angstrom     dE/de3(zz)     0.007664 eV/strain
       alpha       90.173805 Degrees      dE/de4(yz)    -0.000473 eV/strain
       beta        90.154796 Degrees      dE/de5(xz)    -0.000239 eV/strain
       gamma       90.305790 Degrees      dE/de6(xy)    -0.000781 eV/strain
--------------------------------------------------------------------------------

  Primitive cell volume =          1334.232077 Angs**3

  Density of cell =      1.905709 g/cm**3

  Non-primitive cell volume =          1334.232077 Angs**3


  Final internal derivatives :

--------------------------------------------------------------------------------
   No.  Atomic          a             b             c           Radius
        Label          (eV)          (eV)          (eV)        (eV/Angs)
--------------------------------------------------------------------------------
      1 Ge    c       0.000000      0.000000      0.000000      0.000000
      2 Ge    c       0.002760      0.000180      0.001328      0.000000
      3 Si    c      -0.003387     -0.000177     -0.000941      0.000000
      4 Si    c      -0.002571     -0.000221      0.001643      0.000000
      5 Si    c       0.003548      0.000407      0.000122      0.000000
      6 Si    c       0.002665      0.000247     -0.001288      0.000000
      7 Si    c      -0.003184     -0.000444      0.000446      0.000000
      8 Si    c      -0.003459      0.000026      0.000377      0.000000
      9 Si    c       0.000812      0.000519      0.001424      0.000000
     10 Si    c      -0.000257     -0.000212      0.001911      0.000000
     11 Si    c      -0.000948      0.000546     -0.001787      0.000000
     12 Si    c       0.000992     -0.000729     -0.001547      0.000000
     13 Si    c      -0.000838     -0.000461     -0.001576      0.000000
     14 Si    c       0.000420      0.000186     -0.001860      0.000000
     15 Si    c       0.001362     -0.000527      0.001593      0.000000
     16 Si    c      -0.001334      0.000618      0.001624      0.000000
     17 Si    c       0.000694      0.000523      0.001613      0.000000
     18 Si    c      -0.000433     -0.000195      0.001881      0.000000
     19 Si    c      -0.001346      0.000462     -0.001743      0.000000
     20 Si    c       0.001255     -0.000811     -0.001485      0.000000
     21 Si    c      -0.000698     -0.000465     -0.001571      0.000000
     22 Si    c       0.000606      0.000465     -0.001860      0.000000
     23 Si    c       0.000998     -0.000665      0.001739      0.000000
     24 Si    c      -0.000836      0.000775      0.001532      0.000000
     25 O3    c      -0.001988     -0.000899     -0.000218      0.000000
     26 O2    c       0.000752      0.000325     -0.000293      0.000000
     27 O2    c       0.000504     -0.000288      0.000029      0.000000
     28 O2    c      -0.000942      0.000449      0.000027      0.000000
     29 O2    c       0.000705      0.000563     -0.000039      0.000000
     30 O2    c      -0.000434     -0.000457      0.000441      0.000000
     31 O3    c      -0.000935      0.000581     -0.000246      0.000000
     32 O2    c       0.000763     -0.000474      0.000047      0.000000
     33 O3    c       0.000591      0.000136     -0.002139      0.000000
     34 O2    c       0.000168     -0.000123      0.000727      0.000000
     35 O3    c      -0.000652      0.000265     -0.001476      0.000000
     36 O2    c      -0.000363     -0.000108      0.001103      0.000000
     37 O3    c      -0.001364      0.000125     -0.001977      0.000000
     38 O2    c       0.000003     -0.000173      0.000191      0.000000
     39 O2    c      -0.000719     -0.000622      0.000045      0.000000
     40 O2    c       0.000333      0.000450     -0.000501      0.000000
     41 O2    c       0.000650     -0.000475      0.000115      0.000000
     42 O3    c      -0.001129      0.000648     -0.000291      0.000000
     43 O2    c       0.001449      0.000612      0.000091      0.000000
     44 O3    c      -0.001633     -0.000644      0.000127      0.000000
     45 O2    c      -0.000811      0.000377      0.000006      0.000000
     46 O2    c       0.000977     -0.000463     -0.000059      0.000000
     47 O2    c       0.000630     -0.000236      0.000815      0.000000
     48 O3    c       0.001023      0.000312     -0.001915      0.000000
     49 O2    c       0.000421      0.000070     -0.000311      0.000000
     50 O2    c      -0.000375     -0.000309     -0.000439      0.000000
     51 O2    c      -0.000468      0.000036      0.000462      0.000000
     52 O2    c       0.000502      0.000258      0.000430      0.000000
     53 O2    c       0.000039      0.000100     -0.000420      0.000000
     54 O2    c      -0.000409     -0.000119     -0.000478      0.000000
     55 O2    c       0.000349      0.000092      0.000474      0.000000
     56 O2    c      -0.000141     -0.000085      0.000412      0.000000
     57 O2    c      -0.000669     -0.000618      0.000319      0.000000
     58 O2    c       0.000586      0.000474     -0.000274      0.000000
     59 O2    c       0.000545     -0.000473      0.000198      0.000000
     60 O2    c      -0.000743      0.000539     -0.000149      0.000000
     61 O2    c       0.000931      0.000441     -0.000207      0.000000
     62 O2    c      -0.000726     -0.000492      0.000245      0.000000
     63 O2    c      -0.000799      0.000590     -0.000154      0.000000
     64 O2    c       0.001057     -0.000440      0.000049      0.000000
     65 O2    c       0.000602      0.000018     -0.000409      0.000000
     66 O2    c      -0.000634     -0.000301     -0.000449      0.000000
     67 O2    c      -0.000460     -0.000038      0.000422      0.000000
     68 O2    c       0.000511      0.000271      0.000259      0.000000
     69 O2    c       0.000099      0.000045     -0.000444      0.000000
     70 O2    c      -0.000287     -0.000060     -0.000432      0.000000
     71 O2    c       0.000404      0.000087      0.000431      0.000000
     72 O2    c       0.000134     -0.000053      0.000449      0.000000
     73 O3    s       0.001052      0.000463      0.000762      0.000000
     74 O2    s      -0.000288     -0.000094      0.000468      0.000000
     75 O2    s      -0.000138      0.000077     -0.000339      0.000000
     76 O2    s       0.000451     -0.000147     -0.000538      0.000000
     77 O2    s      -0.000165     -0.000125     -0.000341      0.000000
     78 O2    s       0.000252      0.000144     -0.000663      0.000000
     79 O3    s       0.000610     -0.000281      0.000791      0.000000
     80 O2    s      -0.000432      0.000083      0.000353      0.000000
     81 O3    s      -0.000462     -0.000080      0.001010      0.000000
     82 O2    s      -0.000102      0.000090     -0.000274      0.000000
     83 O3    s       0.000337     -0.000244      0.000841      0.000000
     84 O2    s       0.000217      0.000084     -0.000242      0.000000
     85 O3    s       0.000890     -0.000140      0.000842      0.000000
     86 O2    s      -0.000046      0.000101     -0.000181      0.000000
     87 O2    s       0.000348      0.000162      0.000296      0.000000
     88 O2    s      -0.000233     -0.000165      0.000775      0.000000
     89 O2    s      -0.000560      0.000150     -0.000555      0.000000
     90 O3    s       0.000810     -0.000260     -0.000197      0.000000
     91 O2    s      -0.000666     -0.000201     -0.000513      0.000000
     92 O3    s       0.000896      0.000344     -0.000458      0.000000
     93 O2    s       0.000407     -0.000154      0.000355      0.000000
     94 O2    s      -0.000506      0.000172      0.000659      0.000000
     95 O2    s      -0.000182      0.000202     -0.000185      0.000000
     96 O3    s      -0.000596     -0.000223      0.000769      0.000000
     97 O2    s       0.000273      0.000020      0.000359      0.000000
     98 O2    s      -0.000214      0.000031      0.000539      0.000000
     99 O2    s      -0.000155     -0.000008     -0.000561      0.000000
    100 O2    s       0.000167     -0.000034     -0.000498      0.000000
    101 O2    s       0.000008      0.000174      0.000516      0.000000
    102 O2    s       0.000053     -0.000152      0.000645      0.000000
    103 O2    s      -0.000035      0.000143     -0.000676      0.000000
    104 O2    s       0.000013     -0.000165     -0.000570      0.000000
    105 O2    s       0.000133      0.000253     -0.000047      0.000000
    106 O2    s      -0.000130     -0.000181      0.000063      0.000000
    107 O2    s      -0.000069      0.000199     -0.000053      0.000000
    108 O2    s       0.000182     -0.000253      0.000015      0.000000
    109 O2    s      -0.000390     -0.000196      0.000024      0.000000
    110 O2    s       0.000248      0.000223     -0.000085      0.000000
    111 O2    s       0.000232     -0.000256      0.000042      0.000000
    112 O2    s      -0.000414      0.000199      0.000023      0.000000
    113 O2    s       0.000218     -0.000020      0.000476      0.000000
    114 O2    s      -0.000185      0.000080      0.000535      0.000000
    115 O2    s      -0.000325     -0.000050     -0.000508      0.000000
    116 O2    s       0.000276      0.000011     -0.000308      0.000000
    117 O2    s       0.000016      0.000161      0.000622      0.000000
    118 O2    s       0.000001     -0.000141      0.000586      0.000000
    119 O2    s      -0.000071      0.000151     -0.000526      0.000000
    120 O2    s      -0.000055     -0.000163     -0.000565      0.000000
--------------------------------------------------------------------------------
  Maximum abs         0.003548      0.000899      0.002139      0.000000
--------------------------------------------------------------------------------


  Born effective charge tensors : 

-------------------------------------------------------------------------------
  Atom             x           y             z
-------------------------------------------------------------------------------
    1 Ge    x       4.3234     -0.1723      0.0357
            y       0.1029      3.8950      0.0023
            z      -0.9255      0.0076      4.3807
-------------------------------------------------------------------------------
    2 Ge    x       4.3709     -0.2012      0.4884
            y       0.1830      3.9320     -0.0230
            z       0.4582     -0.0376      3.8389
-------------------------------------------------------------------------------
    3 Si    x       3.4402     -0.1226      0.2789
            y       0.1116      3.2494     -0.0068
            z       0.3742     -0.0657      3.8312
-------------------------------------------------------------------------------
    4 Si    x       3.8330      0.0511     -0.4260
            y      -0.0655      3.3640      0.0064
            z      -0.1975     -0.0739      4.4100
-------------------------------------------------------------------------------
    5 Si    x       3.4661      0.0754      0.1076
            y      -0.0831      3.2492      0.0027
            z       0.5766     -0.0032      3.7730
-------------------------------------------------------------------------------
    6 Si    x       3.4762      0.1228     -0.2787
            y      -0.1383      3.2706     -0.0052
            z      -0.4378     -0.0196      3.1291
-------------------------------------------------------------------------------
    7 Si    x       3.8953      0.1511      0.1324
            y      -0.0849      3.3475      0.0165
            z       0.7900      0.0163      3.4555
-------------------------------------------------------------------------------
    8 Si    x       3.4654     -0.1639     -0.1475
            y       0.1550      3.2537      0.0177
            z      -0.5745      0.0498      3.0641
-------------------------------------------------------------------------------
    9 Si    x       3.4217      0.4334     -0.2945
            y       0.3235      3.5887     -0.3553
            z      -0.2200     -0.1585      2.9599
-------------------------------------------------------------------------------
   10 Si    x       3.1813      0.2951      0.1136
            y       0.2014      3.4750      0.1300
            z       0.1211      0.0906      2.8208
-------------------------------------------------------------------------------
   11 Si    x       3.2060     -0.2599     -0.0932
            y      -0.2257      3.4553      0.1286
            z      -0.1468      0.0940      2.8208
-------------------------------------------------------------------------------
   12 Si    x       3.2025     -0.2835      0.1268
            y      -0.2269      3.4648     -0.1607
            z       0.1036     -0.0640      2.8067
-------------------------------------------------------------------------------
   13 Si    x       3.1985      0.2046     -0.0783
            y       0.2644      3.4178     -0.1540
            z      -0.1038     -0.0901      2.8176
-------------------------------------------------------------------------------
   14 Si    x       3.1934      0.2296      0.0750
            y       0.2803      3.4438      0.1631
            z       0.1106      0.0791      2.8160
-------------------------------------------------------------------------------
   15 Si    x       3.4578     -0.3543     -0.2477
            y      -0.4283      3.5353      0.3433
            z      -0.2579      0.1590      2.9627
-------------------------------------------------------------------------------
   16 Si    x       3.1745     -0.2106      0.0824
            y      -0.3111      3.4418     -0.1644
            z       0.0899     -0.0962      2.8193
-------------------------------------------------------------------------------
   17 Si    x       3.2481      0.2522     -0.1384
            y       0.2587      3.4055     -0.1735
            z      -0.1755     -0.0647      2.7314
-------------------------------------------------------------------------------
   18 Si    x       3.2484      0.2503      0.1274
            y       0.2358      3.3688      0.1417
            z       0.1222      0.0614      2.6953
-------------------------------------------------------------------------------
   19 Si    x       3.2229     -0.2462     -0.1552
            y      -0.2755      3.4065      0.1576
            z      -0.1265      0.0744      2.7125
-------------------------------------------------------------------------------
   20 Si    x       3.5481     -0.3568      0.3368
            y      -0.3989      3.5110     -0.3638
            z       0.3329     -0.1453      2.8875
-------------------------------------------------------------------------------
   21 Si    x       3.2127      0.3328     -0.1668
            y       0.1187      3.4433     -0.1626
            z      -0.1092     -0.0837      2.7274
-------------------------------------------------------------------------------
   22 Si    x       3.3772      0.4447      0.3417
            y       0.2036      3.6113      0.4144
            z       0.2161      0.2185      2.9267
-------------------------------------------------------------------------------
   23 Si    x       3.2081     -0.3063     -0.1811
            y      -0.1283      3.4429      0.1836
            z      -0.1160      0.0867      2.7454
-------------------------------------------------------------------------------
   24 Si    x       3.2228     -0.2979      0.1374
            y      -0.1298      3.3993     -0.1481
            z       0.1138     -0.0630      2.7019
-------------------------------------------------------------------------------
   25 O3    x      -2.1422     -0.9449      0.4211
            y      -0.9975     -2.2676      0.4691
            z       0.5233      0.4365     -1.6179
-------------------------------------------------------------------------------
   26 O2    x      -1.7503     -0.7269     -0.3486
            y      -0.7691     -1.9698     -0.3591
            z      -0.3745     -0.3501     -1.3520
-------------------------------------------------------------------------------
   27 O2    x      -1.7244      0.7151      0.3947
            y       0.7361     -2.0021     -0.3997
            z       0.3939     -0.3856     -1.3752
-------------------------------------------------------------------------------
   28 O2    x      -1.7377      0.7241     -0.2936
            y       0.7577     -1.9570      0.3173
            z      -0.3560      0.3058     -1.3504
-------------------------------------------------------------------------------
   29 O2    x      -1.6587     -0.6772      0.3749
            y      -0.6542     -2.0065      0.3802
            z       0.3609      0.3754     -1.3882
-------------------------------------------------------------------------------
   30 O2    x      -1.6700     -0.7149     -0.2928
            y      -0.6999     -1.9989     -0.3130
            z      -0.3662     -0.3119     -1.3438
-------------------------------------------------------------------------------
   31 O3    x      -2.0720      0.9630      0.4538
            y       0.9229     -2.3389     -0.4406
            z       0.5718     -0.4417     -1.5990
-------------------------------------------------------------------------------
   32 O2    x      -1.6409      0.7034     -0.3389
            y       0.6721     -2.0210      0.3467
            z      -0.3550      0.3472     -1.3655
-------------------------------------------------------------------------------
   33 O3    x      -1.9869      0.0202      1.0350
            y       0.0134     -1.2145      0.0006
            z       1.2993      0.0105     -3.3587
-------------------------------------------------------------------------------
   34 O2    x      -1.6329      0.0259     -0.8154
            y       0.0030     -1.0875      0.0180
            z      -1.0591      0.0509     -2.7619
-------------------------------------------------------------------------------
   35 O3    x      -2.2338     -0.0086     -1.0563
            y      -0.0213     -1.2701      0.0042
            z      -0.9979      0.0216     -2.5924
-------------------------------------------------------------------------------
   36 O2    x      -1.7101      0.0116      0.6973
            y       0.0198     -1.1111     -0.0038
            z       0.6989      0.0030     -2.2236
-------------------------------------------------------------------------------
   37 O3    x      -2.2585      0.0271     -0.8992
            y      -0.0219     -1.2408      0.0123
            z      -0.8642      0.0449     -2.5886
-------------------------------------------------------------------------------
   38 O2    x      -1.7327      0.0291      0.7388
            y       0.0010     -1.1213     -0.0131
            z       0.7475     -0.0248     -2.2164
-------------------------------------------------------------------------------
   39 O2    x      -1.6645     -0.6943      0.3665
            y      -0.6175     -2.0180      0.3829
            z       0.3748      0.3616     -1.2497
-------------------------------------------------------------------------------
   40 O2    x      -1.6619     -0.6729     -0.2795
            y      -0.5936     -2.0101     -0.2924
            z      -0.3378     -0.2793     -1.2266
-------------------------------------------------------------------------------
   41 O2    x      -1.6347      0.6910      0.3188
            y       0.5936     -2.0282     -0.3395
            z       0.3501     -0.3308     -1.2340
-------------------------------------------------------------------------------
   42 O3    x      -2.0858      0.9407     -0.6586
            y       0.8153     -2.3612      0.6309
            z      -0.5776      0.5515     -1.5579
-------------------------------------------------------------------------------
   43 O2    x      -1.7511     -0.7079      0.2895
            y      -0.6930     -1.9240      0.3325
            z       0.3270      0.3167     -1.2448
-------------------------------------------------------------------------------
   44 O3    x      -2.0986     -0.9463     -0.6430
            y      -0.8954     -2.3022     -0.6736
            z      -0.5314     -0.5758     -1.6006
-------------------------------------------------------------------------------
   45 O2    x      -1.7317      0.7127      0.3732
            y       0.6824     -1.9343     -0.3883
            z       0.3470     -0.3523     -1.2690
-------------------------------------------------------------------------------
   46 O2    x      -1.7269      0.6930     -0.2402
            y       0.6637     -1.9241      0.2727
            z      -0.3061      0.2601     -1.2337
-------------------------------------------------------------------------------
   47 O2    x      -1.8038     -0.0050     -0.5968
            y      -0.0121     -1.1820      0.0059
            z      -0.3312      0.0065     -1.6962
-------------------------------------------------------------------------------
   48 O3    x      -2.1533      0.0579      0.7800
            y       0.0416     -1.3278     -0.0006
            z       0.4469      0.0096     -2.1000
-------------------------------------------------------------------------------
   49 O2    x      -1.1965      0.0631      0.0685
            y       0.1091     -2.4853      0.0019
            z       0.0782      0.0073     -1.0721
-------------------------------------------------------------------------------
   50 O2    x      -1.1532      0.0625     -0.0634
            y       0.1226     -2.5504      0.0120
            z      -0.0740     -0.0047     -1.0793
-------------------------------------------------------------------------------
   51 O2    x      -1.1629     -0.0357      0.0615
            y      -0.0627     -2.5592      0.0166
            z       0.0779     -0.0007     -1.0784
-------------------------------------------------------------------------------
   52 O2    x      -1.1503     -0.0315     -0.0612
            y      -0.0564     -2.5680      0.0028
            z      -0.0732      0.0086     -1.0699
-------------------------------------------------------------------------------
   53 O2    x      -2.3769     -0.1005     -0.0070
            y      -0.0403     -1.2551      0.0726
            z      -0.0031      0.0482     -1.0694
-------------------------------------------------------------------------------
   54 O2    x      -2.3723     -0.1163     -0.0005
            y      -0.0728     -1.2641     -0.0749
            z       0.0228     -0.0494     -1.0836
-------------------------------------------------------------------------------
   55 O2    x      -2.3787      0.0595     -0.0076
            y       0.0227     -1.2490     -0.0664
            z      -0.0114     -0.0527     -1.0766
-------------------------------------------------------------------------------
   56 O2    x      -2.3970      0.0664     -0.0014
            y       0.0355     -1.2489      0.0665
            z       0.0100      0.0480     -1.0642
-------------------------------------------------------------------------------
   57 O2    x      -1.2272     -0.1520     -0.0166
            y      -0.1076     -1.3364      0.0136
            z      -0.0235     -0.0083     -1.9932
-------------------------------------------------------------------------------
   58 O2    x      -1.1719     -0.1266      0.0073
            y      -0.0885     -1.2806     -0.0130
            z      -0.0046      0.0024     -2.0791
-------------------------------------------------------------------------------
   59 O2    x      -1.1752      0.1174     -0.0165
            y       0.0862     -1.2718     -0.0202
            z      -0.0088     -0.0019     -2.0753
-------------------------------------------------------------------------------
   60 O2    x      -1.1765      0.1306      0.0187
            y       0.1013     -1.2848      0.0093
            z       0.0099     -0.0092     -2.0628
-------------------------------------------------------------------------------
   61 O2    x      -1.2070     -0.1229     -0.0246
            y      -0.1181     -1.2600     -0.0042
            z      -0.0407     -0.0037     -2.0641
-------------------------------------------------------------------------------
   62 O2    x      -1.1882     -0.1213      0.0375
            y      -0.1197     -1.2724     -0.0128
            z       0.0437     -0.0226     -2.0745
-------------------------------------------------------------------------------
   63 O2    x      -1.2446      0.1422     -0.0377
            y       0.1365     -1.3139     -0.0174
            z      -0.0535     -0.0205     -2.0096
-------------------------------------------------------------------------------
   64 O2    x      -1.2009      0.1258      0.0174
            y       0.1321     -1.2631     -0.0010
            z       0.0287      0.0055     -2.0627
-------------------------------------------------------------------------------
   65 O2    x      -1.2165     -0.0393      0.0862
            y      -0.0902     -2.5099      0.0063
            z       0.1003      0.0097     -1.0222
-------------------------------------------------------------------------------
   66 O2    x      -1.2246     -0.0455     -0.0872
            y      -0.0995     -2.4665      0.0217
            z      -0.0974      0.0073     -1.0250
-------------------------------------------------------------------------------
   67 O2    x      -1.2156      0.0707      0.0910
            y       0.1500     -2.4827      0.0222
            z       0.0963      0.0067     -1.0310
-------------------------------------------------------------------------------
   68 O2    x      -1.2674      0.0755     -0.0911
            y       0.1299     -2.4601      0.0047
            z      -0.1004      0.0065     -1.0259
-------------------------------------------------------------------------------
   69 O2    x      -2.3940      0.0593     -0.0080
            y       0.0294     -1.2315      0.0645
            z       0.0086      0.0382     -1.0468
-------------------------------------------------------------------------------
   70 O2    x      -2.4202      0.0724      0.0005
            y       0.0535     -1.2391     -0.0597
            z       0.0044     -0.0383     -1.0310
-------------------------------------------------------------------------------
   71 O2    x      -2.4042     -0.1104      0.0419
            y      -0.0642     -1.2490     -0.0640
            z       0.0060     -0.0391     -1.0367
-------------------------------------------------------------------------------
   72 O2    x      -2.4090     -0.1273      0.0346
            y      -0.0787     -1.2515      0.0784
            z       0.0012      0.0413     -1.0552
-------------------------------------------------------------------------------




  Elastic Constant Matrix: (Units=GPa)

-------------------------------------------------------------------------------
  Indices      1         2         3         4         5         6    
-------------------------------------------------------------------------------
       1     53.7568   27.2631   26.0010   -1.3897   -1.2064   -5.0812
       2     27.2631   75.4013   27.1513   -1.5013   -0.6332   -4.7753
       3     26.0010   27.1513   21.7395    0.3774    0.4720   -1.7092
       4     -1.3897   -1.5013    0.3774   11.8694   -0.6093    0.3697
       5     -1.2064   -0.6332    0.4720   -0.6093   25.9852   -1.9730
       6     -5.0812   -4.7753   -1.7092    0.3697   -1.9730   26.3789
-------------------------------------------------------------------------------


  Elastic Compliance Matrix: (Units=1/GPa)

-------------------------------------------------------------------------------
  Indices      1         2         3         4         5         6    
-------------------------------------------------------------------------------
       1    0.047606  0.006917 -0.065315  0.008545  0.004250  0.006388
       2    0.006917  0.025502 -0.039989  0.005305  0.002054  0.003437
       3   -0.065315 -0.039989  0.173859 -0.018380 -0.008272 -0.008917
       4    0.008545  0.005305 -0.018380  0.086643  0.002923  0.000420
       5    0.004250  0.002054 -0.008272  0.002923  0.039219  0.003547
       6    0.006388  0.003437 -0.008917  0.000420  0.003547  0.039444
-------------------------------------------------------------------------------

  Mechanical properties :

-------------------------------------------------------------------------------
  Convention :                    Reuss         Voigt         Hill
-------------------------------------------------------------------------------
  Bulk  Modulus (GPa)     =      19.92336      34.63647      27.27991
  Shear Modulus (GPa)     =       7.99007      17.54553      12.76780
-------------------------------------------------------------------------------
  Velocity S-wave (km/s)  =       2.04761       3.03428       2.58839
  Velocity P-wave (km/s)  =       4.00560       5.51823       4.82160
-------------------------------------------------------------------------------
  Compressibility (1/GPa) =    0.05019234
-------------------------------------------------------------------------------
  Stress axis :                     x             y             z
-------------------------------------------------------------------------------
  Youngs Moduli (GPa)     =      21.00581      39.21299       5.75179
-------------------------------------------------------------------------------
  Poissons Ratio (x)      =                    -0.27122       0.37568
  Poissons Ratio (y)      =      -0.14529                     0.23001
  Poissons Ratio (z)      =       1.37199       1.56809
-------------------------------------------------------------------------------


  Piezoelectric Strain Matrix: (Units=C/m**2)

-------------------------------------------------------------------------------
  Indices      1         2         3         4         5         6    
-------------------------------------------------------------------------------
       x     0.29632   0.76503  -0.24671   0.13963   0.29091  -0.01364
       y     0.19788   0.09880  -0.13272   0.19309   0.15755   0.38626
       z     0.66517   0.21990   0.95198   0.00789  -0.61449   0.02243
-------------------------------------------------------------------------------


  Piezoelectric Stress Matrix: (Units=10**-11 C/N)

-------------------------------------------------------------------------------
  Indices      1         2         3         4         5         6    
-------------------------------------------------------------------------------
       x     3.78541   3.27164  -9.76910   2.40676   1.66408   0.72746
       y     2.35598   1.18715  -4.82476   2.20066   1.02555   1.86626
       z    -3.13920  -2.90034  11.80088  -1.17508  -2.85933  -0.47746
-------------------------------------------------------------------------------


  Static dielectric constant tensor : 

-------------------------------------------------------------------------------
              x         y         z
-------------------------------------------------------------------------------
       x     3.77481  -0.00982  -0.00848
       y    -0.00982   3.88698   0.04084
       z    -0.00848   0.04084   3.35339
--------------------------------------------------------------------------------

  High frequency dielectric constant tensor : 

-------------------------------------------------------------------------------
              x         y         z
-------------------------------------------------------------------------------
       x     1.68619  -0.00078  -0.00019
       y    -0.00078   1.69496  -0.00003
       z    -0.00019  -0.00003   1.62354
-------------------------------------------------------------------------------

  Static refractive indices : 

-------------------------------------------------------------------------------
    1 =    1.83034      2 =    1.94268      3 =    1.97257
-------------------------------------------------------------------------------

  High frequency refractive indices : 

-------------------------------------------------------------------------------
    1 =    1.27418      2 =    1.29851      3 =    1.30193
-------------------------------------------------------------------------------


  Time to end of optimisation =       8.8106 seconds


  Peak dynamic memory used =       5.01 MB 


  Timing analysis for GULP :

--------------------------------------------------------------------------------
  Task / Subroutine                                          Time (Seconds)
--------------------------------------------------------------------------------
  Calculation of reciprocal space energy and derivatives          0.5208
  Calculation of real space energy and derivatives                5.4486
  Calculation of three-body energy and derivatives                0.5987
  Calculation and manipulation of Hessian matrix                  2.4267
  Calculation of matrix inversion                                 0.0262
  Global summation overhead                                       0.0001
--------------------------------------------------------------------------------
  Total CPU time                                                  8.8106
--------------------------------------------------------------------------------


  Dump file written as c00007.vasp.grs
  CIF file written as c00007.vasp.cif


  Job Finished at 10:47.39  7th October    2025                               

