********************************************************************************
*                       GENERAL UTILITY LATTICE PROGRAM                        *
*                                 Julian Gale                                  *
*                       Curtin Institute for Computation                       *
*                    School of Molecular and Life Sciences                     *
*                    Curtin University, Western Australia                      *
********************************************************************************
* Version = 6.1.2 * Last modified =   3rd November 2022                        *
********************************************************************************
*  optimise     - perform optimisation run                                     *
*  conp         - constant pressure calculation                                *
*  property     - calculate properties for final geometry                      *
********************************************************************************

  Job Started  at 10:49.41  7th October    2025                               

  Number of CPUs =     1


  Total number of configurations input =      1

********************************************************************************
*  Input for Configuration =   1 : c00019.vasp                                 *
********************************************************************************

  Formula = Ge2Si22O48                                                  

  Number of irreducible atoms/shells =     120


  Total number atoms/shells =     120

  Dimensionality = 3               :  Bulk   



  Cartesian lattice vectors (Angstroms) :

       17.182800    0.000000    0.000000
        0.000000    7.513760    0.000000
        0.000000    0.000000   10.447700

  Cell parameters (Angstroms/Degrees):

  a =      17.1828    alpha =  90.0000
  b =       7.5138    beta  =  90.0000
  c =      10.4477    gamma =  90.0000

  Initial cell volume =        1348.875752 Angs**3

  Temperature of configuration =   0.00     K 

  Pressure of configuration =         0.000 GPa 

  Fractional coordinates of asymmetric unit :

--------------------------------------------------------------------------------
   No.  Atomic       x           y          z         Charge      Occupancy
        Label      (Frac)      (Frac)     (Frac)        (e)         (Frac)  
--------------------------------------------------------------------------------
      1 Ge    c    0.556730    0.000000    0.122130     4.00000    1.000000    
      2 Ge    c    0.160190 *  0.293910 *  0.273440 *   4.00000    1.000000    
      3 Si    c    0.052090 *  0.000000 *  0.372270 *   4.00000    1.000000    
      4 Si    c    0.447910 *  0.000000 *  0.372270 *   4.00000    1.000000    
      5 Si    c    0.947910 *  0.000000 *  0.627730 *   4.00000    1.000000    
      6 Si    c    0.552090 *  0.000000 *  0.627730 *   4.00000    1.000000    
      7 Si    c    0.943270 *  0.000000 *  0.122130 *   4.00000    1.000000    
      8 Si    c    0.443270 *  0.000000 *  0.877870 *   4.00000    1.000000    
      9 Si    c    0.056730 *  0.000000 *  0.877870 *   4.00000    1.000000    
     10 Si    c    0.339810 *  0.706090 *  0.273440 *   4.00000    1.000000    
     11 Si    c    0.839810 *  0.293910 *  0.726560 *   4.00000    1.000000    
     12 Si    c    0.660190 *  0.706090 *  0.726560 *   4.00000    1.000000    
     13 Si    c    0.839810 *  0.706090 *  0.726560 *   4.00000    1.000000    
     14 Si    c    0.660190 *  0.293910 *  0.726560 *   4.00000    1.000000    
     15 Si    c    0.160190 *  0.706090 *  0.273440 *   4.00000    1.000000    
     16 Si    c    0.339810 *  0.293910 *  0.273440 *   4.00000    1.000000    
     17 Si    c    0.660660 *  0.294090 *  0.017440 *   4.00000    1.000000    
     18 Si    c    0.839340 *  0.705910 *  0.017440 *   4.00000    1.000000    
     19 Si    c    0.339340 *  0.294090 *  0.982560 *   4.00000    1.000000    
     20 Si    c    0.160660 *  0.705910 *  0.982560 *   4.00000    1.000000    
     21 Si    c    0.339340 *  0.705910 *  0.982560 *   4.00000    1.000000    
     22 Si    c    0.160660 *  0.294090 *  0.982560 *   4.00000    1.000000    
     23 Si    c    0.660660 *  0.705910 *  0.017440 *   4.00000    1.000000    
     24 Si    c    0.839340 *  0.294090 *  0.017440 *   4.00000    1.000000    
     25 O3    c    0.106570 *  0.174340 *  0.366200 *   1.33043    1.000000    
     26 O2    c    0.393430 *  0.825660 *  0.366200 *   0.87073    1.000000    
     27 O2    c    0.893430 *  0.174340 *  0.633800 *   0.87073    1.000000    
     28 O2    c    0.606570 *  0.825660 *  0.633800 *   0.87073    1.000000    
     29 O2    c    0.893430 *  0.825660 *  0.633800 *   0.87073    1.000000    
     30 O2    c    0.606570 *  0.174340 *  0.633800 *   0.87073    1.000000    
     31 O2    c    0.106570 *  0.825660 *  0.366200 *   0.87073    1.000000    
     32 O2    c    0.393430 *  0.174340 *  0.366200 *   0.87073    1.000000    
     33 O2    c    0.000000 *  0.000000 *  0.500000 *   0.87073    1.000000    
     34 O2    c    0.500000 *  0.000000 *  0.500000 *   0.87073    1.000000    
     35 O2    c    0.994520 *  0.000000 *  0.250840 *   0.87073    1.000000    
     36 O3    c    0.505480 *  0.000000 *  0.250840 *   1.33043    1.000000    
     37 O2    c    0.005480 *  0.000000 *  0.749160 *   0.87073    1.000000    
     38 O2    c    0.494520 *  0.000000 *  0.749160 *   0.87073    1.000000    
     39 O3    c    0.610230 *  0.175520 *  0.115390 *   1.33043    1.000000    
     40 O2    c    0.889770 *  0.824480 *  0.115390 *   0.87073    1.000000    
     41 O2    c    0.389770 *  0.175520 *  0.884610 *   0.87073    1.000000    
     42 O2    c    0.110230 *  0.824480 *  0.884610 *   0.87073    1.000000    
     43 O2    c    0.389770 *  0.824480 *  0.884610 *   0.87073    1.000000    
     44 O2    c    0.110230 *  0.175520 *  0.884610 *   0.87073    1.000000    
     45 O3    c    0.610230 *  0.824480 *  0.115390 *   1.33043    1.000000    
     46 O2    c    0.889770 *  0.175520 *  0.115390 *   0.87073    1.000000    
     47 O3    c    0.500000 *  0.000000 *  0.000000 *   1.33043    1.000000    
     48 O2    c    0.000000 *  0.000000 *  0.000000 *   0.87073    1.000000    
     49 O3    c    0.151750 *  0.500000 *  0.313330 *   1.33043    1.000000    
     50 O2    c    0.348250 *  0.500000 *  0.313330 *   0.87073    1.000000    
     51 O2    c    0.848250 *  0.500000 *  0.686670 *   0.87073    1.000000    
     52 O2    c    0.651750 *  0.500000 *  0.686670 *   0.87073    1.000000    
     53 O3    c    0.250000 *  0.234950 *  0.285720 *   1.33043    1.000000    
     54 O2    c    0.250000 *  0.765050 *  0.285720 *   0.87073    1.000000    
     55 O2    c    0.750000 *  0.234950 *  0.714280 *   0.87073    1.000000    
     56 O2    c    0.750000 *  0.765050 *  0.714280 *   0.87073    1.000000    
     57 O3    c    0.131410 *  0.268650 *  0.127790 *   1.33043    1.000000    
     58 O2    c    0.368590 *  0.731350 *  0.127790 *   0.87073    1.000000    
     59 O2    c    0.868590 *  0.268650 *  0.872210 *   0.87073    1.000000    
     60 O2    c    0.631410 *  0.731350 *  0.872210 *   0.87073    1.000000    
     61 O2    c    0.868590 *  0.731350 *  0.872210 *   0.87073    1.000000    
     62 O2    c    0.631410 *  0.268650 *  0.872210 *   0.87073    1.000000    
     63 O2    c    0.131410 *  0.731350 *  0.127790 *   0.87073    1.000000    
     64 O2    c    0.368590 *  0.268650 *  0.127790 *   0.87073    1.000000    
     65 O2    c    0.653920 *  0.500000 *  0.058200 *   0.87073    1.000000    
     66 O2    c    0.846080 *  0.500000 *  0.058200 *   0.87073    1.000000    
     67 O2    c    0.346080 *  0.500000 *  0.941800 *   0.87073    1.000000    
     68 O2    c    0.153920 *  0.500000 *  0.941800 *   0.87073    1.000000    
     69 O2    c    0.750000 *  0.231060 *  0.027050 *   0.87073    1.000000    
     70 O2    c    0.750000 *  0.768940 *  0.027050 *   0.87073    1.000000    
     71 O2    c    0.250000 *  0.231060 *  0.972950 *   0.87073    1.000000    
     72 O2    c    0.250000 *  0.768940 *  0.972950 *   0.87073    1.000000    
     73 O3    s    0.106570 *  0.174340 *  0.366200 *  -3.33043    1.000000    
     74 O2    s    0.393430 *  0.825660 *  0.366200 *  -2.87073    1.000000    
     75 O2    s    0.893430 *  0.174340 *  0.633800 *  -2.87073    1.000000    
     76 O2    s    0.606570 *  0.825660 *  0.633800 *  -2.87073    1.000000    
     77 O2    s    0.893430 *  0.825660 *  0.633800 *  -2.87073    1.000000    
     78 O2    s    0.606570 *  0.174340 *  0.633800 *  -2.87073    1.000000    
     79 O2    s    0.106570 *  0.825660 *  0.366200 *  -2.87073    1.000000    
     80 O2    s    0.393430 *  0.174340 *  0.366200 *  -2.87073    1.000000    
     81 O2    s    0.000000 *  0.000000 *  0.500000 *  -2.87073    1.000000    
     82 O2    s    0.500000 *  0.000000 *  0.500000 *  -2.87073    1.000000    
     83 O2    s    0.994520 *  0.000000 *  0.250840 *  -2.87073    1.000000    
     84 O3    s    0.505480 *  0.000000 *  0.250840 *  -3.33043    1.000000    
     85 O2    s    0.005480 *  0.000000 *  0.749160 *  -2.87073    1.000000    
     86 O2    s    0.494520 *  0.000000 *  0.749160 *  -2.87073    1.000000    
     87 O3    s    0.610230 *  0.175520 *  0.115390 *  -3.33043    1.000000    
     88 O2    s    0.889770 *  0.824480 *  0.115390 *  -2.87073    1.000000    
     89 O2    s    0.389770 *  0.175520 *  0.884610 *  -2.87073    1.000000    
     90 O2    s    0.110230 *  0.824480 *  0.884610 *  -2.87073    1.000000    
     91 O2    s    0.389770 *  0.824480 *  0.884610 *  -2.87073    1.000000    
     92 O2    s    0.110230 *  0.175520 *  0.884610 *  -2.87073    1.000000    
     93 O3    s    0.610230 *  0.824480 *  0.115390 *  -3.33043    1.000000    
     94 O2    s    0.889770 *  0.175520 *  0.115390 *  -2.87073    1.000000    
     95 O3    s    0.500000 *  0.000000 *  0.000000 *  -3.33043    1.000000    
     96 O2    s    0.000000 *  0.000000 *  0.000000 *  -2.87073    1.000000    
     97 O3    s    0.151750 *  0.500000 *  0.313330 *  -3.33043    1.000000    
     98 O2    s    0.348250 *  0.500000 *  0.313330 *  -2.87073    1.000000    
     99 O2    s    0.848250 *  0.500000 *  0.686670 *  -2.87073    1.000000    
    100 O2    s    0.651750 *  0.500000 *  0.686670 *  -2.87073    1.000000    
    101 O3    s    0.250000 *  0.234950 *  0.285720 *  -3.33043    1.000000    
    102 O2    s    0.250000 *  0.765050 *  0.285720 *  -2.87073    1.000000    
    103 O2    s    0.750000 *  0.234950 *  0.714280 *  -2.87073    1.000000    
    104 O2    s    0.750000 *  0.765050 *  0.714280 *  -2.87073    1.000000    
    105 O3    s    0.131410 *  0.268650 *  0.127790 *  -3.33043    1.000000    
    106 O2    s    0.368590 *  0.731350 *  0.127790 *  -2.87073    1.000000    
    107 O2    s    0.868590 *  0.268650 *  0.872210 *  -2.87073    1.000000    
    108 O2    s    0.631410 *  0.731350 *  0.872210 *  -2.87073    1.000000    
    109 O2    s    0.868590 *  0.731350 *  0.872210 *  -2.87073    1.000000    
    110 O2    s    0.631410 *  0.268650 *  0.872210 *  -2.87073    1.000000    
    111 O2    s    0.131410 *  0.731350 *  0.127790 *  -2.87073    1.000000    
    112 O2    s    0.368590 *  0.268650 *  0.127790 *  -2.87073    1.000000    
    113 O2    s    0.653920 *  0.500000 *  0.058200 *  -2.87073    1.000000    
    114 O2    s    0.846080 *  0.500000 *  0.058200 *  -2.87073    1.000000    
    115 O2    s    0.346080 *  0.500000 *  0.941800 *  -2.87073    1.000000    
    116 O2    s    0.153920 *  0.500000 *  0.941800 *  -2.87073    1.000000    
    117 O2    s    0.750000 *  0.231060 *  0.027050 *  -2.87073    1.000000    
    118 O2    s    0.750000 *  0.768940 *  0.027050 *  -2.87073    1.000000    
    119 O2    s    0.250000 *  0.231060 *  0.972950 *  -2.87073    1.000000    
    120 O2    s    0.250000 *  0.768940 *  0.972950 *  -2.87073    1.000000    
--------------------------------------------------------------------------------



********************************************************************************
*  General input information                                                   *
********************************************************************************

  Species output for all configurations : 

--------------------------------------------------------------------------------
  Species    Type    Atomic    Atomic    Charge       Radii (Angs)     Library
                     Number     Mass       (e)     Cova   Ionic  VDW   Symbol
--------------------------------------------------------------------------------
    Ge       Core       32      72.61   4.000000   1.170  0.000  1.750 Ge       
    Si       Core       14      28.09   4.000000   1.200  0.000  2.100 Si       
    O1       Core        8      16.00   1.733957   0.730  0.000  0.000 O1       
    O2       Core        8      16.00   0.870733   0.730  0.000  1.360 O2       
    O3       Core        8      16.00   1.330431   0.730  0.000  1.360 O3       
    O1       Shell       8       0.00  -3.733957   0.730  0.000  0.000 O1       
    O2       Shell       8       0.00  -2.870733   0.730  0.000  0.000 O2       
    O3       Shell       8       0.00  -3.330431   0.730  0.000  0.000 O3       
--------------------------------------------------------------------------------


  Lattice summation method               =    Ewald          (3-D)
                                         =    Parry          (2-D)
                                         =    Saunders et al (1-D)
  Accuracy factor for lattice sums       =   12.000


  Analytic derivatives to be used

  Time limit = Infinity

  Maximum range for interatomic potentials =    100000.000000 Angstroms

  General interatomic potentials :

--------------------------------------------------------------------------------
Atom  Types   Potential      Parameter       Value         Units   Cutoffs(Ang)
  1     2                                                            Min /  Max 
--------------------------------------------------------------------------------
Si   c O1   s Buckingham    Buckingham A     1315.2478    eV        0.000 16.000
                            Buckingham rho  0.31775900    Ang       
                            Buckingham C     10.141118    eV*Ang^6  
--------------------------------------------------------------------------------
Si   c O2   s Buckingham    Buckingham A     1315.2478    eV        0.000 16.000
                            Buckingham rho  0.31775900    Ang       
                            Buckingham C     10.141118    eV*Ang^6  
--------------------------------------------------------------------------------
Si   c O3   s Buckingham    Buckingham A     1315.2478    eV        0.000 16.000
                            Buckingham rho  0.31775900    Ang       
                            Buckingham C     10.141118    eV*Ang^6  
--------------------------------------------------------------------------------
Ge   c O1   s Buckingham    Buckingham A     1497.3996    eV        0.000 16.000
                            Buckingham rho  0.32564600    Ang       
                            Buckingham C     16.808599    eV*Ang^6  
--------------------------------------------------------------------------------
Ge   c O2   s Buckingham    Buckingham A     1497.3996    eV        0.000 16.000
                            Buckingham rho  0.32564600    Ang       
                            Buckingham C     16.808599    eV*Ang^6  
--------------------------------------------------------------------------------
Ge   c O3   s Buckingham    Buckingham A     1497.3996    eV        0.000 16.000
                            Buckingham rho  0.32564600    Ang       
                            Buckingham C     16.808599    eV*Ang^6  
--------------------------------------------------------------------------------
O1   s O1   s Buckingham    Buckingham A     22764.000    eV        0.000 16.000
                            Buckingham rho  0.14900000    Ang       
                            Buckingham C     10.937044    eV*Ang^6  
--------------------------------------------------------------------------------
O1   s O2   s Buckingham    Buckingham A     22764.000    eV        0.000 16.000
                            Buckingham rho  0.14900000    Ang       
                            Buckingham C     10.937044    eV*Ang^6  
--------------------------------------------------------------------------------
O1   s O3   s Buckingham    Buckingham A     22764.000    eV        0.000 16.000
                            Buckingham rho  0.14900000    Ang       
                            Buckingham C     10.937044    eV*Ang^6  
--------------------------------------------------------------------------------
O2   s O2   s Buckingham    Buckingham A     22764.000    eV        0.000 16.000
                            Buckingham rho  0.14900000    Ang       
                            Buckingham C     10.937044    eV*Ang^6  
--------------------------------------------------------------------------------
O2   s O3   s Buckingham    Buckingham A     22764.000    eV        0.000 16.000
                            Buckingham rho  0.14900000    Ang       
                            Buckingham C     10.937044    eV*Ang^6  
--------------------------------------------------------------------------------
O3   s O3   s Buckingham    Buckingham A     22764.000    eV        0.000 16.000
                            Buckingham rho  0.14900000    Ang       
                            Buckingham C     10.937044    eV*Ang^6  
--------------------------------------------------------------------------------
O1   c O1   s Spring (c-s)  Spring k 2       180.31577    eV*Ang^-2 0.000  0.800
                            Spring k 4       0.0000000    eV*Ang^-4 
--------------------------------------------------------------------------------
O2   c O2   s Spring (c-s)  Spring k 2       75.969800    eV*Ang^-2 0.000  0.800
                            Spring k 4       0.0000000    eV*Ang^-4 
--------------------------------------------------------------------------------
O3   c O3   s Spring (c-s)  Spring k 2       128.14270    eV*Ang^-2 0.000  0.800
                            Spring k 4       0.0000000    eV*Ang^-4 
--------------------------------------------------------------------------------

  General Three-body potentials :

--------------------------------------------------------------------------------
  Atoms       Potential      Parameter       Value         Units   Cutoffs(Ang)
  1 / 2 / 3                                                          Min /  Max 
--------------------------------------------------------------------------------
Si    core    Harmonic      Three-body cnst  1.2614000    eV*rad^-2 0.000  1.900
O1    shel                  Three-body angl  109.47000    degrees   0.000  1.900
O1    shel                  Three-body k4    0.0000000    eV*rad^-4 0.000  3.500
                            Three-body k3    0.0000000    eV*rad^-3 
--------------------------------------------------------------------------------
Si    core    Harmonic      Three-body cnst  1.2614000    eV*rad^-2 0.000  1.900
O1    shel                  Three-body angl  109.47000    degrees   0.000  1.900
õ(1   shel                  Three-body k4    0.0000000    eV*rad^-4 0.000  3.500
                            Three-body k3    0.0000000    eV*rad^-3 
--------------------------------------------------------------------------------
Si    core    Harmonic      Three-body cnst  1.2614000    eV*rad^-2 0.000  1.900
õ(1   shel                  Three-body angl  109.47000    degrees   0.000  1.900
õ(1   shel                  Three-body k4    0.0000000    eV*rad^-4 0.000  3.500
                            Three-body k3    0.0000000    eV*rad^-3 
--------------------------------------------------------------------------------
Si    core    Harmonic      Three-body cnst  1.2614000    eV*rad^-2 0.000  1.900
O1    shel                  Three-body angl  109.47000    degrees   0.000  1.900
O2    shel                  Three-body k4    0.0000000    eV*rad^-4 0.000  3.500
                            Three-body k3    0.0000000    eV*rad^-3 
--------------------------------------------------------------------------------
Si    core    Harmonic      Three-body cnst  1.2614000    eV*rad^-2 0.000  1.900
O1    shel                  Three-body angl  109.47000    degrees   0.000  1.900
õ(2   shel                  Three-body k4    0.0000000    eV*rad^-4 0.000  3.500
                            Three-body k3    0.0000000    eV*rad^-3 
--------------------------------------------------------------------------------
Si    core    Harmonic      Three-body cnst  1.2614000    eV*rad^-2 0.000  1.900
O2    shel                  Three-body angl  109.47000    degrees   0.000  1.900
õ(1   shel                  Three-body k4    0.0000000    eV*rad^-4 0.000  3.500
                            Three-body k3    0.0000000    eV*rad^-3 
--------------------------------------------------------------------------------
Si    core    Harmonic      Three-body cnst  1.2614000    eV*rad^-2 0.000  1.900
õ(1   shel                  Three-body angl  109.47000    degrees   0.000  1.900
õ(2   shel                  Three-body k4    0.0000000    eV*rad^-4 0.000  3.500
                            Three-body k3    0.0000000    eV*rad^-3 
--------------------------------------------------------------------------------
Si    core    Harmonic      Three-body cnst  1.2614000    eV*rad^-2 0.000  1.900
O2    shel                  Three-body angl  109.47000    degrees   0.000  1.900
O2    shel                  Three-body k4    0.0000000    eV*rad^-4 0.000  3.500
                            Three-body k3    0.0000000    eV*rad^-3 
--------------------------------------------------------------------------------
Si    core    Harmonic      Three-body cnst  1.2614000    eV*rad^-2 0.000  1.900
O2    shel                  Three-body angl  109.47000    degrees   0.000  1.900
õ(2   shel                  Three-body k4    0.0000000    eV*rad^-4 0.000  3.500
                            Three-body k3    0.0000000    eV*rad^-3 
--------------------------------------------------------------------------------
Si    core    Harmonic      Three-body cnst  1.2614000    eV*rad^-2 0.000  1.900
õ(2   shel                  Three-body angl  109.47000    degrees   0.000  1.900
õ(2   shel                  Three-body k4    0.0000000    eV*rad^-4 0.000  3.500
                            Three-body k3    0.0000000    eV*rad^-3 
--------------------------------------------------------------------------------

********************************************************************************
*  Output for configuration   1 : c00019.vasp                                  *
********************************************************************************


  Components of energy : 

--------------------------------------------------------------------------------
  Interatomic potentials     =         752.32827789 eV    
  Three-body potentials      =           0.01493991 eV    
  Monopole - monopole (real) =       -2676.00317478 eV    
  Monopole - monopole (recip)=       -1115.35404472 eV    
  Monopole - monopole (total)=       -3791.35721950 eV    
--------------------------------------------------------------------------------
  Total lattice energy       =       -3039.01400171 eV    
--------------------------------------------------------------------------------
  Total lattice energy       =         -293218.3956 kJ/(mole unit cells)
--------------------------------------------------------------------------------


  Number of variables =      363

  Maximum number of calculations  =          1000
  Maximum Hessian update interval =            10
  Maximum step size               =   0.100000000
  Maximum parameter tolerance     =   0.000010000
  Maximum function  tolerance     =   0.000010000
  Maximum gradient  tolerance     =   0.001000000
  Maximum gradient  component     =   0.010000000

  Symmetry not applied to optimisation

  Cell parameters to be optimised using strains

  Newton-Raphson optimiser to be used

  BFGS hessian update to be used

  Lower half triangular hessian to be used

  Minimiser to switch to RFO
  When gradient norm is less than     0.050000

  Dumpfile to be written after every cycle

  Start of bulk optimisation :

  Cycle:      0 Energy:     -3039.014002  Gnorm:      4.289483  CPU:    0.112
  ** Hessian calculated **
  Cycle:      1 Energy:     -3069.529058  Gnorm:      0.932196  CPU:    0.245
  ** Hessian calculated **
  Cycle:      2 Energy:     -3071.971565  Gnorm:      0.507392  CPU:    0.444
  Cycle:      3 Energy:     -3072.683331  Gnorm:      0.309094  CPU:    0.551
  Cycle:      4 Energy:     -3073.163048  Gnorm:      0.232629  CPU:    0.679
  Cycle:      5 Energy:     -3073.599152  Gnorm:      0.177949  CPU:    0.808
  Cycle:      6 Energy:     -3073.944905  Gnorm:      0.147369  CPU:    0.936
  Cycle:      7 Energy:     -3074.102836  Gnorm:      0.105293  CPU:    1.044
  Cycle:      8 Energy:     -3074.191471  Gnorm:      0.081032  CPU:    1.150
  Cycle:      9 Energy:     -3074.238983  Gnorm:      0.059821  CPU:    1.274
  Cycle:     10 Energy:     -3074.268049  Gnorm:      0.053858  CPU:    1.399
  Cycle:     11 Energy:     -3074.298619  Gnorm:      0.056382  CPU:    1.524
  ** Hessian calculated **
  Cycle:     12 Energy:     -3074.320843  Gnorm:      0.054929  CPU:    1.750
  Cycle:     13 Energy:     -3074.353783  Gnorm:      0.052656  CPU:    1.897
  Cycle:     14 Energy:     -3074.376181  Gnorm:      0.050931  CPU:    2.023
  ** Hessian calculated **
  Cycle:     15 Energy:     -3074.447014  Gnorm:      0.046373  CPU:    2.245
  ** Hessian has wrong structure
  ** Imaginary eigenvectors =   2
  Cycle:     16 Energy:     -3074.474586  Gnorm:      0.056378  CPU:    2.549
  ** Hessian has wrong structure
  ** Imaginary eigenvectors =   3
  ** Hessian has wrong structure
  ** Imaginary eigenvectors =   2
  Cycle:     17 Energy:     -3074.513244  Gnorm:      0.063622  CPU:    3.087
  ** Hessian has wrong structure
  ** Imaginary eigenvectors =   1
  ** Hessian has required structure
  Cycle:     18 Energy:     -3074.766555  Gnorm:      0.037926  CPU:    3.484
  ** Hessian has required structure
  Cycle:     19 Energy:     -3074.854536  Gnorm:      0.029375  CPU:    3.654
  ** Hessian has required structure
  Cycle:     20 Energy:     -3074.899376  Gnorm:      0.020304  CPU:    3.825
  ** Hessian has required structure
  Cycle:     21 Energy:     -3074.916903  Gnorm:      0.027434  CPU:    3.998
  ** Hessian has required structure
  Cycle:     22 Energy:     -3074.937204  Gnorm:      0.026328  CPU:    4.152
  ** Hessian has required structure
  Cycle:     23 Energy:     -3074.955158  Gnorm:      0.020922  CPU:    4.305
  ** Hessian has required structure
  Cycle:     24 Energy:     -3074.966250  Gnorm:      0.018883  CPU:    4.477
  ** Hessian has required structure
  Cycle:     25 Energy:     -3074.979968  Gnorm:      0.015736  CPU:    4.630
  ** Hessian has required structure
  Cycle:     26 Energy:     -3074.987770  Gnorm:      0.023222  CPU:    4.783
  ** Hessian has required structure
  Cycle:     27 Energy:     -3074.998830  Gnorm:      0.018995  CPU:    4.937
  ** Hessian has required structure
  Cycle:     28 Energy:     -3075.014215  Gnorm:      0.010838  CPU:    5.189
  ** Hessian has required structure
  Cycle:     29 Energy:     -3075.019265  Gnorm:      0.008056  CPU:    5.361
  ** Hessian has required structure
  Cycle:     30 Energy:     -3075.021672  Gnorm:      0.005228  CPU:    5.531
  ** Hessian has required structure
  Cycle:     31 Energy:     -3075.022903  Gnorm:      0.004694  CPU:    5.702
  ** Hessian has required structure
  Cycle:     32 Energy:     -3075.023533  Gnorm:      0.002466  CPU:    5.856
  ** Hessian has required structure
  Cycle:     33 Energy:     -3075.023953  Gnorm:      0.002870  CPU:    6.033
  ** Hessian has required structure
  Cycle:     34 Energy:     -3075.024155  Gnorm:      0.001818  CPU:    6.185
  ** Hessian has required structure
  Cycle:     35 Energy:     -3075.024284  Gnorm:      0.001616  CPU:    6.336
  ** Hessian has required structure
  Cycle:     36 Energy:     -3075.024376  Gnorm:      0.000948  CPU:    6.489
  ** Hessian has required structure
  Cycle:     37 Energy:     -3075.024419  Gnorm:      0.000567  CPU:    6.658
  ** Hessian has required structure
  Cycle:     38 Energy:     -3075.024434  Gnorm:      0.000347  CPU:    6.894
  ** Hessian has required structure
  Cycle:     39 Energy:     -3075.024440  Gnorm:      0.000248  CPU:    7.047
  ** Hessian has required structure
  Cycle:     40 Energy:     -3075.024440  Gnorm:      0.000247  CPU:    7.199
  ** Hessian has required structure
  Cycle:     41 Energy:     -3075.024440  Gnorm:      0.000247  CPU:    7.333
  ** Hessian has required structure
  Cycle:     42 Energy:     -3075.024440  Gnorm:      0.000247  CPU:    7.466
  ** Hessian has required structure
  Cycle:     43 Energy:     -3075.024440  Gnorm:      0.000246  CPU:    7.601
  ** Hessian has required structure
  Cycle:     44 Energy:     -3075.024440  Gnorm:      0.000246  CPU:    7.737
  ** Hessian has required structure
  Cycle:     45 Energy:     -3075.024440  Gnorm:      0.000246  CPU:    7.872
  ** Hessian has required structure
  Cycle:     46 Energy:     -3075.024440  Gnorm:      0.000242  CPU:    8.008
  ** Hessian has required structure
  Cycle:     47 Energy:     -3075.024440  Gnorm:      0.000241  CPU:    8.233
  ** Hessian has required structure
  Cycle:     48 Energy:     -3075.024440  Gnorm:      0.000241  CPU:    8.509
  ** Hessian calculated **


  **** Optimisation achieved ****


  Final energy =   -3075.02443982 eV      
  Final Gnorm  =       0.00024131

  Components of energy : 

--------------------------------------------------------------------------------
  Interatomic potentials     =         817.79037088 eV    
  Three-body potentials      =           0.25847887 eV    
  Monopole - monopole (real) =       -2241.75310672 eV    
  Monopole - monopole (recip)=       -1651.32018285 eV    
  Monopole - monopole (total)=       -3893.07328957 eV    
--------------------------------------------------------------------------------
  Total lattice energy       =       -3075.02443982 eV    
--------------------------------------------------------------------------------
  Total lattice energy       =         -296692.8524 kJ/(mole unit cells)
--------------------------------------------------------------------------------

  Final fractional coordinates of atoms :

--------------------------------------------------------------------------------
   No.  Atomic        x           y          z          Radius
        Label       (Frac)      (Frac)     (Frac)       (Angs) 
--------------------------------------------------------------------------------
     1  Ge    c     0.556730    0.000000    0.122130    0.000000
     2  Ge    c     0.161868    0.272981    0.291172    0.000000
     3  Si    c     0.044668    0.989349    0.376852    0.000000
     4  Si    c     0.448249    0.000189    0.375555    0.000000
     5  Si    c     0.944492    0.975128    0.630987    0.000000
     6  Si    c     0.544605    0.996346    0.637854    0.000000
     7  Si    c     0.946618    0.987715    0.115552    0.000000
     8  Si    c     0.440852    0.988127    0.881644    0.000000
     9  Si    c     0.056087    0.983917    0.875674    0.000000
    10  Si    c     0.332147    0.714102    0.289779    0.000000
    11  Si    c     0.829364    0.267929    0.726454    0.000000
    12  Si    c     0.662655    0.708327    0.734308    0.000000
    13  Si    c     0.842502    0.671663    0.724635    0.000000
    14  Si    c     0.649594    0.301187    0.734687    0.000000
    15  Si    c     0.149930    0.685791    0.286286    0.000000
    16  Si    c     0.345735    0.309524    0.295115    0.000000
    17  Si    c     0.652437    0.317786    0.037033    0.000000
    18  Si    c     0.853275    0.668498    0.028136    0.000000
    19  Si    c     0.345925    0.304386    0.989880    0.000000
    20  Si    c     0.149819    0.672670    0.984402    0.000000
    21  Si    c     0.331354    0.704110    0.986553    0.000000
    22  Si    c     0.165163    0.268762    0.981981    0.000000
    23  Si    c     0.673301    0.715881    0.036481    0.000000
    24  Si    c     0.832789    0.273245    0.030721    0.000000
    25  O3    c     0.106262    0.146275    0.390854    0.000000
    26  O2    c     0.379977    0.852484    0.378807    0.000000
    27  O2    c     0.881116    0.131958    0.643957    0.000000
    28  O2    c     0.607331    0.838265    0.652567    0.000000
    29  O2    c     0.900544    0.788438    0.640383    0.000000
    30  O2    c     0.588204    0.183729    0.652884    0.000000
    31  O2    c     0.094005    0.808057    0.372779    0.000000
    32  O2    c     0.409280    0.194747    0.375052    0.000000
    33  O2    c     0.982595    0.985549    0.490783    0.000000
    34  O2    c     0.507746    0.983173    0.495141    0.000000
    35  O2    c     0.997820    0.020013    0.242936    0.000000
    36  O3    c     0.496897    0.962554    0.247875    0.000000
    37  O2    c     0.014179    0.992894    0.736414    0.000000
    38  O2    c     0.472697    0.981717    0.735975    0.000000
    39  O3    c     0.593611    0.211561    0.124278    0.000000
    40  O2    c     0.913693    0.788447    0.110807    0.000000
    41  O2    c     0.406120    0.182779    0.911442    0.000000
    42  O2    c     0.093941    0.789754    0.892740    0.000000
    43  O2    c     0.373411    0.841449    0.894609    0.000000
    44  O2    c     0.122561    0.134332    0.882457    0.000000
    45  O3    c     0.635599    0.856483    0.130264    0.000000
    46  O2    c     0.875401    0.127579    0.117645    0.000000
    47  O3    c     0.510471    0.943041    0.978800    0.000000
    48  O2    c     0.995585    0.028748    0.988336    0.000000
    49  O3    c     0.131042    0.486694    0.314789    0.000000
    50  O2    c     0.361207    0.516491    0.321523    0.000000
    51  O2    c     0.857058    0.465541    0.693997    0.000000
    52  O2    c     0.633916    0.507863    0.710053    0.000000
    53  O3    c     0.259412    0.258283    0.336524    0.000000
    54  O2    c     0.240343    0.731275    0.321424    0.000000
    55  O2    c     0.737385    0.248966    0.690437    0.000000
    56  O2    c     0.752823    0.723868    0.689727    0.000000
    57  O3    c     0.153211    0.210943    0.129477    0.000000
    58  O2    c     0.344985    0.756600    0.137806    0.000000
    59  O2    c     0.840468    0.225937    0.878431    0.000000
    60  O2    c     0.659009    0.764752    0.885255    0.000000
    61  O2    c     0.862245    0.711064    0.875866    0.000000
    62  O2    c     0.637726    0.259656    0.886493    0.000000
    63  O2    c     0.134195    0.726729    0.133815    0.000000
    64  O2    c     0.357256    0.264898    0.142386    0.000000
    65  O2    c     0.635825    0.523921    0.058950    0.000000
    66  O2    c     0.872228    0.464291    0.056957    0.000000
    67  O2    c     0.365407    0.507827    0.960940    0.000000
    68  O2    c     0.131137    0.466480    0.962187    0.000000
    69  O2    c     0.742706    0.274901    0.073026    0.000000
    70  O2    c     0.765389    0.711448    0.070209    0.000000
    71  O2    c     0.256935    0.263294    0.947725    0.000000
    72  O2    c     0.239686    0.709878    0.950491    0.000000
    73  O3    s     0.104734    0.141133    0.381097    0.000000
    74  O2    s     0.381797    0.852660    0.368678    0.000000
    75  O2    s     0.882157    0.130232    0.651872    0.000000
    76  O2    s     0.606776    0.840793    0.660189    0.000000
    77  O2    s     0.898830    0.795603    0.648739    0.000000
    78  O2    s     0.590381    0.176738    0.660389    0.000000
    79  O2    s     0.094907    0.813933    0.363604    0.000000
    80  O2    s     0.406535    0.186624    0.366524    0.000000
    81  O2    s     0.985420    0.984824    0.493776    0.000000
    82  O2    s     0.505091    0.986722    0.497818    0.000000
    83  O2    s     0.996988    0.012765    0.242704    0.000000
    84  O3    s     0.497288    0.970104    0.249783    0.000000
    85  O2    s     0.011230    0.989884    0.740660    0.000000
    86  O2    s     0.477043    0.984054    0.741460    0.000000
    87  O3    s     0.596716    0.205531    0.115096    0.000000
    88  O2    s     0.910607    0.796354    0.102282    0.000000
    89  O2    s     0.403043    0.175882    0.917161    0.000000
    90  O2    s     0.096084    0.797332    0.901045    0.000000
    91  O2    s     0.375864    0.841682    0.903647    0.000000
    92  O2    s     0.120125    0.132964    0.892647    0.000000
    93  O3    s     0.633321    0.852802    0.119453    0.000000
    94  O2    s     0.878276    0.128884    0.107563    0.000000
    95  O3    s     0.506967    0.952606    0.980596    0.000000
    96  O2    s     0.996910    0.019135    0.989904    0.000000
    97  O3    s     0.135642    0.490138    0.309771    0.000000
    98  O2    s     0.356458    0.515482    0.315311    0.000000
    99  O2    s     0.852536    0.466723    0.700726    0.000000
   100  O2    s     0.638655    0.506934    0.715252    0.000000
   101  O3    s     0.260319    0.264703    0.328603    0.000000
   102  O2    s     0.240759    0.724622    0.314257    0.000000
   103  O2    s     0.737960    0.256504    0.698901    0.000000
   104  O2    s     0.752802    0.716661    0.698113    0.000000
   105  O3    s     0.155080    0.221579    0.127894    0.000000
   106  O2    s     0.342213    0.746696    0.137730    0.000000
   107  O2    s     0.838426    0.235548    0.878340    0.000000
   108  O2    s     0.660898    0.753648    0.884756    0.000000
   109  O2    s     0.859199    0.702428    0.875948    0.000000
   110  O2    s     0.640480    0.269886    0.885928    0.000000
   111  O2    s     0.137468    0.716902    0.133661    0.000000
   112  O2    s     0.354875    0.273729    0.141978    0.000000
   113  O2    s     0.641579    0.521585    0.054185    0.000000
   114  O2    s     0.866122    0.466201    0.051148    0.000000
   115  O2    s     0.359759    0.506828    0.966726    0.000000
   116  O2    s     0.136675    0.468006    0.966624    0.000000
   117  O2    s     0.742930    0.279354    0.064494    0.000000
   118  O2    s     0.765159    0.707027    0.061747    0.000000
   119  O2    s     0.256827    0.268488    0.956049    0.000000
   120  O2    s     0.239931    0.705055    0.958245    0.000000
--------------------------------------------------------------------------------

  Final Cartesian lattice vectors (Angstroms) :

       17.060595    0.039846   -0.121711
        0.017471    7.592921   -0.045314
       -0.072504   -0.061605   10.279911


  Final cell parameters and derivatives :

--------------------------------------------------------------------------------
       a           17.061076 Angstrom     dE/de1(xx)    -0.002605 eV/strain
       b            7.593077 Angstrom     dE/de2(yy)    -0.012075 eV/strain
       c           10.280351 Angstrom     dE/de3(zz)     0.001726 eV/strain
       alpha       90.686204 Degrees      dE/de4(yz)    -0.000308 eV/strain
       beta        90.813629 Degrees      dE/de5(xz)    -0.002726 eV/strain
       gamma       89.731916 Degrees      dE/de6(xy)     0.001238 eV/strain
--------------------------------------------------------------------------------

  Primitive cell volume =          1331.535638 Angs**3

  Density of cell =      1.909568 g/cm**3

  Non-primitive cell volume =          1331.535638 Angs**3


  Final internal derivatives :

--------------------------------------------------------------------------------
   No.  Atomic          a             b             c           Radius
        Label          (eV)          (eV)          (eV)        (eV/Angs)
--------------------------------------------------------------------------------
      1 Ge    c       0.000000      0.000000      0.000000      0.000000
      2 Ge    c       0.015406      0.004835     -0.001936      0.000000
      3 Si    c       0.010831      0.000017     -0.001288      0.000000
      4 Si    c      -0.026338      0.002421      0.011173      0.000000
      5 Si    c      -0.003814     -0.000031     -0.000914      0.000000
      6 Si    c       0.004034      0.000365      0.000302      0.000000
      7 Si    c      -0.003082      0.001247     -0.000745      0.000000
      8 Si    c      -0.006494      0.001362      0.000509      0.000000
      9 Si    c       0.000274     -0.000367     -0.001005      0.000000
     10 Si    c      -0.001239     -0.002385      0.004584      0.000000
     11 Si    c       0.000070      0.000698      0.002204      0.000000
     12 Si    c      -0.001229     -0.000908      0.001158      0.000000
     13 Si    c       0.001104     -0.000398      0.001412      0.000000
     14 Si    c      -0.002374      0.000478      0.000116      0.000000
     15 Si    c      -0.003254     -0.001622      0.001006      0.000000
     16 Si    c      -0.003325     -0.000259     -0.001825      0.000000
     17 Si    c      -0.005251      0.000657     -0.000295      0.000000
     18 Si    c       0.001049     -0.001878     -0.001922      0.000000
     19 Si    c       0.001567     -0.000331      0.001332      0.000000
     20 Si    c      -0.004185     -0.001518      0.001453      0.000000
     21 Si    c      -0.001003     -0.001881     -0.002959      0.000000
     22 Si    c       0.003403      0.002195      0.005336      0.000000
     23 Si    c      -0.000609     -0.000765     -0.002783      0.000000
     24 Si    c       0.001471      0.001291     -0.001595      0.000000
     25 O3    c      -0.009303     -0.004398      0.000148      0.000000
     26 O2    c       0.005618      0.000586     -0.001529      0.000000
     27 O2    c       0.000642     -0.000336     -0.001110      0.000000
     28 O2    c       0.001513     -0.000985     -0.000337      0.000000
     29 O2    c      -0.000574     -0.000563      0.000023      0.000000
     30 O2    c       0.000476      0.000467      0.000265      0.000000
     31 O2    c      -0.003945      0.002465     -0.000452      0.000000
     32 O2    c       0.004837     -0.001920      0.000253      0.000000
     33 O2    c      -0.010887      0.000110      0.004547      0.000000
     34 O2    c       0.025659     -0.001415      0.004764      0.000000
     35 O2    c       0.000079      0.001063      0.000815      0.000000
     36 O3    c      -0.039096     -0.006799      0.004587      0.000000
     37 O2    c       0.009067      0.000082      0.005998      0.000000
     38 O2    c      -0.012906      0.000061      0.002387      0.000000
     39 O3    c      -0.000919      0.002360      0.001189      0.000000
     40 O2    c       0.002053      0.000306      0.001204      0.000000
     41 O2    c       0.003791     -0.005114     -0.001298      0.000000
     42 O2    c      -0.001439      0.002665     -0.000996      0.000000
     43 O2    c       0.006505      0.002270     -0.000606      0.000000
     44 O2    c      -0.005364     -0.002685     -0.000609      0.000000
     45 O3    c       0.000306      0.000059      0.002335      0.000000
     46 O2    c       0.002733     -0.001947      0.000085      0.000000
     47 O3    c       0.005701     -0.000791     -0.003265      0.000000
     48 O2    c       0.000061     -0.000261     -0.000010      0.000000
     49 O3    c       0.007101     -0.008952     -0.004371      0.000000
     50 O2    c      -0.002142      0.004353     -0.002105      0.000000
     51 O2    c       0.000466     -0.000295      0.000216      0.000000
     52 O2    c      -0.000842     -0.000058      0.000122      0.000000
     53 O3    c      -0.026101      0.004472     -0.004467      0.000000
     54 O2    c       0.014602     -0.000426     -0.001001      0.000000
     55 O2    c       0.002552     -0.000291     -0.000673      0.000000
     56 O2    c       0.001192      0.000381     -0.000688      0.000000
     57 O3    c       0.009566      0.004512     -0.001986      0.000000
     58 O2    c       0.000570     -0.001136     -0.000538      0.000000
     59 O2    c       0.000710      0.000381     -0.001383      0.000000
     60 O2    c      -0.001072     -0.000255      0.001093      0.000000
     61 O2    c       0.000928     -0.000306     -0.000384      0.000000
     62 O2    c      -0.001469      0.000252      0.000591      0.000000
     63 O2    c       0.001103     -0.001202     -0.001691      0.000000
     64 O2    c      -0.002932      0.002115      0.001129      0.000000
     65 O2    c      -0.003270      0.000472      0.000198      0.000000
     66 O2    c       0.001595     -0.000349     -0.000280      0.000000
     67 O2    c      -0.002129      0.003394      0.000749      0.000000
     68 O2    c       0.004199     -0.004597      0.001116      0.000000
     69 O2    c       0.001073     -0.000434      0.001391      0.000000
     70 O2    c      -0.002190     -0.000091      0.001149      0.000000
     71 O2    c      -0.010745      0.001063      0.002306      0.000000
     72 O2    c       0.010651     -0.000043      0.000292      0.000000
     73 O3    s       0.011072      0.002782     -0.003639      0.000000
     74 O2    s      -0.014129     -0.001195     -0.002226      0.000000
     75 O2    s      -0.001269      0.000329      0.000450      0.000000
     76 O2    s       0.002456      0.000691      0.000448      0.000000
     77 O2    s      -0.000537     -0.000119     -0.000375      0.000000
     78 O2    s       0.001360     -0.000035     -0.000790      0.000000
     79 O2    s       0.000854      0.000289     -0.000401      0.000000
     80 O2    s      -0.009881      0.000627     -0.001033      0.000000
     81 O2    s       0.006011     -0.000722     -0.000906      0.000000
     82 O2    s      -0.003221      0.001044      0.002583      0.000000
     83 O2    s       0.003074     -0.000862      0.000066      0.000000
     84 O3    s       0.004697     -0.000264     -0.003382      0.000000
     85 O2    s       0.000082      0.000611      0.000175      0.000000
     86 O2    s      -0.002009      0.000487      0.002442      0.000000
     87 O3    s       0.005151     -0.000214     -0.001928      0.000000
     88 O2    s       0.000676      0.000414     -0.000555      0.000000
     89 O2    s      -0.001139     -0.001611      0.003943      0.000000
     90 O2    s      -0.001170      0.000743      0.001628      0.000000
     91 O2    s      -0.003252      0.000906      0.003795      0.000000
     92 O2    s       0.002951      0.000965      0.001572      0.000000
     93 O3    s       0.007550     -0.000021     -0.000079      0.000000
     94 O2    s      -0.001161     -0.000535     -0.000464      0.000000
     95 O3    s      -0.011544      0.000194     -0.003681      0.000000
     96 O2    s       0.005340      0.000309     -0.000915      0.000000
     97 O3    s       0.002493      0.000380     -0.001222      0.000000
     98 O2    s      -0.006158      0.000760     -0.001591      0.000000
     99 O2    s       0.000319     -0.000139     -0.000695      0.000000
    100 O2    s      -0.001070      0.000030     -0.001499      0.000000
    101 O3    s       0.006386      0.000872     -0.004883      0.000000
    102 O2    s       0.002262     -0.001860     -0.003634      0.000000
    103 O2    s       0.000436     -0.000326      0.000644      0.000000
    104 O2    s       0.000525      0.000409      0.000375      0.000000
    105 O3    s       0.004617      0.001727      0.001278      0.000000
    106 O2    s      -0.005522      0.000672      0.000306      0.000000
    107 O2    s      -0.001034     -0.001126     -0.000782      0.000000
    108 O2    s       0.002154      0.001497     -0.001919      0.000000
    109 O2    s       0.000517      0.000928     -0.001024      0.000000
    110 O2    s      -0.000270     -0.001876     -0.001240      0.000000
    111 O2    s       0.001575      0.000231      0.000270      0.000000
    112 O2    s      -0.007002     -0.001585     -0.001342      0.000000
    113 O2    s       0.000231      0.000263      0.000952      0.000000
    114 O2    s       0.000396      0.000156      0.001205      0.000000
    115 O2    s      -0.005742      0.000514      0.000803      0.000000
    116 O2    s       0.005401     -0.001524      0.002237      0.000000
    117 O2    s       0.001097     -0.000554     -0.000811      0.000000
    118 O2    s       0.001009      0.000358     -0.000771      0.000000
    119 O2    s      -0.001508      0.001313      0.005082      0.000000
    120 O2    s       0.001510     -0.001283      0.003663      0.000000
--------------------------------------------------------------------------------
  Maximum abs         0.039096      0.008952      0.011173      0.000000
--------------------------------------------------------------------------------


  Born effective charge tensors : 

-------------------------------------------------------------------------------
  Atom             x           y             z
-------------------------------------------------------------------------------
    1 Ge    x       4.3110      0.3071     -0.1548
            y      -0.1986      3.9082     -0.0419
            z      -0.7638     -0.1176      3.7322
-------------------------------------------------------------------------------
    2 Ge    x       3.9682      0.3533     -0.1749
            y       0.2345      4.1817     -0.2585
            z      -0.1586     -0.0584      3.4629
-------------------------------------------------------------------------------
    3 Si    x       3.6343      0.0932     -0.0773
            y       0.2644      3.3988      0.0494
            z      -0.6734     -0.0696      3.8354
-------------------------------------------------------------------------------
    4 Si    x       3.5868     -0.1848     -0.0395
            y       0.1210      3.2671      0.0218
            z       0.4665      0.0448      4.0593
-------------------------------------------------------------------------------
    5 Si    x       3.4691      0.1021     -0.2798
            y      -0.1078      3.2468     -0.0077
            z      -0.3472     -0.0453      3.8179
-------------------------------------------------------------------------------
    6 Si    x       3.4915      0.0999      0.3239
            y      -0.0981      3.2603     -0.0075
            z       0.3139      0.0319      3.7723
-------------------------------------------------------------------------------
    7 Si    x       3.4409      0.1836      0.1214
            y      -0.2047      3.2432      0.0171
            z       0.5378      0.0825      3.0621
-------------------------------------------------------------------------------
    8 Si    x       3.7903     -0.1951     -0.2108
            y       0.1195      3.3266     -0.0254
            z      -0.3020     -0.0498      3.2916
-------------------------------------------------------------------------------
    9 Si    x       3.4838     -0.1496      0.2677
            y       0.1444      3.2529     -0.0226
            z       0.4493     -0.0288      3.1318
-------------------------------------------------------------------------------
   10 Si    x       3.1980      0.2943      0.1539
            y       0.1412      3.4313      0.1576
            z       0.1004      0.0687      2.8368
-------------------------------------------------------------------------------
   11 Si    x       3.2142     -0.3060     -0.1221
            y      -0.1999      3.4745      0.1427
            z      -0.1327      0.0798      2.8078
-------------------------------------------------------------------------------
   12 Si    x       3.2519     -0.3036      0.1129
            y      -0.2053      3.4847     -0.1698
            z       0.1510     -0.0653      2.7753
-------------------------------------------------------------------------------
   13 Si    x       3.2065      0.2193     -0.0699
            y       0.2920      3.4455     -0.1823
            z      -0.0963     -0.0939      2.8162
-------------------------------------------------------------------------------
   14 Si    x       3.2306      0.2202      0.0605
            y       0.2940      3.4582      0.1939
            z       0.1183      0.0707      2.7841
-------------------------------------------------------------------------------
   15 Si    x       3.3046     -0.1547     -0.1149
            y      -0.1455      3.7461      0.0909
            z      -0.1232     -0.0003      2.9127
-------------------------------------------------------------------------------
   16 Si    x       3.5091     -0.1304     -0.0341
            y      -0.2191      3.5224     -0.2031
            z       0.0562     -0.1110      2.9039
-------------------------------------------------------------------------------
   17 Si    x       3.5151      0.3853     -0.3078
            y       0.4060      3.4913     -0.3257
            z      -0.3250     -0.1406      2.8819
-------------------------------------------------------------------------------
   18 Si    x       3.2250      0.2644      0.1279
            y       0.2863      3.4010      0.1554
            z       0.1646      0.0511      2.6997
-------------------------------------------------------------------------------
   19 Si    x       3.2737     -0.2498     -0.1011
            y      -0.2557      3.4143      0.1518
            z      -0.1725      0.0727      2.7327
-------------------------------------------------------------------------------
   20 Si    x       3.2982     -0.2535      0.1498
            y      -0.2513      3.4144     -0.2030
            z       0.1484     -0.0490      2.7135
-------------------------------------------------------------------------------
   21 Si    x       3.2313      0.3080     -0.1806
            y       0.0882      3.4391     -0.1863
            z      -0.1118     -0.0833      2.7716
-------------------------------------------------------------------------------
   22 Si    x       3.3280      0.3574      0.1416
            y       0.1333      3.5633      0.1174
            z       0.0845     -0.0273      3.0106
-------------------------------------------------------------------------------
   23 Si    x       3.3533     -0.5016     -0.2798
            y      -0.1984      3.6214      0.3688
            z      -0.1967      0.2143      2.8997
-------------------------------------------------------------------------------
   24 Si    x       3.1928     -0.3500      0.1433
            y      -0.0934      3.4478     -0.1654
            z       0.1121     -0.0808      2.7112
-------------------------------------------------------------------------------
   25 O3    x      -2.1323     -0.9493      0.3377
            y      -1.0206     -2.3316      0.3620
            z       0.4018      0.3115     -1.5712
-------------------------------------------------------------------------------
   26 O2    x      -1.7476     -0.7096     -0.3135
            y      -0.7191     -1.9246     -0.3424
            z      -0.3502     -0.3177     -1.3676
-------------------------------------------------------------------------------
   27 O2    x      -1.7525      0.7270      0.3558
            y       0.7691     -1.9728     -0.3679
            z       0.3775     -0.3522     -1.3552
-------------------------------------------------------------------------------
   28 O2    x      -1.7940      0.7412     -0.3753
            y       0.7780     -1.9649      0.3709
            z      -0.3926      0.3524     -1.3465
-------------------------------------------------------------------------------
   29 O2    x      -1.6498     -0.7016      0.3473
            y      -0.6721     -2.0051      0.3600
            z       0.3647      0.3549     -1.3703
-------------------------------------------------------------------------------
   30 O2    x      -1.6939     -0.7223     -0.3571
            y      -0.6876     -2.0124     -0.3551
            z      -0.3620     -0.3396     -1.3450
-------------------------------------------------------------------------------
   31 O2    x      -1.6975      0.6635      0.3185
            y       0.6681     -1.8929     -0.3362
            z       0.3835     -0.2961     -1.3949
-------------------------------------------------------------------------------
   32 O2    x      -1.6121      0.6695     -0.3008
            y       0.6062     -2.0176      0.3337
            z      -0.3668      0.3316     -1.3683
-------------------------------------------------------------------------------
   33 O2    x      -1.6527     -0.0246      0.8090
            y      -0.0067     -1.0816      0.0159
            z       1.0449      0.0510     -2.7247
-------------------------------------------------------------------------------
   34 O2    x      -1.6525      0.0234     -0.8110
            y       0.0136     -1.0949      0.0198
            z      -1.0094      0.0270     -2.7079
-------------------------------------------------------------------------------
   35 O2    x      -1.6325     -0.0253     -0.6934
            y       0.0136     -1.1503      0.0086
            z      -0.6457      0.0036     -2.2749
-------------------------------------------------------------------------------
   36 O3    x      -2.0754     -0.0110      1.0056
            y       0.0065     -1.2728     -0.0223
            z       0.9994     -0.0042     -2.7597
-------------------------------------------------------------------------------
   37 O2    x      -1.7687     -0.0067     -0.7199
            y      -0.0204     -1.1051      0.0005
            z      -0.7285      0.0028     -2.1976
-------------------------------------------------------------------------------
   38 O2    x      -1.7661     -0.0122      0.6886
            y      -0.0337     -1.1109      0.0191
            z       0.6857      0.0135     -2.1725
-------------------------------------------------------------------------------
   39 O3    x      -2.0361     -0.9286      0.5115
            y      -0.8122     -2.3679      0.4917
            z       0.5659      0.4869     -1.4960
-------------------------------------------------------------------------------
   40 O2    x      -1.6495     -0.6829     -0.3075
            y      -0.5782     -2.0324     -0.3238
            z      -0.3480     -0.3129     -1.2072
-------------------------------------------------------------------------------
   41 O2    x      -1.6756      0.6798      0.3895
            y       0.5797     -2.0384     -0.4300
            z       0.3806     -0.3925     -1.2703
-------------------------------------------------------------------------------
   42 O2    x      -1.6546      0.6922     -0.3834
            y       0.5851     -2.0129      0.4132
            z      -0.3657      0.3746     -1.2787
-------------------------------------------------------------------------------
   43 O2    x      -1.7428     -0.7036      0.4238
            y      -0.6556     -1.9262      0.4236
            z       0.3666      0.3807     -1.3022
-------------------------------------------------------------------------------
   44 O2    x      -1.7593     -0.7092     -0.3494
            y      -0.6725     -1.9183     -0.3658
            z      -0.3246     -0.3252     -1.2691
-------------------------------------------------------------------------------
   45 O3    x      -2.0965      0.9211      0.4243
            y       0.8988     -2.2863     -0.5293
            z       0.4662     -0.4968     -1.5196
-------------------------------------------------------------------------------
   46 O2    x      -1.7590      0.7014     -0.2811
            y       0.6855     -1.9088      0.3232
            z      -0.3262      0.3114     -1.2288
-------------------------------------------------------------------------------
   47 O3    x      -2.2648      0.0592     -0.8413
            y       0.0780     -1.3399      0.0260
            z      -0.4938     -0.0028     -2.0188
-------------------------------------------------------------------------------
   48 O2    x      -1.7830      0.0098      0.6140
            y       0.0155     -1.1955      0.0096
            z       0.3319     -0.0017     -1.7100
-------------------------------------------------------------------------------
   49 O3    x      -1.3188     -0.0119      0.0816
            y       0.0438     -3.2164      0.0947
            z       0.0906      0.1053     -1.1973
-------------------------------------------------------------------------------
   50 O2    x      -1.1649      0.0861     -0.0665
            y       0.1403     -2.5468      0.0279
            z      -0.0759      0.0245     -1.0881
-------------------------------------------------------------------------------
   51 O2    x      -1.1585     -0.0571      0.0615
            y      -0.1088     -2.5601      0.0202
            z       0.0745     -0.0005     -1.0755
-------------------------------------------------------------------------------
   52 O2    x      -1.1769     -0.0596     -0.0520
            y      -0.1109     -2.5962      0.0073
            z      -0.0709      0.0245     -1.0501
-------------------------------------------------------------------------------
   53 O3    x      -3.0003     -0.1962      0.0643
            y      -0.1467     -1.4093      0.1054
            z       0.0650      0.0721     -1.2293
-------------------------------------------------------------------------------
   54 O2    x      -2.4522     -0.0677     -0.0140
            y      -0.0141     -1.2354     -0.0603
            z       0.0076     -0.0344     -1.0801
-------------------------------------------------------------------------------
   55 O2    x      -2.4003      0.1028      0.0454
            y       0.0471     -1.2547     -0.0738
            z       0.0093     -0.0483     -1.0716
-------------------------------------------------------------------------------
   56 O2    x      -2.4030      0.1136      0.0470
            y       0.0572     -1.2535      0.0694
            z       0.0407      0.0440     -1.0724
-------------------------------------------------------------------------------
   57 O3    x      -1.3308     -0.1605      0.0382
            y      -0.1128     -1.4817      0.1071
            z       0.0407      0.0596     -2.5849
-------------------------------------------------------------------------------
   58 O2    x      -1.1803     -0.1267      0.0182
            y      -0.0823     -1.2841     -0.0274
            z       0.0147     -0.0177     -2.0956
-------------------------------------------------------------------------------
   59 O2    x      -1.1717      0.1274     -0.0523
            y       0.0820     -1.2855     -0.0253
            z      -0.0286     -0.0012     -2.0607
-------------------------------------------------------------------------------
   60 O2    x      -1.2029      0.1386     -0.0298
            y       0.0889     -1.3101      0.0138
            z      -0.0500     -0.0076     -2.0214
-------------------------------------------------------------------------------
   61 O2    x      -1.2007     -0.1251     -0.0698
            y      -0.1264     -1.2688      0.0092
            z      -0.0912      0.0190     -2.0651
-------------------------------------------------------------------------------
   62 O2    x      -1.2213     -0.1374     -0.0046
            y      -0.1301     -1.2948     -0.0261
            z       0.0120     -0.0398     -2.0351
-------------------------------------------------------------------------------
   63 O2    x      -1.2347      0.1289     -0.0170
            y       0.1203     -1.2688     -0.0397
            z      -0.0281     -0.0494     -2.0695
-------------------------------------------------------------------------------
   64 O2    x      -1.1959      0.1140     -0.0058
            y       0.1131     -1.2860     -0.0038
            z       0.0055     -0.0038     -2.1070
-------------------------------------------------------------------------------
   65 O2    x      -1.2668     -0.0745      0.0929
            y      -0.1481     -2.3925      0.0069
            z       0.1140      0.0149     -1.0383
-------------------------------------------------------------------------------
   66 O2    x      -1.2395     -0.0777     -0.0820
            y      -0.1663     -2.4706      0.0264
            z      -0.1041      0.0106     -1.0137
-------------------------------------------------------------------------------
   67 O2    x      -1.2366      0.0660      0.0812
            y       0.1197     -2.5156      0.0252
            z       0.0979      0.0076     -1.0269
-------------------------------------------------------------------------------
   68 O2    x      -1.2502      0.0532     -0.0712
            y       0.1254     -2.5530     -0.0296
            z      -0.0837     -0.0255     -1.0042
-------------------------------------------------------------------------------
   69 O2    x      -2.3889      0.1460      0.0264
            y       0.0984     -1.2535      0.0660
            z       0.0255      0.0336     -1.0577
-------------------------------------------------------------------------------
   70 O2    x      -2.3641      0.1111      0.0149
            y       0.0645     -1.2462     -0.0643
            z       0.0253     -0.0381     -1.0497
-------------------------------------------------------------------------------
   71 O2    x      -2.4434     -0.1037     -0.0502
            y      -0.0719     -1.2558     -0.0665
            z      -0.0357     -0.0367     -1.0369
-------------------------------------------------------------------------------
   72 O2    x      -2.4569     -0.0995     -0.0041
            y      -0.0480     -1.2371      0.0644
            z      -0.0103      0.0316     -1.0348
-------------------------------------------------------------------------------




  Elastic Constant Matrix: (Units=GPa)

-------------------------------------------------------------------------------
  Indices      1         2         3         4         5         6    
-------------------------------------------------------------------------------
       1     52.9668   27.6327   22.2917   -1.5696   -1.8747   -2.8543
       2     27.6327   77.2890   22.4084   -1.3186   -2.5669   -1.4620
       3     22.2917   22.4084   20.3860   -2.1887   -0.4706   -2.6051
       4     -1.5696   -1.3186   -2.1887   12.7979    0.2248    0.0233
       5     -1.8747   -2.5669   -0.4706    0.2248   26.8713   -1.8427
       6     -2.8543   -1.4620   -2.6051    0.0233   -1.8427   26.4327
-------------------------------------------------------------------------------


  Elastic Compliance Matrix: (Units=1/GPa)

-------------------------------------------------------------------------------
  Indices      1         2         3         4         5         6    
-------------------------------------------------------------------------------
       1    0.035336 -0.001996 -0.036611 -0.002163  0.001666  0.000215
       2   -0.001996  0.019218 -0.019202 -0.001570  0.001308 -0.000952
       3   -0.036611 -0.019202  0.112267  0.012758 -0.002125  0.005890
       4   -0.002163 -0.001570  0.012758  0.079903 -0.000690  0.000819
       5    0.001666  0.001308 -0.002125 -0.000690  0.037607  0.002665
       6    0.000215 -0.000952  0.005890  0.000819  0.002665  0.038568
-------------------------------------------------------------------------------

  Mechanical properties :

-------------------------------------------------------------------------------
  Convention :                    Reuss         Voigt         Hill
-------------------------------------------------------------------------------
  Bulk  Modulus (GPa)     =      19.53027      32.81194      26.17110
  Shear Modulus (GPa)     =      10.97489      18.44097      14.70793
-------------------------------------------------------------------------------
  Velocity S-wave (km/s)  =       2.39736       3.10759       2.77529
  Velocity P-wave (km/s)  =       4.22974       5.48262       4.89642
-------------------------------------------------------------------------------
  Compressibility (1/GPa) =    0.05120258
-------------------------------------------------------------------------------
  Stress axis :                     x             y             z
-------------------------------------------------------------------------------
  Youngs Moduli (GPa)     =      28.29970      52.03476       8.90733
-------------------------------------------------------------------------------
  Poissons Ratio (x)      =                     0.10388       0.32611
  Poissons Ratio (y)      =       0.05649                     0.17104
  Poissons Ratio (z)      =       1.03609       0.99915
-------------------------------------------------------------------------------


  Piezoelectric Strain Matrix: (Units=C/m**2)

-------------------------------------------------------------------------------
  Indices      1         2         3         4         5         6    
-------------------------------------------------------------------------------
       x     0.05403  -0.02685  -0.33300   0.36186   0.25820   0.01450
       y    -0.05605   0.52372   0.35053  -0.01676   0.53097   0.17636
       z    -0.13950   0.23615  -2.00757  -0.17844  -0.04344   0.01156
-------------------------------------------------------------------------------


  Piezoelectric Stress Matrix: (Units=10**-11 C/N)

-------------------------------------------------------------------------------
  Indices      1         2         3         4         5         6    
-------------------------------------------------------------------------------
       x     1.38051   0.55262  -3.46941   2.44246   1.02618  -0.03805
       y    -1.49006   0.39988   3.10455   0.22102   2.02965   0.97570
       z     6.84152   4.35776 -22.69274  -3.98997   0.28630  -1.18949
-------------------------------------------------------------------------------


  Static dielectric constant tensor : 

-------------------------------------------------------------------------------
              x         y         z
-------------------------------------------------------------------------------
       x     3.88567   0.03263  -0.07954
       y     0.03263   3.94688  -0.05719
       z    -0.07954  -0.05719   3.16967
--------------------------------------------------------------------------------

  High frequency dielectric constant tensor : 

-------------------------------------------------------------------------------
              x         y         z
-------------------------------------------------------------------------------
       x     1.68892  -0.00008  -0.00002
       y    -0.00008   1.69627  -0.00107
       z    -0.00002  -0.00107   1.62763
-------------------------------------------------------------------------------

  Static refractive indices : 

-------------------------------------------------------------------------------
    1 =    1.77689      2 =    1.96844      3 =    1.99252
-------------------------------------------------------------------------------

  High frequency refractive indices : 

-------------------------------------------------------------------------------
    1 =    1.27578      2 =    1.29958      3 =    1.30241
-------------------------------------------------------------------------------


  Time to end of optimisation =       8.9105 seconds


  Peak dynamic memory used =       5.01 MB 


  Timing analysis for GULP :

--------------------------------------------------------------------------------
  Task / Subroutine                                          Time (Seconds)
--------------------------------------------------------------------------------
  Calculation of reciprocal space energy and derivatives          0.5392
  Calculation of real space energy and derivatives                5.6753
  Calculation of three-body energy and derivatives                0.6182
  Calculation and manipulation of Hessian matrix                  2.3483
  Calculation of matrix inversion                                 0.0368
  Global summation overhead                                       0.0001
--------------------------------------------------------------------------------
  Total CPU time                                                  8.9105
--------------------------------------------------------------------------------


  Dump file written as c00019.vasp.grs
  CIF file written as c00019.vasp.cif


  Job Finished at 10:49.50  7th October    2025                               

