********************************************************************************
*                       GENERAL UTILITY LATTICE PROGRAM                        *
*                                 Julian Gale                                  *
*                       Curtin Institute for Computation                       *
*                    School of Molecular and Life Sciences                     *
*                    Curtin University, Western Australia                      *
********************************************************************************
* Version = 6.1.2 * Last modified =   3rd November 2022                        *
********************************************************************************
*  optimise     - perform optimisation run                                     *
*  conp         - constant pressure calculation                                *
*  property     - calculate properties for final geometry                      *
********************************************************************************

  Job Started  at 10:48.31  7th October    2025                               

  Number of CPUs =     1


  Total number of configurations input =      1

********************************************************************************
*  Input for Configuration =   1 : c00012.vasp                                 *
********************************************************************************

  Formula = Ge2Si22O48                                                  

  Number of irreducible atoms/shells =     120


  Total number atoms/shells =     120

  Dimensionality = 3               :  Bulk   



  Cartesian lattice vectors (Angstroms) :

       17.182800    0.000000    0.000000
        0.000000    7.513760    0.000000
        0.000000    0.000000   10.447700

  Cell parameters (Angstroms/Degrees):

  a =      17.1828    alpha =  90.0000
  b =       7.5138    beta  =  90.0000
  c =      10.4477    gamma =  90.0000

  Initial cell volume =        1348.875752 Angs**3

  Temperature of configuration =   0.00     K 

  Pressure of configuration =         0.000 GPa 

  Fractional coordinates of asymmetric unit :

--------------------------------------------------------------------------------
   No.  Atomic       x           y          z         Charge      Occupancy
        Label      (Frac)      (Frac)     (Frac)        (e)         (Frac)  
--------------------------------------------------------------------------------
      1 Ge    c    0.052090    0.000000    0.372270     4.00000    1.000000    
      2 Ge    c    0.660660 *  0.294090 *  0.017440 *   4.00000    1.000000    
      3 Si    c    0.447910 *  0.000000 *  0.372270 *   4.00000    1.000000    
      4 Si    c    0.947910 *  0.000000 *  0.627730 *   4.00000    1.000000    
      5 Si    c    0.552090 *  0.000000 *  0.627730 *   4.00000    1.000000    
      6 Si    c    0.556730 *  0.000000 *  0.122130 *   4.00000    1.000000    
      7 Si    c    0.943270 *  0.000000 *  0.122130 *   4.00000    1.000000    
      8 Si    c    0.443270 *  0.000000 *  0.877870 *   4.00000    1.000000    
      9 Si    c    0.056730 *  0.000000 *  0.877870 *   4.00000    1.000000    
     10 Si    c    0.160190 *  0.293910 *  0.273440 *   4.00000    1.000000    
     11 Si    c    0.339810 *  0.706090 *  0.273440 *   4.00000    1.000000    
     12 Si    c    0.839810 *  0.293910 *  0.726560 *   4.00000    1.000000    
     13 Si    c    0.660190 *  0.706090 *  0.726560 *   4.00000    1.000000    
     14 Si    c    0.839810 *  0.706090 *  0.726560 *   4.00000    1.000000    
     15 Si    c    0.660190 *  0.293910 *  0.726560 *   4.00000    1.000000    
     16 Si    c    0.160190 *  0.706090 *  0.273440 *   4.00000    1.000000    
     17 Si    c    0.339810 *  0.293910 *  0.273440 *   4.00000    1.000000    
     18 Si    c    0.839340 *  0.705910 *  0.017440 *   4.00000    1.000000    
     19 Si    c    0.339340 *  0.294090 *  0.982560 *   4.00000    1.000000    
     20 Si    c    0.160660 *  0.705910 *  0.982560 *   4.00000    1.000000    
     21 Si    c    0.339340 *  0.705910 *  0.982560 *   4.00000    1.000000    
     22 Si    c    0.160660 *  0.294090 *  0.982560 *   4.00000    1.000000    
     23 Si    c    0.660660 *  0.705910 *  0.017440 *   4.00000    1.000000    
     24 Si    c    0.839340 *  0.294090 *  0.017440 *   4.00000    1.000000    
     25 O3    c    0.106570 *  0.174340 *  0.366200 *   1.33043    1.000000    
     26 O2    c    0.393430 *  0.825660 *  0.366200 *   0.87073    1.000000    
     27 O2    c    0.893430 *  0.174340 *  0.633800 *   0.87073    1.000000    
     28 O2    c    0.606570 *  0.825660 *  0.633800 *   0.87073    1.000000    
     29 O2    c    0.893430 *  0.825660 *  0.633800 *   0.87073    1.000000    
     30 O2    c    0.606570 *  0.174340 *  0.633800 *   0.87073    1.000000    
     31 O3    c    0.106570 *  0.825660 *  0.366200 *   1.33043    1.000000    
     32 O2    c    0.393430 *  0.174340 *  0.366200 *   0.87073    1.000000    
     33 O3    c    0.000000 *  0.000000 *  0.500000 *   1.33043    1.000000    
     34 O2    c    0.500000 *  0.000000 *  0.500000 *   0.87073    1.000000    
     35 O3    c    0.994520 *  0.000000 *  0.250840 *   1.33043    1.000000    
     36 O2    c    0.505480 *  0.000000 *  0.250840 *   0.87073    1.000000    
     37 O2    c    0.005480 *  0.000000 *  0.749160 *   0.87073    1.000000    
     38 O2    c    0.494520 *  0.000000 *  0.749160 *   0.87073    1.000000    
     39 O3    c    0.610230 *  0.175520 *  0.115390 *   1.33043    1.000000    
     40 O2    c    0.889770 *  0.824480 *  0.115390 *   0.87073    1.000000    
     41 O2    c    0.389770 *  0.175520 *  0.884610 *   0.87073    1.000000    
     42 O2    c    0.110230 *  0.824480 *  0.884610 *   0.87073    1.000000    
     43 O2    c    0.389770 *  0.824480 *  0.884610 *   0.87073    1.000000    
     44 O2    c    0.110230 *  0.175520 *  0.884610 *   0.87073    1.000000    
     45 O2    c    0.610230 *  0.824480 *  0.115390 *   0.87073    1.000000    
     46 O2    c    0.889770 *  0.175520 *  0.115390 *   0.87073    1.000000    
     47 O2    c    0.500000 *  0.000000 *  0.000000 *   0.87073    1.000000    
     48 O2    c    0.000000 *  0.000000 *  0.000000 *   0.87073    1.000000    
     49 O2    c    0.151750 *  0.500000 *  0.313330 *   0.87073    1.000000    
     50 O2    c    0.348250 *  0.500000 *  0.313330 *   0.87073    1.000000    
     51 O2    c    0.848250 *  0.500000 *  0.686670 *   0.87073    1.000000    
     52 O2    c    0.651750 *  0.500000 *  0.686670 *   0.87073    1.000000    
     53 O2    c    0.250000 *  0.234950 *  0.285720 *   0.87073    1.000000    
     54 O2    c    0.250000 *  0.765050 *  0.285720 *   0.87073    1.000000    
     55 O2    c    0.750000 *  0.234950 *  0.714280 *   0.87073    1.000000    
     56 O2    c    0.750000 *  0.765050 *  0.714280 *   0.87073    1.000000    
     57 O2    c    0.131410 *  0.268650 *  0.127790 *   0.87073    1.000000    
     58 O2    c    0.368590 *  0.731350 *  0.127790 *   0.87073    1.000000    
     59 O2    c    0.868590 *  0.268650 *  0.872210 *   0.87073    1.000000    
     60 O2    c    0.631410 *  0.731350 *  0.872210 *   0.87073    1.000000    
     61 O2    c    0.868590 *  0.731350 *  0.872210 *   0.87073    1.000000    
     62 O3    c    0.631410 *  0.268650 *  0.872210 *   1.33043    1.000000    
     63 O2    c    0.131410 *  0.731350 *  0.127790 *   0.87073    1.000000    
     64 O2    c    0.368590 *  0.268650 *  0.127790 *   0.87073    1.000000    
     65 O3    c    0.653920 *  0.500000 *  0.058200 *   1.33043    1.000000    
     66 O2    c    0.846080 *  0.500000 *  0.058200 *   0.87073    1.000000    
     67 O2    c    0.346080 *  0.500000 *  0.941800 *   0.87073    1.000000    
     68 O2    c    0.153920 *  0.500000 *  0.941800 *   0.87073    1.000000    
     69 O3    c    0.750000 *  0.231060 *  0.027050 *   1.33043    1.000000    
     70 O2    c    0.750000 *  0.768940 *  0.027050 *   0.87073    1.000000    
     71 O2    c    0.250000 *  0.231060 *  0.972950 *   0.87073    1.000000    
     72 O2    c    0.250000 *  0.768940 *  0.972950 *   0.87073    1.000000    
     73 O3    s    0.106570 *  0.174340 *  0.366200 *  -3.33043    1.000000    
     74 O2    s    0.393430 *  0.825660 *  0.366200 *  -2.87073    1.000000    
     75 O2    s    0.893430 *  0.174340 *  0.633800 *  -2.87073    1.000000    
     76 O2    s    0.606570 *  0.825660 *  0.633800 *  -2.87073    1.000000    
     77 O2    s    0.893430 *  0.825660 *  0.633800 *  -2.87073    1.000000    
     78 O2    s    0.606570 *  0.174340 *  0.633800 *  -2.87073    1.000000    
     79 O3    s    0.106570 *  0.825660 *  0.366200 *  -3.33043    1.000000    
     80 O2    s    0.393430 *  0.174340 *  0.366200 *  -2.87073    1.000000    
     81 O3    s    0.000000 *  0.000000 *  0.500000 *  -3.33043    1.000000    
     82 O2    s    0.500000 *  0.000000 *  0.500000 *  -2.87073    1.000000    
     83 O3    s    0.994520 *  0.000000 *  0.250840 *  -3.33043    1.000000    
     84 O2    s    0.505480 *  0.000000 *  0.250840 *  -2.87073    1.000000    
     85 O2    s    0.005480 *  0.000000 *  0.749160 *  -2.87073    1.000000    
     86 O2    s    0.494520 *  0.000000 *  0.749160 *  -2.87073    1.000000    
     87 O3    s    0.610230 *  0.175520 *  0.115390 *  -3.33043    1.000000    
     88 O2    s    0.889770 *  0.824480 *  0.115390 *  -2.87073    1.000000    
     89 O2    s    0.389770 *  0.175520 *  0.884610 *  -2.87073    1.000000    
     90 O2    s    0.110230 *  0.824480 *  0.884610 *  -2.87073    1.000000    
     91 O2    s    0.389770 *  0.824480 *  0.884610 *  -2.87073    1.000000    
     92 O2    s    0.110230 *  0.175520 *  0.884610 *  -2.87073    1.000000    
     93 O2    s    0.610230 *  0.824480 *  0.115390 *  -2.87073    1.000000    
     94 O2    s    0.889770 *  0.175520 *  0.115390 *  -2.87073    1.000000    
     95 O2    s    0.500000 *  0.000000 *  0.000000 *  -2.87073    1.000000    
     96 O2    s    0.000000 *  0.000000 *  0.000000 *  -2.87073    1.000000    
     97 O2    s    0.151750 *  0.500000 *  0.313330 *  -2.87073    1.000000    
     98 O2    s    0.348250 *  0.500000 *  0.313330 *  -2.87073    1.000000    
     99 O2    s    0.848250 *  0.500000 *  0.686670 *  -2.87073    1.000000    
    100 O2    s    0.651750 *  0.500000 *  0.686670 *  -2.87073    1.000000    
    101 O2    s    0.250000 *  0.234950 *  0.285720 *  -2.87073    1.000000    
    102 O2    s    0.250000 *  0.765050 *  0.285720 *  -2.87073    1.000000    
    103 O2    s    0.750000 *  0.234950 *  0.714280 *  -2.87073    1.000000    
    104 O2    s    0.750000 *  0.765050 *  0.714280 *  -2.87073    1.000000    
    105 O2    s    0.131410 *  0.268650 *  0.127790 *  -2.87073    1.000000    
    106 O2    s    0.368590 *  0.731350 *  0.127790 *  -2.87073    1.000000    
    107 O2    s    0.868590 *  0.268650 *  0.872210 *  -2.87073    1.000000    
    108 O2    s    0.631410 *  0.731350 *  0.872210 *  -2.87073    1.000000    
    109 O2    s    0.868590 *  0.731350 *  0.872210 *  -2.87073    1.000000    
    110 O3    s    0.631410 *  0.268650 *  0.872210 *  -3.33043    1.000000    
    111 O2    s    0.131410 *  0.731350 *  0.127790 *  -2.87073    1.000000    
    112 O2    s    0.368590 *  0.268650 *  0.127790 *  -2.87073    1.000000    
    113 O3    s    0.653920 *  0.500000 *  0.058200 *  -3.33043    1.000000    
    114 O2    s    0.846080 *  0.500000 *  0.058200 *  -2.87073    1.000000    
    115 O2    s    0.346080 *  0.500000 *  0.941800 *  -2.87073    1.000000    
    116 O2    s    0.153920 *  0.500000 *  0.941800 *  -2.87073    1.000000    
    117 O3    s    0.750000 *  0.231060 *  0.027050 *  -3.33043    1.000000    
    118 O2    s    0.750000 *  0.768940 *  0.027050 *  -2.87073    1.000000    
    119 O2    s    0.250000 *  0.231060 *  0.972950 *  -2.87073    1.000000    
    120 O2    s    0.250000 *  0.768940 *  0.972950 *  -2.87073    1.000000    
--------------------------------------------------------------------------------



********************************************************************************
*  General input information                                                   *
********************************************************************************

  Species output for all configurations : 

--------------------------------------------------------------------------------
  Species    Type    Atomic    Atomic    Charge       Radii (Angs)     Library
                     Number     Mass       (e)     Cova   Ionic  VDW   Symbol
--------------------------------------------------------------------------------
    Ge       Core       32      72.61   4.000000   1.170  0.000  1.750 Ge       
    Si       Core       14      28.09   4.000000   1.200  0.000  2.100 Si       
    O1       Core        8      16.00   1.733957   0.730  0.000  0.000 O1       
    O2       Core        8      16.00   0.870733   0.730  0.000  1.360 O2       
    O3       Core        8      16.00   1.330431   0.730  0.000  1.360 O3       
    O1       Shell       8       0.00  -3.733957   0.730  0.000  0.000 O1       
    O2       Shell       8       0.00  -2.870733   0.730  0.000  0.000 O2       
    O3       Shell       8       0.00  -3.330431   0.730  0.000  0.000 O3       
--------------------------------------------------------------------------------


  Lattice summation method               =    Ewald          (3-D)
                                         =    Parry          (2-D)
                                         =    Saunders et al (1-D)
  Accuracy factor for lattice sums       =   12.000


  Analytic derivatives to be used

  Time limit = Infinity

  Maximum range for interatomic potentials =    100000.000000 Angstroms

  General interatomic potentials :

--------------------------------------------------------------------------------
Atom  Types   Potential      Parameter       Value         Units   Cutoffs(Ang)
  1     2                                                            Min /  Max 
--------------------------------------------------------------------------------
Si   c O1   s Buckingham    Buckingham A     1315.2478    eV        0.000 16.000
                            Buckingham rho  0.31775900    Ang       
                            Buckingham C     10.141118    eV*Ang^6  
--------------------------------------------------------------------------------
Si   c O2   s Buckingham    Buckingham A     1315.2478    eV        0.000 16.000
                            Buckingham rho  0.31775900    Ang       
                            Buckingham C     10.141118    eV*Ang^6  
--------------------------------------------------------------------------------
Si   c O3   s Buckingham    Buckingham A     1315.2478    eV        0.000 16.000
                            Buckingham rho  0.31775900    Ang       
                            Buckingham C     10.141118    eV*Ang^6  
--------------------------------------------------------------------------------
Ge   c O1   s Buckingham    Buckingham A     1497.3996    eV        0.000 16.000
                            Buckingham rho  0.32564600    Ang       
                            Buckingham C     16.808599    eV*Ang^6  
--------------------------------------------------------------------------------
Ge   c O2   s Buckingham    Buckingham A     1497.3996    eV        0.000 16.000
                            Buckingham rho  0.32564600    Ang       
                            Buckingham C     16.808599    eV*Ang^6  
--------------------------------------------------------------------------------
Ge   c O3   s Buckingham    Buckingham A     1497.3996    eV        0.000 16.000
                            Buckingham rho  0.32564600    Ang       
                            Buckingham C     16.808599    eV*Ang^6  
--------------------------------------------------------------------------------
O1   s O1   s Buckingham    Buckingham A     22764.000    eV        0.000 16.000
                            Buckingham rho  0.14900000    Ang       
                            Buckingham C     10.937044    eV*Ang^6  
--------------------------------------------------------------------------------
O1   s O2   s Buckingham    Buckingham A     22764.000    eV        0.000 16.000
                            Buckingham rho  0.14900000    Ang       
                            Buckingham C     10.937044    eV*Ang^6  
--------------------------------------------------------------------------------
O1   s O3   s Buckingham    Buckingham A     22764.000    eV        0.000 16.000
                            Buckingham rho  0.14900000    Ang       
                            Buckingham C     10.937044    eV*Ang^6  
--------------------------------------------------------------------------------
O2   s O2   s Buckingham    Buckingham A     22764.000    eV        0.000 16.000
                            Buckingham rho  0.14900000    Ang       
                            Buckingham C     10.937044    eV*Ang^6  
--------------------------------------------------------------------------------
O2   s O3   s Buckingham    Buckingham A     22764.000    eV        0.000 16.000
                            Buckingham rho  0.14900000    Ang       
                            Buckingham C     10.937044    eV*Ang^6  
--------------------------------------------------------------------------------
O3   s O3   s Buckingham    Buckingham A     22764.000    eV        0.000 16.000
                            Buckingham rho  0.14900000    Ang       
                            Buckingham C     10.937044    eV*Ang^6  
--------------------------------------------------------------------------------
O1   c O1   s Spring (c-s)  Spring k 2       180.31577    eV*Ang^-2 0.000  0.800
                            Spring k 4       0.0000000    eV*Ang^-4 
--------------------------------------------------------------------------------
O2   c O2   s Spring (c-s)  Spring k 2       75.969800    eV*Ang^-2 0.000  0.800
                            Spring k 4       0.0000000    eV*Ang^-4 
--------------------------------------------------------------------------------
O3   c O3   s Spring (c-s)  Spring k 2       128.14270    eV*Ang^-2 0.000  0.800
                            Spring k 4       0.0000000    eV*Ang^-4 
--------------------------------------------------------------------------------

  General Three-body potentials :

--------------------------------------------------------------------------------
  Atoms       Potential      Parameter       Value         Units   Cutoffs(Ang)
  1 / 2 / 3                                                          Min /  Max 
--------------------------------------------------------------------------------
Si    core    Harmonic      Three-body cnst  1.2614000    eV*rad^-2 0.000  1.900
O1    shel                  Three-body angl  109.47000    degrees   0.000  1.900
O1    shel                  Three-body k4    0.0000000    eV*rad^-4 0.000  3.500
                            Three-body k3    0.0000000    eV*rad^-3 
--------------------------------------------------------------------------------
Si    core    Harmonic      Three-body cnst  1.2614000    eV*rad^-2 0.000  1.900
O1    shel                  Three-body angl  109.47000    degrees   0.000  1.900
õ(1   shel                  Three-body k4    0.0000000    eV*rad^-4 0.000  3.500
                            Three-body k3    0.0000000    eV*rad^-3 
--------------------------------------------------------------------------------
Si    core    Harmonic      Three-body cnst  1.2614000    eV*rad^-2 0.000  1.900
õ(1   shel                  Three-body angl  109.47000    degrees   0.000  1.900
õ(1   shel                  Three-body k4    0.0000000    eV*rad^-4 0.000  3.500
                            Three-body k3    0.0000000    eV*rad^-3 
--------------------------------------------------------------------------------
Si    core    Harmonic      Three-body cnst  1.2614000    eV*rad^-2 0.000  1.900
O1    shel                  Three-body angl  109.47000    degrees   0.000  1.900
O2    shel                  Three-body k4    0.0000000    eV*rad^-4 0.000  3.500
                            Three-body k3    0.0000000    eV*rad^-3 
--------------------------------------------------------------------------------
Si    core    Harmonic      Three-body cnst  1.2614000    eV*rad^-2 0.000  1.900
O1    shel                  Three-body angl  109.47000    degrees   0.000  1.900
õ(2   shel                  Three-body k4    0.0000000    eV*rad^-4 0.000  3.500
                            Three-body k3    0.0000000    eV*rad^-3 
--------------------------------------------------------------------------------
Si    core    Harmonic      Three-body cnst  1.2614000    eV*rad^-2 0.000  1.900
O2    shel                  Three-body angl  109.47000    degrees   0.000  1.900
õ(1   shel                  Three-body k4    0.0000000    eV*rad^-4 0.000  3.500
                            Three-body k3    0.0000000    eV*rad^-3 
--------------------------------------------------------------------------------
Si    core    Harmonic      Three-body cnst  1.2614000    eV*rad^-2 0.000  1.900
õ(1   shel                  Three-body angl  109.47000    degrees   0.000  1.900
õ(2   shel                  Three-body k4    0.0000000    eV*rad^-4 0.000  3.500
                            Three-body k3    0.0000000    eV*rad^-3 
--------------------------------------------------------------------------------
Si    core    Harmonic      Three-body cnst  1.2614000    eV*rad^-2 0.000  1.900
O2    shel                  Three-body angl  109.47000    degrees   0.000  1.900
O2    shel                  Three-body k4    0.0000000    eV*rad^-4 0.000  3.500
                            Three-body k3    0.0000000    eV*rad^-3 
--------------------------------------------------------------------------------
Si    core    Harmonic      Three-body cnst  1.2614000    eV*rad^-2 0.000  1.900
O2    shel                  Three-body angl  109.47000    degrees   0.000  1.900
õ(2   shel                  Three-body k4    0.0000000    eV*rad^-4 0.000  3.500
                            Three-body k3    0.0000000    eV*rad^-3 
--------------------------------------------------------------------------------
Si    core    Harmonic      Three-body cnst  1.2614000    eV*rad^-2 0.000  1.900
õ(2   shel                  Three-body angl  109.47000    degrees   0.000  1.900
õ(2   shel                  Three-body k4    0.0000000    eV*rad^-4 0.000  3.500
                            Three-body k3    0.0000000    eV*rad^-3 
--------------------------------------------------------------------------------

********************************************************************************
*  Output for configuration   1 : c00012.vasp                                  *
********************************************************************************


  Components of energy : 

--------------------------------------------------------------------------------
  Interatomic potentials     =         752.31450448 eV    
  Three-body potentials      =           0.01561127 eV    
  Monopole - monopole (real) =       -2676.00317478 eV    
  Monopole - monopole (recip)=       -1115.35404472 eV    
  Monopole - monopole (total)=       -3791.35721950 eV    
--------------------------------------------------------------------------------
  Total lattice energy       =       -3039.02710375 eV    
--------------------------------------------------------------------------------
  Total lattice energy       =         -293219.6597 kJ/(mole unit cells)
--------------------------------------------------------------------------------


  Number of variables =      363

  Maximum number of calculations  =          1000
  Maximum Hessian update interval =            10
  Maximum step size               =   0.100000000
  Maximum parameter tolerance     =   0.000010000
  Maximum function  tolerance     =   0.000010000
  Maximum gradient  tolerance     =   0.001000000
  Maximum gradient  component     =   0.010000000

  Symmetry not applied to optimisation

  Cell parameters to be optimised using strains

  Newton-Raphson optimiser to be used

  BFGS hessian update to be used

  Lower half triangular hessian to be used

  Minimiser to switch to RFO
  When gradient norm is less than     0.050000

  Dumpfile to be written after every cycle

  Start of bulk optimisation :

  Cycle:      0 Energy:     -3039.027104  Gnorm:      4.280602  CPU:    0.107
  ** Hessian calculated **
  Cycle:      1 Energy:     -3052.529571  Gnorm:      3.384732  CPU:    0.291
  ** Hessian calculated **
  Cycle:      2 Energy:     -3071.184577  Gnorm:      0.738110  CPU:    0.482
  ** Hessian calculated **
  Cycle:      3 Energy:     -3072.708442  Gnorm:      0.400709  CPU:    0.674
  Cycle:      4 Energy:     -3073.166894  Gnorm:      0.250226  CPU:    0.774
  Cycle:      5 Energy:     -3073.498338  Gnorm:      0.196177  CPU:    0.895
  Cycle:      6 Energy:     -3073.810603  Gnorm:      0.155310  CPU:    1.013
  Cycle:      7 Energy:     -3074.015476  Gnorm:      0.129078  CPU:    1.115
  Cycle:      8 Energy:     -3074.147996  Gnorm:      0.097947  CPU:    1.214
  Cycle:      9 Energy:     -3074.222810  Gnorm:      0.069825  CPU:    1.315
  Cycle:     10 Energy:     -3074.264934  Gnorm:      0.054338  CPU:    1.434
  Cycle:     11 Energy:     -3074.294987  Gnorm:      0.048961  CPU:    1.552
  ** Hessian has required structure
  Cycle:     12 Energy:     -3074.323995  Gnorm:      0.096758  CPU:    1.691
  ** Hessian has wrong structure
  ** Imaginary eigenvectors =   3
  ** Hessian has wrong structure
  ** Imaginary eigenvectors =   3
  Cycle:     13 Energy:     -3074.330723  Gnorm:      0.097031  CPU:    2.290
  ** Hessian has wrong structure
  ** Imaginary eigenvectors =   3
  ** Hessian has wrong structure
  ** Imaginary eigenvectors =   3
  Cycle:     14 Energy:     -3074.343068  Gnorm:      0.097770  CPU:    2.850
  ** Hessian has wrong structure
  ** Imaginary eigenvectors =   3
  ** Hessian has wrong structure
  ** Imaginary eigenvectors =   2
  Cycle:     15 Energy:     -3074.358557  Gnorm:      0.099294  CPU:    3.313
  ** Hessian has wrong structure
  ** Imaginary eigenvectors =   2
  ** Hessian has wrong structure
  ** Imaginary eigenvectors =   1
  Cycle:     16 Energy:     -3074.369305  Gnorm:      0.100224  CPU:    3.775
  ** Hessian has wrong structure
  ** Imaginary eigenvectors =   1
  ** Hessian has wrong structure
  ** Imaginary eigenvectors =   1
  Cycle:     17 Energy:     -3074.543131  Gnorm:      0.082335  CPU:    4.284
  ** Hessian has wrong structure
  ** Imaginary eigenvectors =   1
  Cycle:     18 Energy:     -3074.625853  Gnorm:      0.079323  CPU:    4.577
  ** Hessian has required structure
  Cycle:     19 Energy:     -3074.845609  Gnorm:      0.042165  CPU:    4.827
  ** Hessian has required structure
  Cycle:     20 Energy:     -3074.929270  Gnorm:      0.027978  CPU:    4.999
  ** Hessian has required structure
  Cycle:     21 Energy:     -3074.977964  Gnorm:      0.022205  CPU:    5.173
  ** Hessian has required structure
  Cycle:     22 Energy:     -3075.011811  Gnorm:      0.019681  CPU:    5.350
  ** Hessian has required structure
  Cycle:     23 Energy:     -3075.038275  Gnorm:      0.019173  CPU:    5.527
  ** Hessian has required structure
  Cycle:     24 Energy:     -3075.054755  Gnorm:      0.014721  CPU:    5.686
  ** Hessian has required structure
  Cycle:     25 Energy:     -3075.066572  Gnorm:      0.020664  CPU:    5.862
  ** Hessian has required structure
  Cycle:     26 Energy:     -3075.073802  Gnorm:      0.015562  CPU:    6.020
  ** Hessian has required structure
  Cycle:     27 Energy:     -3075.079702  Gnorm:      0.012976  CPU:    6.195
  ** Hessian has required structure
  Cycle:     28 Energy:     -3075.083384  Gnorm:      0.014896  CPU:    6.339
  ** Hessian has required structure
  Cycle:     29 Energy:     -3075.092651  Gnorm:      0.012044  CPU:    6.594
  ** Hessian has required structure
  Cycle:     30 Energy:     -3075.102137  Gnorm:      0.011453  CPU:    6.754
  ** Hessian has required structure
  Cycle:     31 Energy:     -3075.104144  Gnorm:      0.006074  CPU:    6.894
  ** Hessian has required structure
  Cycle:     32 Energy:     -3075.105426  Gnorm:      0.003952  CPU:    7.052
  ** Hessian has required structure
  Cycle:     33 Energy:     -3075.105949  Gnorm:      0.003527  CPU:    7.229
  ** Hessian has required structure
  Cycle:     34 Energy:     -3075.106243  Gnorm:      0.002645  CPU:    7.405
  ** Hessian has required structure
  Cycle:     35 Energy:     -3075.106479  Gnorm:      0.002260  CPU:    7.581
  ** Hessian has required structure
  Cycle:     36 Energy:     -3075.106714  Gnorm:      0.002059  CPU:    7.755
  ** Hessian has required structure
  Cycle:     37 Energy:     -3075.106953  Gnorm:      0.001649  CPU:    7.931
  ** Hessian has required structure
  Cycle:     38 Energy:     -3075.107175  Gnorm:      0.001547  CPU:    8.107
  ** Hessian has required structure
  Cycle:     39 Energy:     -3075.107372  Gnorm:      0.000884  CPU:    8.370
  ** Hessian has required structure
  Cycle:     40 Energy:     -3075.107442  Gnorm:      0.000603  CPU:    8.557
  ** Hessian has required structure
  Cycle:     41 Energy:     -3075.107477  Gnorm:      0.000380  CPU:    8.745
  ** Hessian has required structure
  Cycle:     42 Energy:     -3075.107494  Gnorm:      0.000247  CPU:    8.932
  ** Hessian has required structure
  Cycle:     43 Energy:     -3075.107500  Gnorm:      0.000156  CPU:    9.112
  ** Hessian has required structure
  Cycle:     44 Energy:     -3075.107502  Gnorm:      0.000119  CPU:    9.270
  ** Hessian has required structure
  Cycle:     45 Energy:     -3075.107503  Gnorm:      0.000093  CPU:    9.427
  ** Hessian has required structure
  Cycle:     46 Energy:     -3075.107503  Gnorm:      0.000077  CPU:    9.585
  ** Hessian has required structure


  **** Optimisation achieved ****


  Final energy =   -3075.10750358 eV      
  Final Gnorm  =       0.00005449

  Components of energy : 

--------------------------------------------------------------------------------
  Interatomic potentials     =         816.87184304 eV    
  Three-body potentials      =           0.24988953 eV    
  Monopole - monopole (real) =       -2244.85296948 eV    
  Monopole - monopole (recip)=       -1647.37626668 eV    
  Monopole - monopole (total)=       -3892.22923615 eV    
--------------------------------------------------------------------------------
  Total lattice energy       =       -3075.10750358 eV    
--------------------------------------------------------------------------------
  Total lattice energy       =         -296700.8668 kJ/(mole unit cells)
--------------------------------------------------------------------------------

  Final fractional coordinates of atoms :

--------------------------------------------------------------------------------
   No.  Atomic        x           y          z          Radius
        Label       (Frac)      (Frac)     (Frac)       (Angs) 
--------------------------------------------------------------------------------
     1  Ge    c     0.052090    0.000000    0.372270    0.000000
     2  Ge    c     0.651666    0.339137    0.019320    0.000000
     3  Si    c     0.454679    0.006117    0.359251    0.000000
     4  Si    c     0.951383    0.001199    0.636500    0.000000
     5  Si    c     0.551963    0.012988    0.621055    0.000000
     6  Si    c     0.557510    0.024101    0.111762    0.000000
     7  Si    c     0.944057    0.008177    0.122430    0.000000
     8  Si    c     0.445349    0.007311    0.870555    0.000000
     9  Si    c     0.057380    0.005495    0.888280    0.000000
    10  Si    c     0.171459    0.287493    0.269425    0.000000
    11  Si    c     0.340421    0.717460    0.269572    0.000000
    12  Si    c     0.834398    0.292897    0.712532    0.000000
    13  Si    c     0.667475    0.724573    0.706018    0.000000
    14  Si    c     0.846609    0.696181    0.707144    0.000000
    15  Si    c     0.655362    0.318621    0.709919    0.000000
    16  Si    c     0.160792    0.695308    0.274247    0.000000
    17  Si    c     0.350570    0.312158    0.265865    0.000000
    18  Si    c     0.849011    0.698323    0.010196    0.000000
    19  Si    c     0.348067    0.319062    0.962592    0.000000
    20  Si    c     0.156720    0.695746    0.972766    0.000000
    21  Si    c     0.337048    0.718462    0.966221    0.000000
    22  Si    c     0.168139    0.294429    0.967365    0.000000
    23  Si    c     0.669205    0.742222    0.009918    0.000000
    24  Si    c     0.834425    0.301591    0.018003    0.000000
    25  O3    c     0.119361    0.165775    0.356615    0.000000
    26  O2    c     0.392533    0.847883    0.355783    0.000000
    27  O2    c     0.887232    0.157593    0.631420    0.000000
    28  O2    c     0.615128    0.854802    0.619927    0.000000
    29  O2    c     0.905702    0.815056    0.624604    0.000000
    30  O2    c     0.596867    0.198984    0.624820    0.000000
    31  O3    c     0.101679    0.802533    0.362066    0.000000
    32  O2    c     0.410347    0.192706    0.346588    0.000000
    33  O3    c     0.013763    0.018907    0.525525    0.000000
    34  O2    c     0.500295    0.002374    0.493254    0.000000
    35  O3    c     0.974128    0.014782    0.268145    0.000000
    36  O2    c     0.517572    0.977810    0.246579    0.000000
    37  O2    c     0.996609    0.015295    0.772751    0.000000
    38  O2    c     0.493460    0.990333    0.740048    0.000000
    39  O3    c     0.585799    0.223620    0.110509    0.000000
    40  O2    c     0.904850    0.819044    0.096443    0.000000
    41  O2    c     0.403643    0.198194    0.874337    0.000000
    42  O2    c     0.100754    0.816347    0.885068    0.000000
    43  O2    c     0.380730    0.854356    0.873988    0.000000
    44  O2    c     0.120454    0.161747    0.875469    0.000000
    45  O2    c     0.633882    0.901492    0.093417    0.000000
    46  O2    c     0.881983    0.164111    0.103719    0.000000
    47  O2    c     0.500133    0.979154    0.993848    0.000000
    48  O2    c     0.015740    0.035851    0.025776    0.000000
    49  O2    c     0.147132    0.489080    0.295353    0.000000
    50  O2    c     0.366651    0.516830    0.296895    0.000000
    51  O2    c     0.864178    0.490144    0.682762    0.000000
    52  O2    c     0.638255    0.524891    0.684983    0.000000
    53  O2    c     0.262642    0.262079    0.304391    0.000000
    54  O2    c     0.250244    0.743920    0.308352    0.000000
    55  O2    c     0.744388    0.274461    0.669213    0.000000
    56  O2    c     0.757885    0.739710    0.664662    0.000000
    57  O2    c     0.158762    0.239187    0.117584    0.000000
    58  O2    c     0.351389    0.763563    0.117800    0.000000
    59  O2    c     0.838987    0.250510    0.865631    0.000000
    60  O2    c     0.659870    0.780605    0.856467    0.000000
    61  O2    c     0.859666    0.743779    0.858615    0.000000
    62  O3    c     0.640982    0.274066    0.859317    0.000000
    63  O2    c     0.143672    0.745403    0.123859    0.000000
    64  O2    c     0.364024    0.273139    0.113220    0.000000
    65  O3    c     0.628944    0.558422    0.040654    0.000000
    66  O2    c     0.871295    0.495822    0.037717    0.000000
    67  O2    c     0.368502    0.522024    0.935404    0.000000
    68  O2    c     0.136074    0.492161    0.946056    0.000000
    69  O3    c     0.746476    0.300692    0.066124    0.000000
    70  O2    c     0.759703    0.730097    0.049426    0.000000
    71  O2    c     0.258390    0.282482    0.926933    0.000000
    72  O2    c     0.245734    0.731498    0.933803    0.000000
    73  O3    s     0.119399    0.165149    0.348420    0.000000
    74  O2    s     0.393399    0.850384    0.346488    0.000000
    75  O2    s     0.888115    0.156178    0.640971    0.000000
    76  O2    s     0.614227    0.857192    0.629616    0.000000
    77  O2    s     0.904016    0.821280    0.634669    0.000000
    78  O2    s     0.598408    0.192088    0.633587    0.000000
    79  O3    s     0.103886    0.807343    0.353581    0.000000
    80  O2    s     0.408421    0.186003    0.338891    0.000000
    81  O3    s     0.010188    0.015313    0.524516    0.000000
    82  O2    s     0.500982    0.004098    0.492411    0.000000
    83  O3    s     0.977583    0.012815    0.261540    0.000000
    84  O2    s     0.515101    0.986345    0.243647    0.000000
    85  O2    s     0.998822    0.012558    0.771439    0.000000
    86  O2    s     0.494418    0.994943    0.742067    0.000000
    87  O3    s     0.588373    0.213112    0.103148    0.000000
    88  O2    s     0.902723    0.825652    0.089385    0.000000
    89  O2    s     0.401915    0.191385    0.883748    0.000000
    90  O2    s     0.102324    0.823030    0.895051    0.000000
    91  O2    s     0.382783    0.855584    0.884024    0.000000
    92  O2    s     0.119061    0.159892    0.886948    0.000000
    93  O2    s     0.629757    0.896757    0.085951    0.000000
    94  O2    s     0.883412    0.162542    0.095935    0.000000
    95  O2    s     0.500336    0.987382    0.993011    0.000000
    96  O2    s     0.012399    0.029452    0.021370    0.000000
    97  O2    s     0.151293    0.489953    0.290207    0.000000
    98  O2    s     0.362109    0.516180    0.290635    0.000000
    99  O2    s     0.859148    0.491507    0.688500    0.000000
   100  O2    s     0.643205    0.524293    0.689846    0.000000
   101  O2    s     0.262468    0.270163    0.296550    0.000000
   102  O2    s     0.250514    0.735972    0.300616    0.000000
   103  O2    s     0.744674    0.281118    0.678077    0.000000
   104  O2    s     0.757671    0.733433    0.673532    0.000000
   105  O2    s     0.161093    0.250028    0.117550    0.000000
   106  O2    s     0.348693    0.753933    0.117746    0.000000
   107  O2    s     0.838009    0.260443    0.865378    0.000000
   108  O2    s     0.661694    0.770569    0.856478    0.000000
   109  O2    s     0.857136    0.733926    0.858747    0.000000
   110  O3    s     0.643274    0.283763    0.857287    0.000000
   111  O2    s     0.146797    0.735133    0.123398    0.000000
   112  O2    s     0.360922    0.282063    0.113384    0.000000
   113  O3    s     0.634798    0.559057    0.035882    0.000000
   114  O2    s     0.865110    0.497318    0.032700    0.000000
   115  O2    s     0.362982    0.520960    0.941608    0.000000
   116  O2    s     0.141705    0.493019    0.951203    0.000000
   117  O3    s     0.747636    0.303983    0.057305    0.000000
   118  O2    s     0.759680    0.727825    0.040738    0.000000
   119  O2    s     0.258365    0.287870    0.935276    0.000000
   120  O2    s     0.246041    0.726056    0.941693    0.000000
--------------------------------------------------------------------------------

  Final Cartesian lattice vectors (Angstroms) :

       17.159142    0.039883   -0.028563
        0.017877    7.602615   -0.022609
       -0.018536   -0.032398   10.281034


  Final cell parameters and derivatives :

--------------------------------------------------------------------------------
       a           17.159212 Angstrom     dE/de1(xx)     0.003417 eV/strain
       b            7.602670 Angstrom     dE/de2(yy)     0.001126 eV/strain
       c           10.281101 Angstrom     dE/de3(zz)     0.005960 eV/strain
       alpha       90.351179 Degrees      dE/de4(yz)     0.000170 eV/strain
       beta        90.199094 Degrees      dE/de5(xz)     0.000058 eV/strain
       gamma       89.731822 Degrees      dE/de6(xy)    -0.000001 eV/strain
--------------------------------------------------------------------------------

  Primitive cell volume =          1341.181643 Angs**3

  Density of cell =      1.895834 g/cm**3

  Non-primitive cell volume =          1341.181643 Angs**3


  Final internal derivatives :

--------------------------------------------------------------------------------
   No.  Atomic          a             b             c           Radius
        Label          (eV)          (eV)          (eV)        (eV/Angs)
--------------------------------------------------------------------------------
      1 Ge    c       0.000000      0.000000      0.000000      0.000000
      2 Ge    c      -0.000756      0.000343      0.000188      0.000000
      3 Si    c      -0.006754      0.000720     -0.000513      0.000000
      4 Si    c      -0.000071     -0.000020      0.000043      0.000000
      5 Si    c       0.008648      0.000747      0.001393      0.000000
      6 Si    c       0.004596      0.001418      0.001046      0.000000
      7 Si    c      -0.000010     -0.000038      0.000159      0.000000
      8 Si    c      -0.005721      0.000868      0.001366      0.000000
      9 Si    c      -0.000049      0.000044     -0.000086      0.000000
     10 Si    c       0.000057     -0.000011     -0.000138      0.000000
     11 Si    c       0.000436     -0.000251      0.000124      0.000000
     12 Si    c      -0.000124      0.000019      0.000002      0.000000
     13 Si    c      -0.000661     -0.000289     -0.000160      0.000000
     14 Si    c       0.000062     -0.000017     -0.000044      0.000000
     15 Si    c      -0.000922      0.000228     -0.000097      0.000000
     16 Si    c       0.000076     -0.000008     -0.000014      0.000000
     17 Si    c       0.000658      0.000056      0.000158      0.000000
     18 Si    c      -0.000171     -0.000028      0.000112      0.000000
     19 Si    c       0.000691      0.000201     -0.000215      0.000000
     20 Si    c       0.000067     -0.000037     -0.000029      0.000000
     21 Si    c       0.000740     -0.000107     -0.000105      0.000000
     22 Si    c      -0.000014     -0.000000      0.000059      0.000000
     23 Si    c      -0.000756     -0.000262      0.000347      0.000000
     24 Si    c      -0.000409      0.000048      0.000068      0.000000
     25 O3    c       0.000110      0.000070      0.000101      0.000000
     26 O2    c      -0.000639     -0.000572      0.000378      0.000000
     27 O2    c      -0.000023      0.000023     -0.000013      0.000000
     28 O2    c       0.000554     -0.000663     -0.000215      0.000000
     29 O2    c       0.000010     -0.000008     -0.000021      0.000000
     30 O2    c      -0.000164      0.000332     -0.000053      0.000000
     31 O3    c       0.000042     -0.000082      0.000020      0.000000
     32 O2    c       0.000269      0.000261     -0.000050      0.000000
     33 O3    c       0.000160      0.000026     -0.000054      0.000000
     34 O2    c      -0.001914     -0.000471     -0.001586      0.000000
     35 O3    c      -0.000392      0.000018     -0.000233      0.000000
     36 O2    c       0.004839     -0.001567     -0.000915      0.000000
     37 O2    c       0.000120      0.000020      0.000077      0.000000
     38 O2    c      -0.002916     -0.001003     -0.002216      0.000000
     39 O3    c      -0.000215      0.000631     -0.000156      0.000000
     40 O2    c      -0.000094     -0.000100     -0.000063      0.000000
     41 O2    c      -0.000213      0.000825     -0.000076      0.000000
     42 O2    c       0.000096     -0.000091      0.000014      0.000000
     43 O2    c      -0.000739     -0.000723     -0.000073      0.000000
     44 O2    c       0.000007     -0.000015     -0.000042      0.000000
     45 O2    c       0.001620     -0.000756     -0.000113      0.000000
     46 O2    c      -0.000264      0.000102     -0.000022      0.000000
     47 O2    c      -0.000293     -0.001932     -0.001193      0.000000
     48 O2    c       0.000268      0.000066     -0.000036      0.000000
     49 O2    c      -0.000060      0.000124      0.000033      0.000000
     50 O2    c       0.000167     -0.000089      0.000045      0.000000
     51 O2    c      -0.000084     -0.000031      0.000074      0.000000
     52 O2    c       0.000137      0.000046      0.000152      0.000000
     53 O2    c       0.000250      0.000015      0.000014      0.000000
     54 O2    c      -0.000335     -0.000002      0.000030      0.000000
     55 O2    c       0.000185      0.000049      0.000041      0.000000
     56 O2    c      -0.000157     -0.000048      0.000014      0.000000
     57 O2    c       0.000006      0.000013     -0.000029      0.000000
     58 O2    c      -0.000222     -0.000117     -0.000139      0.000000
     59 O2    c       0.000033      0.000034     -0.000049      0.000000
     60 O2    c       0.000493     -0.000331      0.000240      0.000000
     61 O2    c       0.000004     -0.000048     -0.000007      0.000000
     62 O3    c       0.000237      0.000371     -0.000086      0.000000
     63 O2    c      -0.000018      0.000005      0.000062      0.000000
     64 O2    c       0.000038      0.000124     -0.000030      0.000000
     65 O3    c       0.000597      0.000009     -0.000483      0.000000
     66 O2    c      -0.000248     -0.000011     -0.000107      0.000000
     67 O2    c       0.000175     -0.000062     -0.000057      0.000000
     68 O2    c       0.000016      0.000058     -0.000016      0.000000
     69 O3    c       0.000252      0.000164     -0.000183      0.000000
     70 O2    c      -0.000655     -0.000072     -0.000154      0.000000
     71 O2    c       0.000386      0.000021     -0.000009      0.000000
     72 O2    c      -0.000154     -0.000002     -0.000022      0.000000
     73 O3    s      -0.000035     -0.000030     -0.000010      0.000000
     74 O2    s      -0.003195     -0.000206     -0.000232      0.000000
     75 O2    s      -0.000169      0.000046      0.000028      0.000000
     76 O2    s       0.003660     -0.000397      0.000529      0.000000
     77 O2    s      -0.000112     -0.000053      0.000064      0.000000
     78 O2    s       0.003124      0.000704      0.000254      0.000000
     79 O3    s       0.000065     -0.000033     -0.000020      0.000000
     80 O2    s      -0.002729      0.000649      0.000218      0.000000
     81 O3    s      -0.000073     -0.000001      0.000025      0.000000
     82 O2    s       0.000271      0.000320      0.000283      0.000000
     83 O3    s       0.000168     -0.000033      0.000146      0.000000
     84 O2    s      -0.000801      0.000067      0.000646      0.000000
     85 O2    s      -0.000035      0.000004     -0.000037      0.000000
     86 O2    s      -0.000044     -0.000181     -0.000264      0.000000
     87 O3    s       0.002671      0.000789      0.000327      0.000000
     88 O2    s      -0.000104     -0.000131      0.000013      0.000000
     89 O2    s      -0.003169      0.000631      0.000388      0.000000
     90 O2    s       0.000043     -0.000013     -0.000027      0.000000
     91 O2    s      -0.003480     -0.000311     -0.000126      0.000000
     92 O2    s       0.000022     -0.000016     -0.000025      0.000000
     93 O2    s       0.003247     -0.000274     -0.000148      0.000000
     94 O2    s      -0.000127      0.000099      0.000023      0.000000
     95 O2    s       0.000828      0.000169      0.000746      0.000000
     96 O2    s      -0.000059     -0.000002      0.000012      0.000000
     97 O2    s       0.000037      0.000053     -0.000042      0.000000
     98 O2    s      -0.000469     -0.000016     -0.000127      0.000000
     99 O2    s      -0.000218      0.000003      0.000121      0.000000
    100 O2    s       0.000785      0.000111      0.000238      0.000000
    101 O2    s      -0.000037     -0.000050     -0.000020      0.000000
    102 O2    s      -0.000153      0.000018     -0.000029      0.000000
    103 O2    s       0.000084      0.000079      0.000226      0.000000
    104 O2    s      -0.000114     -0.000091      0.000332      0.000000
    105 O2    s      -0.000000     -0.000001      0.000002      0.000000
    106 O2    s       0.000724      0.000410      0.000269      0.000000
    107 O2    s      -0.000307      0.000100      0.000033      0.000000
    108 O2    s      -0.000427      0.000351      0.000059      0.000000
    109 O2    s      -0.000364     -0.000074      0.000050      0.000000
    110 O3    s       0.000120     -0.000502      0.000092      0.000000
    111 O2    s       0.000032     -0.000043      0.000031      0.000000
    112 O2    s      -0.000104     -0.000336      0.000059      0.000000
    113 O3    s       0.000931      0.000201     -0.000192      0.000000
    114 O2    s      -0.000177      0.000014     -0.000105      0.000000
    115 O2    s      -0.000569     -0.000066      0.000177      0.000000
    116 O2    s      -0.000043      0.000025      0.000041      0.000000
    117 O3    s       0.000003     -0.000019     -0.000189      0.000000
    118 O2    s      -0.000173     -0.000132     -0.000419      0.000000
    119 O2    s      -0.000137     -0.000057      0.000096      0.000000
    120 O2    s      -0.000243      0.000036      0.000031      0.000000
--------------------------------------------------------------------------------
  Maximum abs         0.008648      0.001932      0.002216      0.000000
--------------------------------------------------------------------------------


  Born effective charge tensors : 

-------------------------------------------------------------------------------
  Atom             x           y             z
-------------------------------------------------------------------------------
    1 Ge    x       4.2891     -0.1267     -0.4104
            y       0.0915      3.9024     -0.0163
            z      -0.3897      0.0714      4.6675
-------------------------------------------------------------------------------
    2 Ge    x       4.0336      0.3137     -0.1653
            y       0.3299      4.1848     -0.2524
            z      -0.2443     -0.0373      3.3159
-------------------------------------------------------------------------------
    3 Si    x       3.4196     -0.0883      0.2605
            y       0.1136      3.2478     -0.0385
            z       0.4612      0.0102      3.8046
-------------------------------------------------------------------------------
    4 Si    x       3.7520      0.1432     -0.1991
            y      -0.0723      3.2841     -0.0179
            z      -0.9146     -0.1055      4.0490
-------------------------------------------------------------------------------
    5 Si    x       3.4972      0.1028      0.1605
            y      -0.0951      3.2252      0.0090
            z       0.4947     -0.0109      3.8009
-------------------------------------------------------------------------------
    6 Si    x       3.5538      0.3901     -0.2391
            y      -0.0936      3.5120      0.0408
            z      -0.4766     -0.1434      3.1593
-------------------------------------------------------------------------------
    7 Si    x       3.5947      0.1104      0.4629
            y      -0.1225      3.2913      0.0218
            z       0.4882      0.0397      3.5656
-------------------------------------------------------------------------------
    8 Si    x       3.4831     -0.1290     -0.2146
            y       0.1213      3.2583     -0.0091
            z      -0.5482      0.0351      3.1074
-------------------------------------------------------------------------------
    9 Si    x       3.5357     -0.1029      0.0827
            y       0.1086      3.2622     -0.0260
            z       0.6238     -0.0191      2.9488
-------------------------------------------------------------------------------
   10 Si    x       3.4015      0.4119     -0.2654
            y       0.3513      3.6015     -0.3349
            z      -0.2585     -0.2104      3.0094
-------------------------------------------------------------------------------
   11 Si    x       3.1729      0.2718      0.1315
            y       0.2123      3.4706      0.1634
            z       0.1159      0.0764      2.8176
-------------------------------------------------------------------------------
   12 Si    x       3.2045     -0.3088     -0.0750
            y      -0.1744      3.4642      0.1470
            z      -0.1015      0.0488      2.7671
-------------------------------------------------------------------------------
   13 Si    x       3.2321     -0.3140      0.1181
            y      -0.1906      3.4460     -0.1638
            z       0.1422     -0.0457      2.7816
-------------------------------------------------------------------------------
   14 Si    x       3.2192      0.2501     -0.0397
            y       0.2791      3.4365     -0.1754
            z      -0.0749     -0.0514      2.7780
-------------------------------------------------------------------------------
   15 Si    x       3.2942      0.2818      0.0076
            y       0.3164      3.5462      0.1105
            z       0.0785      0.0019      3.1014
-------------------------------------------------------------------------------
   16 Si    x       3.4454     -0.3352     -0.2605
            y      -0.4282      3.5256      0.3260
            z      -0.2746      0.1716      3.0052
-------------------------------------------------------------------------------
   17 Si    x       3.1745     -0.2159      0.0792
            y      -0.2974      3.4375     -0.1538
            z       0.1189     -0.0857      2.8202
-------------------------------------------------------------------------------
   18 Si    x       3.2516      0.2590      0.1427
            y       0.2094      3.3605      0.1837
            z       0.1679      0.0515      2.7265
-------------------------------------------------------------------------------
   19 Si    x       3.2563     -0.2572     -0.1363
            y      -0.2467      3.4033      0.1750
            z      -0.1397      0.0622      2.7159
-------------------------------------------------------------------------------
   20 Si    x       3.2789     -0.2679      0.1558
            y      -0.2387      3.4122     -0.1943
            z       0.1418     -0.0494      2.6719
-------------------------------------------------------------------------------
   21 Si    x       3.2284      0.3197     -0.1863
            y       0.1304      3.4425     -0.1832
            z      -0.1185     -0.0823      2.7402
-------------------------------------------------------------------------------
   22 Si    x       3.2721      0.3323      0.1745
            y       0.1472      3.4328      0.1893
            z       0.1247      0.0361      2.6693
-------------------------------------------------------------------------------
   23 Si    x       3.3202     -0.2951     -0.1749
            y       0.0844      3.7117      0.0813
            z      -0.1587      0.0271      2.8039
-------------------------------------------------------------------------------
   24 Si    x       3.5720     -0.3263      0.0120
            y      -0.0987      3.4976     -0.2158
            z       0.0561     -0.0907      2.8146
-------------------------------------------------------------------------------
   25 O3    x      -2.1390     -0.9639      0.5735
            y      -1.0231     -2.3162      0.5798
            z       0.5979      0.5522     -1.6524
-------------------------------------------------------------------------------
   26 O2    x      -1.7372     -0.7200     -0.3375
            y      -0.7572     -1.9503     -0.3381
            z      -0.3665     -0.3316     -1.3569
-------------------------------------------------------------------------------
   27 O2    x      -1.7631      0.7267      0.2355
            y       0.7518     -1.9648     -0.2811
            z       0.3247     -0.2584     -1.3132
-------------------------------------------------------------------------------
   28 O2    x      -1.7631      0.7283     -0.3097
            y       0.7493     -1.9315      0.3206
            z      -0.3649      0.3154     -1.3530
-------------------------------------------------------------------------------
   29 O2    x      -1.6756     -0.7107      0.2446
            y      -0.6702     -2.0035      0.2501
            z       0.3411      0.2584     -1.3405
-------------------------------------------------------------------------------
   30 O2    x      -1.6791     -0.7218     -0.2926
            y      -0.6851     -2.0196     -0.3074
            z      -0.3622     -0.3144     -1.3405
-------------------------------------------------------------------------------
   31 O3    x      -2.0664      0.9407      0.5591
            y       0.9360     -2.3292     -0.5244
            z       0.5850     -0.5210     -1.6510
-------------------------------------------------------------------------------
   32 O2    x      -1.6592      0.7063     -0.3367
            y       0.6826     -2.0069      0.3602
            z      -0.3744      0.3562     -1.3607
-------------------------------------------------------------------------------
   33 O3    x      -2.0702     -0.0339      1.1487
            y      -0.0285     -1.2131      0.0250
            z       1.4564      0.0286     -3.4098
-------------------------------------------------------------------------------
   34 O2    x      -1.6401     -0.0152     -0.8434
            y      -0.0086     -1.0827     -0.0066
            z      -1.0707     -0.0279     -2.7804
-------------------------------------------------------------------------------
   35 O3    x      -2.0107      0.0117     -0.9194
            y       0.0311     -1.2187      0.0112
            z      -0.9342      0.0051     -2.8722
-------------------------------------------------------------------------------
   36 O2    x      -1.6740     -0.0397      0.6737
            y       0.0006     -1.1293      0.0390
            z       0.6612      0.0644     -2.1869
-------------------------------------------------------------------------------
   37 O2    x      -1.7944     -0.0027     -0.7561
            y       0.0001     -1.1338      0.0064
            z      -0.7384      0.0019     -2.1535
-------------------------------------------------------------------------------
   38 O2    x      -1.7474     -0.0023      0.7514
            y      -0.0081     -1.1159      0.0076
            z       0.7644      0.0098     -2.2380
-------------------------------------------------------------------------------
   39 O3    x      -1.9187     -0.8731      0.4032
            y      -0.7508     -2.5786      0.3918
            z       0.4350      0.3759     -1.3936
-------------------------------------------------------------------------------
   40 O2    x      -1.6592     -0.6835     -0.3775
            y      -0.5884     -2.0047     -0.3979
            z      -0.3547     -0.3638     -1.2692
-------------------------------------------------------------------------------
   41 O2    x      -1.6586      0.6970      0.3318
            y       0.6181     -2.0082     -0.3426
            z       0.3614     -0.3308     -1.2472
-------------------------------------------------------------------------------
   42 O2    x      -1.6955      0.7204     -0.3103
            y       0.6322     -2.0047      0.3283
            z      -0.3554      0.3043     -1.2099
-------------------------------------------------------------------------------
   43 O2    x      -1.7395     -0.7131      0.3430
            y      -0.6887     -1.9353      0.3746
            z       0.3464      0.3353     -1.2643
-------------------------------------------------------------------------------
   44 O2    x      -1.7761     -0.7302     -0.2695
            y      -0.6983     -1.9195     -0.2963
            z      -0.3242     -0.2744     -1.2206
-------------------------------------------------------------------------------
   45 O2    x      -1.8167      0.6285      0.3608
            y       0.6241     -1.8278     -0.3726
            z       0.3551     -0.3180     -1.2688
-------------------------------------------------------------------------------
   46 O2    x      -1.7122      0.6997     -0.3595
            y       0.6559     -1.9582      0.3854
            z      -0.3337      0.3499     -1.2741
-------------------------------------------------------------------------------
   47 O2    x      -1.7837     -0.0153     -0.5977
            y       0.0028     -1.1788     -0.0258
            z      -0.3382     -0.0086     -1.7339
-------------------------------------------------------------------------------
   48 O2    x      -1.8725     -0.0218      0.5779
            y      -0.0235     -1.1804     -0.0102
            z       0.3009     -0.0180     -1.6549
-------------------------------------------------------------------------------
   49 O2    x      -1.1822      0.0402      0.0648
            y       0.0782     -2.4919     -0.0176
            z       0.0794     -0.0049     -1.0874
-------------------------------------------------------------------------------
   50 O2    x      -1.1500      0.0447     -0.0610
            y       0.0844     -2.5698     -0.0143
            z      -0.0734     -0.0108     -1.0691
-------------------------------------------------------------------------------
   51 O2    x      -1.1730     -0.0421      0.0516
            y      -0.1033     -2.5561      0.0336
            z       0.0714      0.0070     -1.0575
-------------------------------------------------------------------------------
   52 O2    x      -1.1867     -0.0537     -0.0483
            y      -0.1024     -2.5794     -0.0078
            z      -0.0742     -0.0040     -1.0540
-------------------------------------------------------------------------------
   53 O2    x      -2.3581     -0.0606     -0.0009
            y      -0.0219     -1.2565      0.0733
            z       0.0039      0.0554     -1.0815
-------------------------------------------------------------------------------
   54 O2    x      -2.3709     -0.0854      0.0076
            y      -0.0565     -1.2582     -0.0745
            z       0.0176     -0.0490     -1.0835
-------------------------------------------------------------------------------
   55 O2    x      -2.4024      0.0789     -0.0403
            y       0.0289     -1.2588     -0.0632
            z      -0.0598     -0.0375     -1.0707
-------------------------------------------------------------------------------
   56 O2    x      -2.4084      0.0878     -0.0097
            y       0.0547     -1.2383      0.0679
            z      -0.0089      0.0380     -1.0786
-------------------------------------------------------------------------------
   57 O2    x      -1.2022     -0.1372     -0.0677
            y      -0.1012     -1.3059      0.0052
            z      -0.0594     -0.0024     -2.0225
-------------------------------------------------------------------------------
   58 O2    x      -1.1738     -0.1276     -0.0039
            y      -0.0968     -1.2869      0.0028
            z      -0.0007      0.0121     -2.0711
-------------------------------------------------------------------------------
   59 O2    x      -1.1726      0.1136     -0.0606
            y       0.0634     -1.2994     -0.0194
            z      -0.0338     -0.0121     -2.0679
-------------------------------------------------------------------------------
   60 O2    x      -1.1956      0.1338      0.0205
            y       0.0777     -1.2753     -0.0464
            z      -0.0077     -0.0649     -2.0675
-------------------------------------------------------------------------------
   61 O2    x      -1.1982     -0.1277     -0.0307
            y      -0.1115     -1.2698     -0.0060
            z      -0.0405      0.0034     -2.0545
-------------------------------------------------------------------------------
   62 O3    x      -1.3435     -0.1575      0.1060
            y      -0.1482     -1.4512      0.0461
            z       0.0969     -0.0046     -2.6127
-------------------------------------------------------------------------------
   63 O2    x      -1.2208      0.1376     -0.0596
            y       0.1306     -1.2942      0.0200
            z      -0.0660      0.0235     -2.0231
-------------------------------------------------------------------------------
   64 O2    x      -1.2010      0.1274      0.0082
            y       0.1281     -1.2724      0.0122
            z       0.0139      0.0150     -2.0673
-------------------------------------------------------------------------------
   65 O3    x      -1.4584     -0.2054      0.1275
            y      -0.2656     -3.0774      0.1046
            z       0.1599      0.1162     -1.1501
-------------------------------------------------------------------------------
   66 O2    x      -1.2359     -0.0338     -0.0754
            y      -0.0885     -2.4931      0.0365
            z      -0.0943      0.0269     -1.0248
-------------------------------------------------------------------------------
   67 O2    x      -1.2197      0.0410      0.0895
            y       0.0885     -2.5042     -0.0122
            z       0.0985     -0.0066     -1.0235
-------------------------------------------------------------------------------
   68 O2    x      -1.2329      0.0428     -0.0843
            y       0.0914     -2.5150     -0.0203
            z      -0.0929     -0.0089     -0.9973
-------------------------------------------------------------------------------
   69 O3    x      -3.0564      0.1331      0.1078
            y       0.0604     -1.3757      0.0839
            z       0.1030      0.0365     -1.2109
-------------------------------------------------------------------------------
   70 O2    x      -2.4189      0.1704     -0.0081
            y       0.1018     -1.2411     -0.0504
            z       0.0095     -0.0246     -1.0577
-------------------------------------------------------------------------------
   71 O2    x      -2.4305     -0.0788      0.0219
            y      -0.0417     -1.2337     -0.0648
            z       0.0209     -0.0305     -1.0343
-------------------------------------------------------------------------------
   72 O2    x      -2.4383     -0.0731      0.0301
            y      -0.0418     -1.2404      0.0675
            z       0.0105      0.0356     -1.0284
-------------------------------------------------------------------------------




  Elastic Constant Matrix: (Units=GPa)

-------------------------------------------------------------------------------
  Indices      1         2         3         4         5         6    
-------------------------------------------------------------------------------
       1     57.0199   28.5250   28.2926    0.4615    4.2002   -1.4694
       2     28.5250   73.8379   24.9230    0.7570    4.8005   -2.0960
       3     28.2926   24.9230   38.2081    0.0576    1.2544    2.7060
       4      0.4615    0.7570    0.0576   11.7895    0.1950    0.6020
       5      4.2002    4.8005    1.2544    0.1950   25.2070    0.2482
       6     -1.4694   -2.0960    2.7060    0.6020    0.2482   24.1758
-------------------------------------------------------------------------------


  Elastic Compliance Matrix: (Units=1/GPa)

-------------------------------------------------------------------------------
  Indices      1         2         3         4         5         6    
-------------------------------------------------------------------------------
       1    0.029682 -0.004723 -0.019047 -0.000897 -0.003127  0.003581
       2   -0.004723  0.018524 -0.008673 -0.001043 -0.002324  0.002339
       3   -0.019047 -0.008673  0.046355  0.001399  0.002578 -0.007159
       4   -0.000897 -0.001043  0.001399  0.085046 -0.000356 -0.002416
       5   -0.003127 -0.002324  0.002578 -0.000356  0.040520 -0.001087
       6    0.003581  0.002339 -0.007159 -0.002416 -0.001087  0.042657
-------------------------------------------------------------------------------

  Mechanical properties :

-------------------------------------------------------------------------------
  Convention :                    Reuss         Voigt         Hill
-------------------------------------------------------------------------------
  Bulk  Modulus (GPa)     =      33.70181      36.94966      35.32573
  Shear Modulus (GPa)     =      14.81213      18.05614      16.43413
-------------------------------------------------------------------------------
  Velocity S-wave (km/s)  =       2.79517       3.08612       2.94424
  Velocity P-wave (km/s)  =       5.30981       5.67351       5.49467
-------------------------------------------------------------------------------
  Compressibility (1/GPa) =    0.02967200
-------------------------------------------------------------------------------
  Stress axis :                     x             y             z
-------------------------------------------------------------------------------
  Youngs Moduli (GPa)     =      33.69093      53.98531      21.57284
-------------------------------------------------------------------------------
  Poissons Ratio (x)      =                     0.25498       0.41091
  Poissons Ratio (y)      =       0.15913                     0.18711
  Poissons Ratio (z)      =       0.64173       0.46822
-------------------------------------------------------------------------------


  Piezoelectric Strain Matrix: (Units=C/m**2)

-------------------------------------------------------------------------------
  Indices      1         2         3         4         5         6    
-------------------------------------------------------------------------------
       x     0.03575   0.34835  -0.53095   0.05207  -0.27558   0.03141
       y    -0.41978   0.22496   0.13541  -0.28016   0.15503   0.13524
       z    -0.32561  -1.09837   2.17845   0.05893  -0.00606  -0.52587
-------------------------------------------------------------------------------


  Piezoelectric Stress Matrix: (Units=10**-11 C/N)

-------------------------------------------------------------------------------
  Indices      1         2         3         4         5         6    
-------------------------------------------------------------------------------
       x     1.04566   1.15485  -2.91770   0.33119  -1.35095   0.62580
       y    -1.58507   0.52237   1.13612  -2.38773   0.73732   0.43306
       z    -4.78877  -3.89796  12.05414   1.07692   0.94929  -4.18999
-------------------------------------------------------------------------------


  Static dielectric constant tensor : 

-------------------------------------------------------------------------------
              x         y         z
-------------------------------------------------------------------------------
       x     3.81907   0.02532  -0.14241
       y     0.02532   3.95319   0.00573
       z    -0.14241   0.00573   3.43237
--------------------------------------------------------------------------------

  High frequency dielectric constant tensor : 

-------------------------------------------------------------------------------
              x         y         z
-------------------------------------------------------------------------------
       x     1.68385   0.00039   0.00082
       y     0.00039   1.69115  -0.00084
       z     0.00082  -0.00084   1.62107
-------------------------------------------------------------------------------

  Static refractive indices : 

-------------------------------------------------------------------------------
    1 =    1.83991      2 =    1.96482      3 =    1.98968
-------------------------------------------------------------------------------

  High frequency refractive indices : 

-------------------------------------------------------------------------------
    1 =    1.27320      2 =    1.29763      3 =    1.30045
-------------------------------------------------------------------------------


  Time to end of optimisation =       9.9401 seconds


  Peak dynamic memory used =       5.01 MB 


  Timing analysis for GULP :

--------------------------------------------------------------------------------
  Task / Subroutine                                          Time (Seconds)
--------------------------------------------------------------------------------
  Calculation of reciprocal space energy and derivatives          0.6154
  Calculation of real space energy and derivatives                6.1899
  Calculation of three-body energy and derivatives                0.6705
  Calculation and manipulation of Hessian matrix                  3.1882
  Calculation of matrix inversion                                 0.0216
  Global summation overhead                                       0.0002
--------------------------------------------------------------------------------
  Total CPU time                                                  9.9401
--------------------------------------------------------------------------------


  Dump file written as c00012.vasp.grs
  CIF file written as c00012.vasp.cif


  Job Finished at 10:48.41  7th October    2025                               

