********************************************************************************
*                       GENERAL UTILITY LATTICE PROGRAM                        *
*                                 Julian Gale                                  *
*                       Curtin Institute for Computation                       *
*                    School of Molecular and Life Sciences                     *
*                    Curtin University, Western Australia                      *
********************************************************************************
* Version = 6.1.2 * Last modified =   3rd November 2022                        *
********************************************************************************
*  optimise     - perform optimisation run                                     *
*  conp         - constant pressure calculation                                *
*  property     - calculate properties for final geometry                      *
********************************************************************************

  Job Started  at 10:53.26  7th October    2025                               

  Number of CPUs =     1


  Total number of configurations input =      1

********************************************************************************
*  Input for Configuration =   1 : c00043.vasp                                 *
********************************************************************************

  Formula = Ge2Si22O48                                                  

  Number of irreducible atoms/shells =     120


  Total number atoms/shells =     120

  Dimensionality = 3               :  Bulk   



  Cartesian lattice vectors (Angstroms) :

       17.182800    0.000000    0.000000
        0.000000    7.513760    0.000000
        0.000000    0.000000   10.447700

  Cell parameters (Angstroms/Degrees):

  a =      17.1828    alpha =  90.0000
  b =       7.5138    beta  =  90.0000
  c =      10.4477    gamma =  90.0000

  Initial cell volume =        1348.875752 Angs**3

  Temperature of configuration =   0.00     K 

  Pressure of configuration =         0.000 GPa 

  Fractional coordinates of asymmetric unit :

--------------------------------------------------------------------------------
   No.  Atomic       x           y          z         Charge      Occupancy
        Label      (Frac)      (Frac)     (Frac)        (e)         (Frac)  
--------------------------------------------------------------------------------
      1 Ge    c    0.660660    0.294090    0.017440     4.00000    1.000000    
      2 Ge    c    0.339340 *  0.294090 *  0.982560 *   4.00000    1.000000    
      3 Si    c    0.052090 *  0.000000 *  0.372270 *   4.00000    1.000000    
      4 Si    c    0.447910 *  0.000000 *  0.372270 *   4.00000    1.000000    
      5 Si    c    0.947910 *  0.000000 *  0.627730 *   4.00000    1.000000    
      6 Si    c    0.552090 *  0.000000 *  0.627730 *   4.00000    1.000000    
      7 Si    c    0.556730 *  0.000000 *  0.122130 *   4.00000    1.000000    
      8 Si    c    0.943270 *  0.000000 *  0.122130 *   4.00000    1.000000    
      9 Si    c    0.443270 *  0.000000 *  0.877870 *   4.00000    1.000000    
     10 Si    c    0.056730 *  0.000000 *  0.877870 *   4.00000    1.000000    
     11 Si    c    0.160190 *  0.293910 *  0.273440 *   4.00000    1.000000    
     12 Si    c    0.339810 *  0.706090 *  0.273440 *   4.00000    1.000000    
     13 Si    c    0.839810 *  0.293910 *  0.726560 *   4.00000    1.000000    
     14 Si    c    0.660190 *  0.706090 *  0.726560 *   4.00000    1.000000    
     15 Si    c    0.839810 *  0.706090 *  0.726560 *   4.00000    1.000000    
     16 Si    c    0.660190 *  0.293910 *  0.726560 *   4.00000    1.000000    
     17 Si    c    0.160190 *  0.706090 *  0.273440 *   4.00000    1.000000    
     18 Si    c    0.339810 *  0.293910 *  0.273440 *   4.00000    1.000000    
     19 Si    c    0.839340 *  0.705910 *  0.017440 *   4.00000    1.000000    
     20 Si    c    0.160660 *  0.705910 *  0.982560 *   4.00000    1.000000    
     21 Si    c    0.339340 *  0.705910 *  0.982560 *   4.00000    1.000000    
     22 Si    c    0.160660 *  0.294090 *  0.982560 *   4.00000    1.000000    
     23 Si    c    0.660660 *  0.705910 *  0.017440 *   4.00000    1.000000    
     24 Si    c    0.839340 *  0.294090 *  0.017440 *   4.00000    1.000000    
     25 O2    c    0.106570 *  0.174340 *  0.366200 *   0.87073    1.000000    
     26 O2    c    0.393430 *  0.825660 *  0.366200 *   0.87073    1.000000    
     27 O2    c    0.893430 *  0.174340 *  0.633800 *   0.87073    1.000000    
     28 O2    c    0.606570 *  0.825660 *  0.633800 *   0.87073    1.000000    
     29 O2    c    0.893430 *  0.825660 *  0.633800 *   0.87073    1.000000    
     30 O2    c    0.606570 *  0.174340 *  0.633800 *   0.87073    1.000000    
     31 O2    c    0.106570 *  0.825660 *  0.366200 *   0.87073    1.000000    
     32 O2    c    0.393430 *  0.174340 *  0.366200 *   0.87073    1.000000    
     33 O2    c    0.000000 *  0.000000 *  0.500000 *   0.87073    1.000000    
     34 O2    c    0.500000 *  0.000000 *  0.500000 *   0.87073    1.000000    
     35 O2    c    0.994520 *  0.000000 *  0.250840 *   0.87073    1.000000    
     36 O2    c    0.505480 *  0.000000 *  0.250840 *   0.87073    1.000000    
     37 O2    c    0.005480 *  0.000000 *  0.749160 *   0.87073    1.000000    
     38 O2    c    0.494520 *  0.000000 *  0.749160 *   0.87073    1.000000    
     39 O3    c    0.610230 *  0.175520 *  0.115390 *   1.33043    1.000000    
     40 O2    c    0.889770 *  0.824480 *  0.115390 *   0.87073    1.000000    
     41 O3    c    0.389770 *  0.175520 *  0.884610 *   1.33043    1.000000    
     42 O2    c    0.110230 *  0.824480 *  0.884610 *   0.87073    1.000000    
     43 O2    c    0.389770 *  0.824480 *  0.884610 *   0.87073    1.000000    
     44 O2    c    0.110230 *  0.175520 *  0.884610 *   0.87073    1.000000    
     45 O2    c    0.610230 *  0.824480 *  0.115390 *   0.87073    1.000000    
     46 O2    c    0.889770 *  0.175520 *  0.115390 *   0.87073    1.000000    
     47 O2    c    0.500000 *  0.000000 *  0.000000 *   0.87073    1.000000    
     48 O2    c    0.000000 *  0.000000 *  0.000000 *   0.87073    1.000000    
     49 O2    c    0.151750 *  0.500000 *  0.313330 *   0.87073    1.000000    
     50 O2    c    0.348250 *  0.500000 *  0.313330 *   0.87073    1.000000    
     51 O2    c    0.848250 *  0.500000 *  0.686670 *   0.87073    1.000000    
     52 O2    c    0.651750 *  0.500000 *  0.686670 *   0.87073    1.000000    
     53 O2    c    0.250000 *  0.234950 *  0.285720 *   0.87073    1.000000    
     54 O2    c    0.250000 *  0.765050 *  0.285720 *   0.87073    1.000000    
     55 O2    c    0.750000 *  0.234950 *  0.714280 *   0.87073    1.000000    
     56 O2    c    0.750000 *  0.765050 *  0.714280 *   0.87073    1.000000    
     57 O2    c    0.131410 *  0.268650 *  0.127790 *   0.87073    1.000000    
     58 O2    c    0.368590 *  0.731350 *  0.127790 *   0.87073    1.000000    
     59 O2    c    0.868590 *  0.268650 *  0.872210 *   0.87073    1.000000    
     60 O2    c    0.631410 *  0.731350 *  0.872210 *   0.87073    1.000000    
     61 O2    c    0.868590 *  0.731350 *  0.872210 *   0.87073    1.000000    
     62 O3    c    0.631410 *  0.268650 *  0.872210 *   1.33043    1.000000    
     63 O2    c    0.131410 *  0.731350 *  0.127790 *   0.87073    1.000000    
     64 O3    c    0.368590 *  0.268650 *  0.127790 *   1.33043    1.000000    
     65 O3    c    0.653920 *  0.500000 *  0.058200 *   1.33043    1.000000    
     66 O2    c    0.846080 *  0.500000 *  0.058200 *   0.87073    1.000000    
     67 O3    c    0.346080 *  0.500000 *  0.941800 *   1.33043    1.000000    
     68 O2    c    0.153920 *  0.500000 *  0.941800 *   0.87073    1.000000    
     69 O3    c    0.750000 *  0.231060 *  0.027050 *   1.33043    1.000000    
     70 O2    c    0.750000 *  0.768940 *  0.027050 *   0.87073    1.000000    
     71 O3    c    0.250000 *  0.231060 *  0.972950 *   1.33043    1.000000    
     72 O2    c    0.250000 *  0.768940 *  0.972950 *   0.87073    1.000000    
     73 O2    s    0.106570 *  0.174340 *  0.366200 *  -2.87073    1.000000    
     74 O2    s    0.393430 *  0.825660 *  0.366200 *  -2.87073    1.000000    
     75 O2    s    0.893430 *  0.174340 *  0.633800 *  -2.87073    1.000000    
     76 O2    s    0.606570 *  0.825660 *  0.633800 *  -2.87073    1.000000    
     77 O2    s    0.893430 *  0.825660 *  0.633800 *  -2.87073    1.000000    
     78 O2    s    0.606570 *  0.174340 *  0.633800 *  -2.87073    1.000000    
     79 O2    s    0.106570 *  0.825660 *  0.366200 *  -2.87073    1.000000    
     80 O2    s    0.393430 *  0.174340 *  0.366200 *  -2.87073    1.000000    
     81 O2    s    0.000000 *  0.000000 *  0.500000 *  -2.87073    1.000000    
     82 O2    s    0.500000 *  0.000000 *  0.500000 *  -2.87073    1.000000    
     83 O2    s    0.994520 *  0.000000 *  0.250840 *  -2.87073    1.000000    
     84 O2    s    0.505480 *  0.000000 *  0.250840 *  -2.87073    1.000000    
     85 O2    s    0.005480 *  0.000000 *  0.749160 *  -2.87073    1.000000    
     86 O2    s    0.494520 *  0.000000 *  0.749160 *  -2.87073    1.000000    
     87 O3    s    0.610230 *  0.175520 *  0.115390 *  -3.33043    1.000000    
     88 O2    s    0.889770 *  0.824480 *  0.115390 *  -2.87073    1.000000    
     89 O3    s    0.389770 *  0.175520 *  0.884610 *  -3.33043    1.000000    
     90 O2    s    0.110230 *  0.824480 *  0.884610 *  -2.87073    1.000000    
     91 O2    s    0.389770 *  0.824480 *  0.884610 *  -2.87073    1.000000    
     92 O2    s    0.110230 *  0.175520 *  0.884610 *  -2.87073    1.000000    
     93 O2    s    0.610230 *  0.824480 *  0.115390 *  -2.87073    1.000000    
     94 O2    s    0.889770 *  0.175520 *  0.115390 *  -2.87073    1.000000    
     95 O2    s    0.500000 *  0.000000 *  0.000000 *  -2.87073    1.000000    
     96 O2    s    0.000000 *  0.000000 *  0.000000 *  -2.87073    1.000000    
     97 O2    s    0.151750 *  0.500000 *  0.313330 *  -2.87073    1.000000    
     98 O2    s    0.348250 *  0.500000 *  0.313330 *  -2.87073    1.000000    
     99 O2    s    0.848250 *  0.500000 *  0.686670 *  -2.87073    1.000000    
    100 O2    s    0.651750 *  0.500000 *  0.686670 *  -2.87073    1.000000    
    101 O2    s    0.250000 *  0.234950 *  0.285720 *  -2.87073    1.000000    
    102 O2    s    0.250000 *  0.765050 *  0.285720 *  -2.87073    1.000000    
    103 O2    s    0.750000 *  0.234950 *  0.714280 *  -2.87073    1.000000    
    104 O2    s    0.750000 *  0.765050 *  0.714280 *  -2.87073    1.000000    
    105 O2    s    0.131410 *  0.268650 *  0.127790 *  -2.87073    1.000000    
    106 O2    s    0.368590 *  0.731350 *  0.127790 *  -2.87073    1.000000    
    107 O2    s    0.868590 *  0.268650 *  0.872210 *  -2.87073    1.000000    
    108 O2    s    0.631410 *  0.731350 *  0.872210 *  -2.87073    1.000000    
    109 O2    s    0.868590 *  0.731350 *  0.872210 *  -2.87073    1.000000    
    110 O3    s    0.631410 *  0.268650 *  0.872210 *  -3.33043    1.000000    
    111 O2    s    0.131410 *  0.731350 *  0.127790 *  -2.87073    1.000000    
    112 O3    s    0.368590 *  0.268650 *  0.127790 *  -3.33043    1.000000    
    113 O3    s    0.653920 *  0.500000 *  0.058200 *  -3.33043    1.000000    
    114 O2    s    0.846080 *  0.500000 *  0.058200 *  -2.87073    1.000000    
    115 O3    s    0.346080 *  0.500000 *  0.941800 *  -3.33043    1.000000    
    116 O2    s    0.153920 *  0.500000 *  0.941800 *  -2.87073    1.000000    
    117 O3    s    0.750000 *  0.231060 *  0.027050 *  -3.33043    1.000000    
    118 O2    s    0.750000 *  0.768940 *  0.027050 *  -2.87073    1.000000    
    119 O3    s    0.250000 *  0.231060 *  0.972950 *  -3.33043    1.000000    
    120 O2    s    0.250000 *  0.768940 *  0.972950 *  -2.87073    1.000000    
--------------------------------------------------------------------------------



********************************************************************************
*  General input information                                                   *
********************************************************************************

  Species output for all configurations : 

--------------------------------------------------------------------------------
  Species    Type    Atomic    Atomic    Charge       Radii (Angs)     Library
                     Number     Mass       (e)     Cova   Ionic  VDW   Symbol
--------------------------------------------------------------------------------
    Ge       Core       32      72.61   4.000000   1.170  0.000  1.750 Ge       
    Si       Core       14      28.09   4.000000   1.200  0.000  2.100 Si       
    O1       Core        8      16.00   1.733957   0.730  0.000  0.000 O1       
    O2       Core        8      16.00   0.870733   0.730  0.000  1.360 O2       
    O3       Core        8      16.00   1.330431   0.730  0.000  1.360 O3       
    O1       Shell       8       0.00  -3.733957   0.730  0.000  0.000 O1       
    O2       Shell       8       0.00  -2.870733   0.730  0.000  0.000 O2       
    O3       Shell       8       0.00  -3.330431   0.730  0.000  0.000 O3       
--------------------------------------------------------------------------------


  Lattice summation method               =    Ewald          (3-D)
                                         =    Parry          (2-D)
                                         =    Saunders et al (1-D)
  Accuracy factor for lattice sums       =   12.000


  Analytic derivatives to be used

  Time limit = Infinity

  Maximum range for interatomic potentials =    100000.000000 Angstroms

  General interatomic potentials :

--------------------------------------------------------------------------------
Atom  Types   Potential      Parameter       Value         Units   Cutoffs(Ang)
  1     2                                                            Min /  Max 
--------------------------------------------------------------------------------
Si   c O1   s Buckingham    Buckingham A     1315.2478    eV        0.000 16.000
                            Buckingham rho  0.31775900    Ang       
                            Buckingham C     10.141118    eV*Ang^6  
--------------------------------------------------------------------------------
Si   c O2   s Buckingham    Buckingham A     1315.2478    eV        0.000 16.000
                            Buckingham rho  0.31775900    Ang       
                            Buckingham C     10.141118    eV*Ang^6  
--------------------------------------------------------------------------------
Si   c O3   s Buckingham    Buckingham A     1315.2478    eV        0.000 16.000
                            Buckingham rho  0.31775900    Ang       
                            Buckingham C     10.141118    eV*Ang^6  
--------------------------------------------------------------------------------
Ge   c O1   s Buckingham    Buckingham A     1497.3996    eV        0.000 16.000
                            Buckingham rho  0.32564600    Ang       
                            Buckingham C     16.808599    eV*Ang^6  
--------------------------------------------------------------------------------
Ge   c O2   s Buckingham    Buckingham A     1497.3996    eV        0.000 16.000
                            Buckingham rho  0.32564600    Ang       
                            Buckingham C     16.808599    eV*Ang^6  
--------------------------------------------------------------------------------
Ge   c O3   s Buckingham    Buckingham A     1497.3996    eV        0.000 16.000
                            Buckingham rho  0.32564600    Ang       
                            Buckingham C     16.808599    eV*Ang^6  
--------------------------------------------------------------------------------
O1   s O1   s Buckingham    Buckingham A     22764.000    eV        0.000 16.000
                            Buckingham rho  0.14900000    Ang       
                            Buckingham C     10.937044    eV*Ang^6  
--------------------------------------------------------------------------------
O1   s O2   s Buckingham    Buckingham A     22764.000    eV        0.000 16.000
                            Buckingham rho  0.14900000    Ang       
                            Buckingham C     10.937044    eV*Ang^6  
--------------------------------------------------------------------------------
O1   s O3   s Buckingham    Buckingham A     22764.000    eV        0.000 16.000
                            Buckingham rho  0.14900000    Ang       
                            Buckingham C     10.937044    eV*Ang^6  
--------------------------------------------------------------------------------
O2   s O2   s Buckingham    Buckingham A     22764.000    eV        0.000 16.000
                            Buckingham rho  0.14900000    Ang       
                            Buckingham C     10.937044    eV*Ang^6  
--------------------------------------------------------------------------------
O2   s O3   s Buckingham    Buckingham A     22764.000    eV        0.000 16.000
                            Buckingham rho  0.14900000    Ang       
                            Buckingham C     10.937044    eV*Ang^6  
--------------------------------------------------------------------------------
O3   s O3   s Buckingham    Buckingham A     22764.000    eV        0.000 16.000
                            Buckingham rho  0.14900000    Ang       
                            Buckingham C     10.937044    eV*Ang^6  
--------------------------------------------------------------------------------
O1   c O1   s Spring (c-s)  Spring k 2       180.31577    eV*Ang^-2 0.000  0.800
                            Spring k 4       0.0000000    eV*Ang^-4 
--------------------------------------------------------------------------------
O2   c O2   s Spring (c-s)  Spring k 2       75.969800    eV*Ang^-2 0.000  0.800
                            Spring k 4       0.0000000    eV*Ang^-4 
--------------------------------------------------------------------------------
O3   c O3   s Spring (c-s)  Spring k 2       128.14270    eV*Ang^-2 0.000  0.800
                            Spring k 4       0.0000000    eV*Ang^-4 
--------------------------------------------------------------------------------

  General Three-body potentials :

--------------------------------------------------------------------------------
  Atoms       Potential      Parameter       Value         Units   Cutoffs(Ang)
  1 / 2 / 3                                                          Min /  Max 
--------------------------------------------------------------------------------
Si    core    Harmonic      Three-body cnst  1.2614000    eV*rad^-2 0.000  1.900
O1    shel                  Three-body angl  109.47000    degrees   0.000  1.900
O1    shel                  Three-body k4    0.0000000    eV*rad^-4 0.000  3.500
                            Three-body k3    0.0000000    eV*rad^-3 
--------------------------------------------------------------------------------
Si    core    Harmonic      Three-body cnst  1.2614000    eV*rad^-2 0.000  1.900
O1    shel                  Three-body angl  109.47000    degrees   0.000  1.900
õ(1   shel                  Three-body k4    0.0000000    eV*rad^-4 0.000  3.500
                            Three-body k3    0.0000000    eV*rad^-3 
--------------------------------------------------------------------------------
Si    core    Harmonic      Three-body cnst  1.2614000    eV*rad^-2 0.000  1.900
õ(1   shel                  Three-body angl  109.47000    degrees   0.000  1.900
õ(1   shel                  Three-body k4    0.0000000    eV*rad^-4 0.000  3.500
                            Three-body k3    0.0000000    eV*rad^-3 
--------------------------------------------------------------------------------
Si    core    Harmonic      Three-body cnst  1.2614000    eV*rad^-2 0.000  1.900
O1    shel                  Three-body angl  109.47000    degrees   0.000  1.900
O2    shel                  Three-body k4    0.0000000    eV*rad^-4 0.000  3.500
                            Three-body k3    0.0000000    eV*rad^-3 
--------------------------------------------------------------------------------
Si    core    Harmonic      Three-body cnst  1.2614000    eV*rad^-2 0.000  1.900
O1    shel                  Three-body angl  109.47000    degrees   0.000  1.900
õ(2   shel                  Three-body k4    0.0000000    eV*rad^-4 0.000  3.500
                            Three-body k3    0.0000000    eV*rad^-3 
--------------------------------------------------------------------------------
Si    core    Harmonic      Three-body cnst  1.2614000    eV*rad^-2 0.000  1.900
O2    shel                  Three-body angl  109.47000    degrees   0.000  1.900
õ(1   shel                  Three-body k4    0.0000000    eV*rad^-4 0.000  3.500
                            Three-body k3    0.0000000    eV*rad^-3 
--------------------------------------------------------------------------------
Si    core    Harmonic      Three-body cnst  1.2614000    eV*rad^-2 0.000  1.900
õ(1   shel                  Three-body angl  109.47000    degrees   0.000  1.900
õ(2   shel                  Three-body k4    0.0000000    eV*rad^-4 0.000  3.500
                            Three-body k3    0.0000000    eV*rad^-3 
--------------------------------------------------------------------------------
Si    core    Harmonic      Three-body cnst  1.2614000    eV*rad^-2 0.000  1.900
O2    shel                  Three-body angl  109.47000    degrees   0.000  1.900
O2    shel                  Three-body k4    0.0000000    eV*rad^-4 0.000  3.500
                            Three-body k3    0.0000000    eV*rad^-3 
--------------------------------------------------------------------------------
Si    core    Harmonic      Three-body cnst  1.2614000    eV*rad^-2 0.000  1.900
O2    shel                  Three-body angl  109.47000    degrees   0.000  1.900
õ(2   shel                  Three-body k4    0.0000000    eV*rad^-4 0.000  3.500
                            Three-body k3    0.0000000    eV*rad^-3 
--------------------------------------------------------------------------------
Si    core    Harmonic      Three-body cnst  1.2614000    eV*rad^-2 0.000  1.900
õ(2   shel                  Three-body angl  109.47000    degrees   0.000  1.900
õ(2   shel                  Three-body k4    0.0000000    eV*rad^-4 0.000  3.500
                            Three-body k3    0.0000000    eV*rad^-3 
--------------------------------------------------------------------------------

********************************************************************************
*  Output for configuration   1 : c00043.vasp                                  *
********************************************************************************


  Components of energy : 

--------------------------------------------------------------------------------
  Interatomic potentials     =         752.32384297 eV    
  Three-body potentials      =           0.01616146 eV    
  Monopole - monopole (real) =       -2676.00317478 eV    
  Monopole - monopole (recip)=       -1115.35404472 eV    
  Monopole - monopole (total)=       -3791.35721950 eV    
--------------------------------------------------------------------------------
  Total lattice energy       =       -3039.01721507 eV    
--------------------------------------------------------------------------------
  Total lattice energy       =         -293218.7056 kJ/(mole unit cells)
--------------------------------------------------------------------------------


  Number of variables =      363

  Maximum number of calculations  =          1000
  Maximum Hessian update interval =            10
  Maximum step size               =   0.100000000
  Maximum parameter tolerance     =   0.000010000
  Maximum function  tolerance     =   0.000010000
  Maximum gradient  tolerance     =   0.001000000
  Maximum gradient  component     =   0.010000000

  Symmetry not applied to optimisation

  Cell parameters to be optimised using strains

  Newton-Raphson optimiser to be used

  BFGS hessian update to be used

  Lower half triangular hessian to be used

  Minimiser to switch to RFO
  When gradient norm is less than     0.050000

  Dumpfile to be written after every cycle

  Start of bulk optimisation :

  Cycle:      0 Energy:     -3039.017215  Gnorm:      4.337510  CPU:    0.116
  ** Hessian calculated **
  Cycle:      1 Energy:     -3069.643663  Gnorm:      0.913583  CPU:    0.256
  ** Hessian calculated **
  Cycle:      2 Energy:     -3072.049328  Gnorm:      0.508397  CPU:    0.472
  Cycle:      3 Energy:     -3072.776088  Gnorm:      0.316324  CPU:    0.582
  Cycle:      4 Energy:     -3073.266701  Gnorm:      0.235963  CPU:    0.713
  Cycle:      5 Energy:     -3073.683615  Gnorm:      0.186626  CPU:    0.843
  Cycle:      6 Energy:     -3073.971653  Gnorm:      0.151858  CPU:    0.953
  Cycle:      7 Energy:     -3074.154504  Gnorm:      0.114700  CPU:    1.064
  Cycle:      8 Energy:     -3074.242554  Gnorm:      0.068027  CPU:    1.177
  Cycle:      9 Energy:     -3074.283827  Gnorm:      0.049197  CPU:    1.310
  ** Hessian has required structure
  Cycle:     10 Energy:     -3074.296936  Gnorm:      0.085850  CPU:    1.461
  ** Hessian has required structure
  Cycle:     11 Energy:     -3074.316599  Gnorm:      0.087170  CPU:    1.632
  ** Hessian has wrong structure
  ** Imaginary eigenvectors =   2
  ** Hessian has wrong structure
  ** Imaginary eigenvectors =   2
  Cycle:     12 Energy:     -3074.324946  Gnorm:      0.087040  CPU:    2.272
  ** Hessian has wrong structure
  ** Imaginary eigenvectors =   2
  ** Hessian has wrong structure
  ** Imaginary eigenvectors =   2
  Cycle:     13 Energy:     -3074.335732  Gnorm:      0.087228  CPU:    2.873
  ** Hessian has wrong structure
  ** Imaginary eigenvectors =   1
  ** Hessian has wrong structure
  ** Imaginary eigenvectors =   1
  Cycle:     14 Energy:     -3074.435428  Gnorm:      0.078039  CPU:    3.474
  ** Hessian has wrong structure
  ** Imaginary eigenvectors =   1
  Cycle:     15 Energy:     -3074.571250  Gnorm:      0.063969  CPU:    3.787
  ** Hessian has required structure
  Cycle:     16 Energy:     -3074.759851  Gnorm:      0.036209  CPU:    4.068
  ** Hessian has required structure
  Cycle:     17 Energy:     -3074.832462  Gnorm:      0.026283  CPU:    4.259
  ** Hessian has required structure
  Cycle:     18 Energy:     -3074.875453  Gnorm:      0.019483  CPU:    4.449
  ** Hessian has required structure
  Cycle:     19 Energy:     -3074.905676  Gnorm:      0.022949  CPU:    4.641
  ** Hessian has required structure
  Cycle:     20 Energy:     -3074.932089  Gnorm:      0.019198  CPU:    4.810
  ** Hessian has required structure
  Cycle:     21 Energy:     -3074.955763  Gnorm:      0.030676  CPU:    5.000
  ** Hessian has required structure
  Cycle:     22 Energy:     -3074.973703  Gnorm:      0.023731  CPU:    5.191
  ** Hessian has required structure
  Cycle:     23 Energy:     -3074.985021  Gnorm:      0.021501  CPU:    5.361
  ** Hessian has required structure
  Cycle:     24 Energy:     -3074.999146  Gnorm:      0.017133  CPU:    5.533
  ** Hessian has required structure
  Cycle:     25 Energy:     -3075.009073  Gnorm:      0.016178  CPU:    5.703
  ** Hessian has required structure
  Cycle:     26 Energy:     -3075.016860  Gnorm:      0.009552  CPU:    5.963
  ** Hessian has required structure
  Cycle:     27 Energy:     -3075.019397  Gnorm:      0.005614  CPU:    6.132
  ** Hessian has required structure
  Cycle:     28 Energy:     -3075.020336  Gnorm:      0.002785  CPU:    6.322
  ** Hessian has required structure
  Cycle:     29 Energy:     -3075.020537  Gnorm:      0.001585  CPU:    6.492
  ** Hessian has required structure
  Cycle:     30 Energy:     -3075.020615  Gnorm:      0.000611  CPU:    6.661
  ** Hessian has required structure
  Cycle:     31 Energy:     -3075.020625  Gnorm:      0.000291  CPU:    6.852
  ** Hessian has required structure
  Cycle:     32 Energy:     -3075.020626  Gnorm:      0.000204  CPU:    7.002
  ** Hessian has required structure
  Cycle:     33 Energy:     -3075.014801  Gnorm:      0.025157  CPU:    7.212
  ** Hessian has required structure
  Cycle:     34 Energy:     -3075.016261  Gnorm:      0.021776  CPU:    7.493
  ** Hessian has required structure
  Cycle:     35 Energy:     -3075.017953  Gnorm:      0.017032  CPU:    7.682
  ** Hessian has required structure
  Cycle:     36 Energy:     -3075.019692  Gnorm:      0.010056  CPU:    7.870
  ** Hessian has required structure
  Cycle:     37 Energy:     -3075.020394  Gnorm:      0.005023  CPU:    8.059
  ** Hessian has required structure
  Cycle:     38 Energy:     -3075.020568  Gnorm:      0.002509  CPU:    8.247
  ** Hessian has required structure
  Cycle:     39 Energy:     -3075.020606  Gnorm:      0.001505  CPU:    8.414
  ** Hessian has required structure
  Cycle:     40 Energy:     -3075.020620  Gnorm:      0.000903  CPU:    8.583
  ** Hessian has required structure
  Cycle:     41 Energy:     -3075.020626  Gnorm:      0.000542  CPU:    8.751
  ** Hessian has required structure
  Cycle:     42 Energy:     -3075.020627  Gnorm:      0.000433  CPU:    8.898
  ** Hessian has required structure
  Cycle:     43 Energy:     -3075.015341  Gnorm:      0.024108  CPU:    9.106
  ** Hessian has wrong structure
  ** Imaginary eigenvectors =   1
  ** Hessian has wrong structure
  ** Imaginary eigenvectors =   1
  Cycle:     44 Energy:     -3075.015341  Gnorm:      0.024108  CPU:    9.557
  ** Hessian has wrong structure
  ** Imaginary eigenvectors =   1
  ** Hessian has wrong structure
  ** Imaginary eigenvectors =   1
  Cycle:     45 Energy:     -3075.015580  Gnorm:      0.023563  CPU:   10.068
  ** Hessian has wrong structure
  ** Imaginary eigenvectors =   1
  ** Hessian has wrong structure
  ** Imaginary eigenvectors =   1
  Cycle:     46 Energy:     -3075.015580  Gnorm:      0.023562  CPU:   10.432
  ** Hessian has wrong structure
  ** Imaginary eigenvectors =   1
  ** Hessian has wrong structure
  ** Imaginary eigenvectors =   1
  Cycle:     47 Energy:     -3075.016007  Gnorm:      0.022543  CPU:   10.913
  ** Hessian has wrong structure
  ** Imaginary eigenvectors =   1
  ** Hessian has wrong structure
  ** Imaginary eigenvectors =   1


  **** Conditions for a minimum have not been satisfied. However ****
  **** no lower point can be found - treat results with caution  ****
  **** unless gradient norm is small (less than 0.1)             ****


  Final energy =   -3075.01600734 eV      
  Final Gnorm  =       0.02254257

  Components of energy : 

--------------------------------------------------------------------------------
  Interatomic potentials     =         817.78590112 eV    
  Three-body potentials      =           0.25814032 eV    
  Monopole - monopole (real) =       -2242.55292617 eV    
  Monopole - monopole (recip)=       -1650.50712262 eV    
  Monopole - monopole (total)=       -3893.06004879 eV    
--------------------------------------------------------------------------------
  Total lattice energy       =       -3075.01600734 eV    
--------------------------------------------------------------------------------
  Total lattice energy       =         -296692.0388 kJ/(mole unit cells)
--------------------------------------------------------------------------------

  Final fractional coordinates of atoms :

--------------------------------------------------------------------------------
   No.  Atomic        x           y          z          Radius
        Label       (Frac)      (Frac)     (Frac)       (Angs) 
--------------------------------------------------------------------------------
     1  Ge    c     0.660660    0.294090    0.017440    0.000000
     2  Ge    c     0.329301    0.294094    0.967343    0.000000
     3  Si    c     0.042398    0.012635    0.360097    0.000000
     4  Si    c     0.442102    0.997782    0.366156    0.000000
     5  Si    c     0.947562    0.012637    0.624687    0.000000
     6  Si    c     0.547858    0.997780    0.618610    0.000000
     7  Si    c     0.548407    0.009811    0.113963    0.000000
     8  Si    c     0.937520    0.013207    0.109480    0.000000
     9  Si    c     0.441553    0.009814    0.870800    0.000000
    10  Si    c     0.052440    0.013207    0.875305    0.000000
    11  Si    c     0.148257    0.318892    0.271470    0.000000
    12  Si    c     0.338513    0.695067    0.279754    0.000000
    13  Si    c     0.841703    0.318893    0.713310    0.000000
    14  Si    c     0.651446    0.695067    0.705031    0.000000
    15  Si    c     0.832183    0.721433    0.709953    0.000000
    16  Si    c     0.661445    0.288445    0.709110    0.000000
    17  Si    c     0.157777    0.721432    0.274828    0.000000
    18  Si    c     0.328516    0.288446    0.275674    0.000000
    19  Si    c     0.826744    0.727427    0.012557    0.000000
    20  Si    c     0.163218    0.727429    0.972224    0.000000
    21  Si    c     0.345823    0.697800    0.978772    0.000000
    22  Si    c     0.145713    0.331216    0.966536    0.000000
    23  Si    c     0.644137    0.697795    0.006011    0.000000
    24  Si    c     0.844247    0.331215    0.018245    0.000000
    25  O2    c     0.087970    0.197502    0.349822    0.000000
    26  O2    c     0.394878    0.813373    0.369369    0.000000
    27  O2    c     0.901990    0.197504    0.634959    0.000000
    28  O2    c     0.595081    0.813371    0.615416    0.000000
    29  O2    c     0.884944    0.853695    0.626491    0.000000
    30  O2    c     0.609194    0.159421    0.620730    0.000000
    31  O2    c     0.105014    0.853693    0.358289    0.000000
    32  O2    c     0.380765    0.159422    0.364059    0.000000
    33  O2    c     0.994982    0.007331    0.492394    0.000000
    34  O2    c     0.494994    0.013801    0.492366    0.000000
    35  O2    c     0.979912    0.989920    0.245590    0.000000
    36  O2    c     0.498996    0.003979    0.243702    0.000000
    37  O2    c     0.010044    0.989918    0.739199    0.000000
    38  O2    c     0.490935    0.003972    0.741028    0.000000
    39  O3    c     0.615675    0.154257    0.123948    0.000000
    40  O2    c     0.865760    0.875136    0.102457    0.000000
    41  O3    c     0.374286    0.154261    0.860836    0.000000
    42  O2    c     0.124201    0.875137    0.882325    0.000000
    43  O2    c     0.402851    0.819897    0.895266    0.000000
    44  O2    c     0.083868    0.212662    0.887557    0.000000
    45  O2    c     0.587112    0.819891    0.089523    0.000000
    46  O2    c     0.906093    0.212661    0.097223    0.000000
    47  O2    c     0.494993    0.070431    0.992366    0.000000
    48  O2    c     0.994982    0.964692    0.992395    0.000000
    49  O2    c     0.128356    0.522575    0.299370    0.000000
    50  O2    c     0.357331    0.488992    0.297750    0.000000
    51  O2    c     0.861603    0.522576    0.685410    0.000000
    52  O2    c     0.632629    0.488991    0.687037    0.000000
    53  O2    c     0.236963    0.274570    0.316165    0.000000
    54  O2    c     0.248541    0.736038    0.318351    0.000000
    55  O2    c     0.752997    0.274571    0.668613    0.000000
    56  O2    c     0.741418    0.736039    0.666435    0.000000
    57  O2    c     0.140211    0.280296    0.118505    0.000000
    58  O2    c     0.353958    0.748760    0.130490    0.000000
    59  O2    c     0.849747    0.280296    0.866276    0.000000
    60  O2    c     0.635999    0.748761    0.854295    0.000000
    61  O2    c     0.838695    0.774028    0.861163    0.000000
    62  O3    c     0.652534    0.229968    0.857395    0.000000
    63  O2    c     0.151267    0.774027    0.123619    0.000000
    64  O3    c     0.337430    0.229972    0.127389    0.000000
    65  O3    c     0.619382    0.500109    0.031066    0.000000
    66  O2    c     0.864981    0.536596    0.040691    0.000000
    67  O3    c     0.370578    0.500114    0.953716    0.000000
    68  O2    c     0.124981    0.536598    0.944090    0.000000
    69  O3    c     0.757161    0.295669    0.066343    0.000000
    70  O2    c     0.734838    0.723699    0.047692    0.000000
    71  O3    c     0.232800    0.295670    0.918442    0.000000
    72  O2    c     0.255124    0.723706    0.937087    0.000000
    73  O2    s     0.089803    0.191083    0.342140    0.000000
    74  O2    s     0.393691    0.819838    0.359269    0.000000
    75  O2    s     0.900157    0.191085    0.642642    0.000000
    76  O2    s     0.596268    0.819836    0.625514    0.000000
    77  O2    s     0.885762    0.856002    0.635672    0.000000
    78  O2    s     0.608359    0.156241    0.630167    0.000000
    79  O2    s     0.104197    0.856000    0.349109    0.000000
    80  O2    s     0.381600    0.156242    0.354619    0.000000
    81  O2    s     0.994981    0.008600    0.492394    0.000000
    82  O2    s     0.494991    0.009992    0.492370    0.000000
    83  O2    s     0.982044    0.995245    0.242559    0.000000
    84  O2    s     0.498330    0.003990    0.242289    0.000000
    85  O2    s     0.007913    0.995244    0.742229    0.000000
    86  O2    s     0.491608    0.003985    0.742449    0.000000
    87  O3    s     0.612581    0.151361    0.113894    0.000000
    88  O2    s     0.869091    0.873538    0.093148    0.000000
    89  O3    s     0.377380    0.151366    0.870888    0.000000
    90  O2    s     0.120870    0.873539    0.891634    0.000000
    91  O2    s     0.400642    0.826711    0.902080    0.000000
    92  O2    s     0.087245    0.204417    0.894873    0.000000
    93  O2    s     0.589321    0.826705    0.082706    0.000000
    94  O2    s     0.902715    0.204415    0.089907    0.000000
    95  O2    s     0.494990    0.057929    0.992368    0.000000
    96  O2    s     0.994982    0.975508    0.992395    0.000000
    97  O2    s     0.133634    0.521948    0.293767    0.000000
    98  O2    s     0.352269    0.490122    0.293497    0.000000
    99  O2    s     0.856325    0.521950    0.691013    0.000000
   100  O2    s     0.637691    0.490121    0.691289    0.000000
   101  O2    s     0.237183    0.280807    0.307186    0.000000
   102  O2    s     0.248421    0.730028    0.309566    0.000000
   103  O2    s     0.752777    0.280807    0.677593    0.000000
   104  O2    s     0.741538    0.730029    0.675219    0.000000
   105  O2    s     0.141640    0.289754    0.118972    0.000000
   106  O2    s     0.351477    0.737876    0.130394    0.000000
   107  O2    s     0.848319    0.289754    0.865809    0.000000
   108  O2    s     0.638480    0.737877    0.854390    0.000000
   109  O2    s     0.836724    0.763531    0.861165    0.000000
   110  O3    s     0.654070    0.240913    0.855629    0.000000
   111  O2    s     0.153238    0.763531    0.123617    0.000000
   112  O3    s     0.335894    0.240916    0.129154    0.000000
   113  O3    s     0.625311    0.503939    0.027363    0.000000
   114  O2    s     0.858842    0.535145    0.035389    0.000000
   115  O3    s     0.364650    0.503943    0.957419    0.000000
   116  O2    s     0.131120    0.535146    0.949392    0.000000
   117  O3    s     0.758190    0.299256    0.057252    0.000000
   118  O2    s     0.735214    0.721282    0.039375    0.000000
   119  O3    s     0.231771    0.299257    0.927533    0.000000
   120  O2    s     0.254747    0.721288    0.945405    0.000000
--------------------------------------------------------------------------------

  Final Cartesian lattice vectors (Angstroms) :

       17.027527   -0.000471   -0.011018
       -0.000262    7.617906    0.002628
       -0.006666    0.003546   10.280011


  Final cell parameters and derivatives :

--------------------------------------------------------------------------------
       a           17.027531 Angstrom     dE/de1(xx)     0.346337 eV/strain
       b            7.617906 Angstrom     dE/de2(yy)     1.712992 eV/strain
       c           10.280013 Angstrom     dE/de3(zz)    -4.042640 eV/strain
       alpha       89.960465 Degrees      dE/de4(yz)     0.309452 eV/strain
       beta        90.074224 Degrees      dE/de5(xz)    -0.344150 eV/strain
       gamma       90.003568 Degrees      dE/de6(xy)    -0.050143 eV/strain
--------------------------------------------------------------------------------

  Primitive cell volume =          1333.461533 Angs**3

  Density of cell =      1.906810 g/cm**3

  Non-primitive cell volume =          1333.461533 Angs**3


  Final internal derivatives :

--------------------------------------------------------------------------------
   No.  Atomic          a             b             c           Radius
        Label          (eV)          (eV)          (eV)        (eV/Angs)
--------------------------------------------------------------------------------
      1 Ge    c       0.000000      0.000000      0.000000      0.000000
      2 Ge    c      -0.111039     -0.298097      0.921227      0.000000
      3 Si    c      -1.721987      0.007802      0.142949      0.000000
      4 Si    c       1.610633      0.096300      0.415205      0.000000
      5 Si    c       1.753609     -0.121126     -0.123623      0.000000
      6 Si    c      -1.614052      0.046455     -0.451662      0.000000
      7 Si    c      -1.632374      0.160331      0.106563      0.000000
      8 Si    c       1.391092     -0.091104      0.635019      0.000000
      9 Si    c       1.519131     -0.015384     -0.124803      0.000000
     10 Si    c      -1.446757     -0.193546     -0.544656      0.000000
     11 Si    c      -0.133236     -0.301350     -0.820490      0.000000
     12 Si    c       0.431641      0.255991     -0.790506      0.000000
     13 Si    c       0.007127     -0.159762      0.953810      0.000000
     14 Si    c      -0.496369      0.337006      0.629646      0.000000
     15 Si    c       0.034048      0.335553      0.750783      0.000000
     16 Si    c      -0.320569     -0.290286      0.896807      0.000000
     17 Si    c       0.098741      0.211227     -0.925323      0.000000
     18 Si    c       0.407727     -0.383966     -0.705703      0.000000
     19 Si    c       0.283199      0.246717     -0.871220      0.000000
     20 Si    c      -0.383004      0.375240      0.700555      0.000000
     21 Si    c       0.078987      0.395976      0.802554      0.000000
     22 Si    c      -0.298926     -0.250927      0.862212      0.000000
     23 Si    c       0.048720      0.227536     -0.990768      0.000000
     24 Si    c       0.346222     -0.339546     -0.705776      0.000000
     25 O2    c       0.315005      0.227954      0.018913      0.000000
     26 O2    c      -0.385495     -0.261468      0.039546      0.000000
     27 O2    c      -0.118448      0.175256     -0.141180      0.000000
     28 O2    c       0.621679     -0.367332      0.089876      0.000000
     29 O2    c      -0.430896     -0.209072     -0.024943      0.000000
     30 O2    c       0.392256      0.206635     -0.045594      0.000000
     31 O2    c       0.222599     -0.108676      0.171716      0.000000
     32 O2    c      -0.619838      0.317212     -0.088794      0.000000
     33 O2    c       0.012461      0.027166     -0.015530      0.000000
     34 O2    c       0.042617     -0.086361      0.034027      0.000000
     35 O2    c      -0.079594      0.126153     -0.361565      0.000000
     36 O2    c       0.079460     -0.006675     -0.110764      0.000000
     37 O2    c      -0.032079      0.127494      0.260755      0.000000
     38 O2    c      -0.077286     -0.006862      0.114158      0.000000
     39 O3    c       0.878125      0.388007     -0.076886      0.000000
     40 O2    c      -0.374230     -0.143501      0.044438      0.000000
     41 O3    c      -0.567811      0.207498     -0.199707      0.000000
     42 O2    c       0.573026     -0.287565      0.114763      0.000000
     43 O2    c      -0.304807     -0.234385      0.037095      0.000000
     44 O2    c       0.252511      0.283004     -0.024828      0.000000
     45 O2    c       0.137680     -0.212646      0.088828      0.000000
     46 O2    c      -0.427490      0.329653     -0.077815      0.000000
     47 O2    c       0.147350     -0.280055      0.111612      0.000000
     48 O2    c       0.140408      0.128019     -0.101552      0.000000
     49 O2    c      -0.288674      0.089738      0.181214      0.000000
     50 O2    c       0.262324      0.013930      0.133665      0.000000
     51 O2    c       0.303552     -0.079370     -0.177016      0.000000
     52 O2    c      -0.250671     -0.077152     -0.127647      0.000000
     53 O2    c      -0.244493      0.010558      0.144698      0.000000
     54 O2    c      -0.279659      0.010598      0.165601      0.000000
     55 O2    c       0.224254      0.004087     -0.166273      0.000000
     56 O2    c       0.228764      0.001331     -0.141562      0.000000
     57 O2    c       0.172023      0.287605     -0.040963      0.000000
     58 O2    c      -0.333414     -0.307624      0.064277      0.000000
     59 O2    c      -0.177459      0.272683     -0.228839      0.000000
     60 O2    c       0.307167     -0.305013      0.240542      0.000000
     61 O2    c      -0.246874     -0.297829      0.105831      0.000000
     62 O3    c       0.321280      0.511154     -0.330341      0.000000
     63 O2    c       0.234962     -0.305324      0.191239      0.000000
     64 O3    c      -0.313415      0.506449     -0.174280      0.000000
     65 O3    c      -0.551077      0.033576      0.191607      0.000000
     66 O2    c       0.281611      0.100490      0.161086      0.000000
     67 O3    c       0.565566     -0.164916     -0.210843      0.000000
     68 O2    c      -0.309785     -0.013296     -0.163102      0.000000
     69 O3    c      -0.329677      0.003069      0.220292      0.000000
     70 O2    c      -0.222710     -0.015704      0.157088      0.000000
     71 O3    c       0.448491     -0.006969     -0.261594      0.000000
     72 O2    c       0.255750     -0.021574     -0.140256      0.000000
     73 O2    s      -0.128582     -0.058544     -0.188931      0.000000
     74 O2    s       0.150854      0.091518     -0.307174      0.000000
     75 O2    s       0.067173     -0.057578      0.253116      0.000000
     76 O2    s      -0.219117      0.108898      0.230322      0.000000
     77 O2    s       0.179128      0.067583      0.244394      0.000000
     78 O2    s      -0.122796     -0.074904      0.272938      0.000000
     79 O2    s      -0.116252      0.044028     -0.305519      0.000000
     80 O2    s       0.180795     -0.098431     -0.199950      0.000000
     81 O2    s       0.002509     -0.028981      0.007200      0.000000
     82 O2    s      -0.014990      0.040426     -0.005640      0.000000
     83 O2    s       0.051340     -0.077207      0.055015      0.000000
     84 O2    s      -0.055108      0.029459     -0.031160      0.000000
     85 O2    s      -0.021466     -0.084329     -0.021927      0.000000
     86 O2    s       0.037637      0.035178      0.013028      0.000000
     87 O3    s      -0.601117     -0.183720     -0.209166      0.000000
     88 O2    s       0.160688      0.064431     -0.213146      0.000000
     89 O3    s       0.461795     -0.114689      0.369319      0.000000
     90 O2    s      -0.217441      0.100537      0.159003      0.000000
     91 O2    s       0.139110      0.063836      0.159337      0.000000
     92 O2    s      -0.124989     -0.099430      0.221602      0.000000
     93 O2    s      -0.103723      0.072178     -0.226895      0.000000
     94 O2    s       0.168458     -0.096420     -0.143545      0.000000
     95 O2    s      -0.073573      0.204344     -0.037612      0.000000
     96 O2    s      -0.049974     -0.120054      0.032004      0.000000
     97 O2    s       0.018382     -0.011855     -0.221081      0.000000
     98 O2    s       0.049122      0.012964     -0.168902      0.000000
     99 O2    s      -0.019447      0.010354      0.222602      0.000000
    100 O2    s      -0.038197      0.009282      0.145652      0.000000
    101 O2    s       0.026116     -0.084299     -0.297801      0.000000
    102 O2    s       0.053907      0.083239     -0.326639      0.000000
    103 O2    s      -0.024620     -0.082504      0.330588      0.000000
    104 O2    s      -0.051084      0.090246      0.289247      0.000000
    105 O2    s       0.054071     -0.135453     -0.005605      0.000000
    106 O2    s       0.074971      0.127617     -0.035150      0.000000
    107 O2    s      -0.038566     -0.121478      0.058706      0.000000
    108 O2    s      -0.061363      0.141346     -0.017442      0.000000
    109 O2    s      -0.004062      0.129644     -0.029241      0.000000
    110 O3    s      -0.091206     -0.278433      0.131189      0.000000
    111 O2    s       0.005886      0.134496     -0.027911      0.000000
    112 O3    s       0.100119     -0.287793      0.070952      0.000000
    113 O3    s       0.158025     -0.019920     -0.228950      0.000000
    114 O2    s       0.032550     -0.004044     -0.224137      0.000000
    115 O3    s      -0.151639      0.050844      0.218741      0.000000
    116 O2    s      -0.026713      0.010254      0.218934      0.000000
    117 O3    s       0.159938     -0.087542     -0.351242      0.000000
    118 O2    s       0.013193      0.067826     -0.313571      0.000000
    119 O3    s      -0.214965     -0.077558      0.411643      0.000000
    120 O2    s      -0.031104      0.080090      0.268451      0.000000
--------------------------------------------------------------------------------
  Maximum abs         1.753609      0.511154      0.990768      0.000000
--------------------------------------------------------------------------------


  Born effective charge tensors : 

-------------------------------------------------------------------------------
  Atom             x           y             z
-------------------------------------------------------------------------------
    1 Ge    x       3.9867      0.4173     -0.2068
            y       0.1065      4.1734     -0.3142
            z      -0.1819     -0.0762      3.3591
-------------------------------------------------------------------------------
    2 Ge    x       3.9871     -0.4177     -0.2070
            y      -0.1067      4.1738      0.3161
            z      -0.1820      0.0779      3.3593
-------------------------------------------------------------------------------
    3 Si    x       3.4636      0.0855     -0.2159
            y      -0.0985      3.2566     -0.0273
            z      -0.4515      0.0141      3.8255
-------------------------------------------------------------------------------
    4 Si    x       3.4779      0.0897      0.1841
            y      -0.0756      3.2323      0.0024
            z       0.5266      0.0861      3.7555
-------------------------------------------------------------------------------
    5 Si    x       3.4634     -0.0860     -0.2162
            y       0.0983      3.2568      0.0286
            z      -0.4518     -0.0122      3.8254
-------------------------------------------------------------------------------
    6 Si    x       3.4780     -0.0900      0.1843
            y       0.0751      3.2323     -0.0012
            z       0.5261     -0.0844      3.7555
-------------------------------------------------------------------------------
    7 Si    x       3.7152      0.0629     -0.2159
            y       0.3417      3.4105      0.0899
            z      -0.5489     -0.0466      3.1521
-------------------------------------------------------------------------------
    8 Si    x       3.4325     -0.1846      0.2354
            y       0.2015      3.2418     -0.0038
            z       0.4900     -0.0421      3.1135
-------------------------------------------------------------------------------
    9 Si    x       3.7154     -0.0633     -0.2157
            y      -0.3418      3.4099     -0.0882
            z      -0.5485      0.0484      3.1526
-------------------------------------------------------------------------------
   10 Si    x       3.4322      0.1845      0.2361
            y      -0.2017      3.2422      0.0051
            z       0.4903      0.0437      3.1135
-------------------------------------------------------------------------------
   11 Si    x       3.2030      0.2477     -0.0295
            y       0.2693      3.4554     -0.1727
            z      -0.1223     -0.0878      2.7994
-------------------------------------------------------------------------------
   12 Si    x       3.2170      0.2555      0.0788
            y       0.2581      3.4373      0.2071
            z       0.1104      0.0485      2.7890
-------------------------------------------------------------------------------
   13 Si    x       3.2038     -0.2484     -0.0300
            y      -0.2700      3.4554      0.1748
            z      -0.1228      0.0896      2.7993
-------------------------------------------------------------------------------
   14 Si    x       3.2162     -0.2551      0.0782
            y      -0.2578      3.4370     -0.2049
            z       0.1100     -0.0466      2.7893
-------------------------------------------------------------------------------
   15 Si    x       3.2181      0.3127     -0.0961
            y       0.1877      3.4654     -0.1641
            z      -0.1209     -0.0584      2.8023
-------------------------------------------------------------------------------
   16 Si    x       3.2905      0.3493      0.0763
            y       0.2121      3.5761      0.1017
            z       0.1155     -0.0328      3.0901
-------------------------------------------------------------------------------
   17 Si    x       3.2188     -0.3137     -0.0967
            y      -0.1885      3.4656      0.1664
            z      -0.1214      0.0603      2.8021
-------------------------------------------------------------------------------
   18 Si    x       3.2901     -0.3487      0.0759
            y      -0.2116      3.5760     -0.0997
            z       0.1151      0.0347      3.0898
-------------------------------------------------------------------------------
   19 Si    x       3.2268      0.3718      0.1718
            y       0.0635      3.4291      0.1861
            z       0.1153      0.0835      2.7423
-------------------------------------------------------------------------------
   20 Si    x       3.2264     -0.3711      0.1712
            y      -0.0631      3.4286     -0.1838
            z       0.1150     -0.0815      2.7423
-------------------------------------------------------------------------------
   21 Si    x       3.4035      0.1971     -0.1711
            y       0.1178      3.7133     -0.1132
            z      -0.2306      0.0051      2.8013
-------------------------------------------------------------------------------
   22 Si    x       3.6074      0.2262     -0.0059
            y       0.2237      3.5067      0.2126
            z       0.1070      0.0777      2.7939
-------------------------------------------------------------------------------
   23 Si    x       3.4043     -0.1978     -0.1717
            y      -0.1185      3.7140      0.1155
            z      -0.2310     -0.0032      2.8010
-------------------------------------------------------------------------------
   24 Si    x       3.6068     -0.2259     -0.0063
            y      -0.2234      3.5066     -0.2106
            z       0.1067     -0.0758      2.7941
-------------------------------------------------------------------------------
   25 O2    x      -1.6764     -0.7239      0.3147
            y      -0.6959     -2.0201      0.3436
            z       0.3624      0.3345     -1.3393
-------------------------------------------------------------------------------
   26 O2    x      -1.6594     -0.7189     -0.3138
            y      -0.6653     -1.9798     -0.3194
            z      -0.3586     -0.3137     -1.3668
-------------------------------------------------------------------------------
   27 O2    x      -1.6775      0.7251      0.3156
            y       0.6969     -2.0218     -0.3450
            z       0.3629     -0.3356     -1.3401
-------------------------------------------------------------------------------
   28 O2    x      -1.6588      0.7182     -0.3132
            y       0.6649     -1.9787      0.3182
            z      -0.3583      0.3128     -1.3661
-------------------------------------------------------------------------------
   29 O2    x      -1.7517     -0.7348      0.3166
            y      -0.7576     -1.9613      0.3278
            z       0.3594      0.3252     -1.3472
-------------------------------------------------------------------------------
   30 O2    x      -1.7505     -0.7360     -0.3050
            y      -0.7420     -1.9710     -0.3238
            z      -0.3675     -0.3127     -1.3447
-------------------------------------------------------------------------------
   31 O2    x      -1.7529      0.7359      0.3175
            y       0.7585     -1.9630     -0.3292
            z       0.3600     -0.3263     -1.3480
-------------------------------------------------------------------------------
   32 O2    x      -1.7498      0.7352     -0.3041
            y       0.7416     -1.9699      0.3225
            z      -0.3671      0.3117     -1.3440
-------------------------------------------------------------------------------
   33 O2    x      -1.6178      0.0003      0.8472
            y       0.0000     -1.0859     -0.0003
            z       1.0467     -0.0008     -2.8178
-------------------------------------------------------------------------------
   34 O2    x      -1.7137     -0.0002     -0.8460
            y      -0.0000     -1.0825     -0.0002
            z      -1.1234     -0.0006     -2.6651
-------------------------------------------------------------------------------
   35 O2    x      -1.7005      0.0213     -0.7238
            y      -0.0145     -1.1173      0.0139
            z      -0.7161      0.0228     -2.2292
-------------------------------------------------------------------------------
   36 O2    x      -1.7175     -0.0073      0.7334
            y      -0.0200     -1.1108     -0.0059
            z       0.7047      0.0017     -2.2296
-------------------------------------------------------------------------------
   37 O2    x      -1.7005     -0.0218     -0.7238
            y       0.0144     -1.1173     -0.0143
            z      -0.7161     -0.0239     -2.2293
-------------------------------------------------------------------------------
   38 O2    x      -1.7176      0.0079      0.7336
            y       0.0201     -1.1108      0.0054
            z       0.7048     -0.0030     -2.2298
-------------------------------------------------------------------------------
   39 O3    x      -2.1782     -0.9692      0.3722
            y      -0.9432     -2.2804      0.3921
            z       0.3735      0.3543     -1.4476
-------------------------------------------------------------------------------
   40 O2    x      -1.7600     -0.7090     -0.3373
            y      -0.6695     -1.9122     -0.3735
            z      -0.3349     -0.3480     -1.2620
-------------------------------------------------------------------------------
   41 O3    x      -2.1790      0.9698      0.3731
            y       0.9436     -2.2815     -0.3934
            z       0.3741     -0.3553     -1.4483
-------------------------------------------------------------------------------
   42 O2    x      -1.7593      0.7082     -0.3365
            y       0.6690     -1.9108      0.3721
            z      -0.3344      0.3470     -1.2612
-------------------------------------------------------------------------------
   43 O2    x      -1.7085     -0.6603      0.3759
            y      -0.6067     -1.9395      0.4070
            z       0.4041      0.3586     -1.2810
-------------------------------------------------------------------------------
   44 O2    x      -1.6283     -0.6810     -0.3247
            y      -0.5554     -2.0543     -0.3550
            z      -0.3476     -0.3428     -1.2321
-------------------------------------------------------------------------------
   45 O2    x      -1.7096      0.6615      0.3768
            y       0.6077     -1.9416     -0.4085
            z       0.4047     -0.3598     -1.2820
-------------------------------------------------------------------------------
   46 O2    x      -1.6277      0.6803     -0.3240
            y       0.5549     -2.0531      0.3536
            z      -0.3473      0.3418     -1.2314
-------------------------------------------------------------------------------
   47 O2    x      -1.7292     -0.0003     -0.5345
            y      -0.0002     -1.2607     -0.0003
            z      -0.2696     -0.0005     -1.7392
-------------------------------------------------------------------------------
   48 O2    x      -1.7954      0.0003      0.5933
            y       0.0001     -1.1956     -0.0002
            z       0.3355     -0.0006     -1.6771
-------------------------------------------------------------------------------
   49 O2    x      -1.1735     -0.0516      0.0477
            y      -0.0792     -2.5650     -0.0132
            z       0.0740     -0.0136     -1.0628
-------------------------------------------------------------------------------
   50 O2    x      -1.1870     -0.0401     -0.0470
            y      -0.0810     -2.5942      0.0033
            z      -0.0685      0.0263     -1.0519
-------------------------------------------------------------------------------
   51 O2    x      -1.1735      0.0519      0.0477
            y       0.0794     -2.5650      0.0115
            z       0.0740      0.0130     -1.0627
-------------------------------------------------------------------------------
   52 O2    x      -1.1870      0.0400     -0.0469
            y       0.0811     -2.5942     -0.0050
            z      -0.0685     -0.0269     -1.0519
-------------------------------------------------------------------------------
   53 O2    x      -2.4055      0.0927     -0.0505
            y       0.0486     -1.2589      0.0696
            z      -0.0358      0.0447     -1.0766
-------------------------------------------------------------------------------
   54 O2    x      -2.4146      0.0876     -0.0219
            y       0.0340     -1.2370     -0.0689
            z      -0.0317     -0.0348     -1.0778
-------------------------------------------------------------------------------
   55 O2    x      -2.4058     -0.0926     -0.0506
            y      -0.0486     -1.2590     -0.0698
            z      -0.0358     -0.0450     -1.0767
-------------------------------------------------------------------------------
   56 O2    x      -2.4142     -0.0874     -0.0219
            y      -0.0339     -1.2369      0.0686
            z      -0.0317      0.0345     -1.0777
-------------------------------------------------------------------------------
   57 O2    x      -1.1893     -0.1154     -0.0690
            y      -0.1048     -1.2902      0.0094
            z      -0.0681      0.0340     -2.0761
-------------------------------------------------------------------------------
   58 O2    x      -1.2187     -0.1336      0.0562
            y      -0.1164     -1.2742      0.0351
            z       0.0638      0.0241     -2.0536
-------------------------------------------------------------------------------
   59 O2    x      -1.1893      0.1154     -0.0691
            y       0.1048     -1.2903     -0.0100
            z      -0.0681     -0.0353     -2.0763
-------------------------------------------------------------------------------
   60 O2    x      -1.2188      0.1337      0.0562
            y       0.1165     -1.2742     -0.0357
            z       0.0638     -0.0254     -2.0536
-------------------------------------------------------------------------------
   61 O2    x      -1.1775     -0.1332     -0.0099
            y      -0.0782     -1.2841     -0.0035
            z       0.0158     -0.0222     -2.0614
-------------------------------------------------------------------------------
   62 O3    x      -1.3225     -0.1612      0.0796
            y      -0.1037     -1.4809      0.0571
            z       0.0464      0.0557     -2.5916
-------------------------------------------------------------------------------
   63 O2    x      -1.1775      0.1332     -0.0100
            y       0.0782     -1.2840      0.0028
            z       0.0158      0.0208     -2.0612
-------------------------------------------------------------------------------
   64 O3    x      -1.3226      0.1613      0.0793
            y       0.1038     -1.4809     -0.0576
            z       0.0463     -0.0570     -2.5915
-------------------------------------------------------------------------------
   65 O3    x      -1.4254     -0.0267      0.1017
            y       0.0676     -3.1401      0.1137
            z       0.1309      0.0821     -1.1327
-------------------------------------------------------------------------------
   66 O2    x      -1.2441      0.0893     -0.0828
            y       0.1727     -2.4979      0.0124
            z      -0.1043      0.0267     -1.0325
-------------------------------------------------------------------------------
   67 O3    x      -1.4255      0.0267      0.1018
            y      -0.0675     -3.1401     -0.1155
            z       0.1309     -0.0827     -1.1329
-------------------------------------------------------------------------------
   68 O2    x      -1.2442     -0.0894     -0.0830
            y      -0.1727     -2.4979     -0.0140
            z      -0.1044     -0.0274     -1.0326
-------------------------------------------------------------------------------
   69 O3    x      -3.0445     -0.1668      0.0783
            y      -0.1375     -1.3872      0.0997
            z       0.0986      0.0515     -1.2141
-------------------------------------------------------------------------------
   70 O2    x      -2.4797     -0.0670     -0.0274
            y      -0.0260     -1.2283     -0.0551
            z      -0.0042     -0.0221     -1.0636
-------------------------------------------------------------------------------
   71 O3    x      -3.0447      0.1671      0.0784
            y       0.1375     -1.3873     -0.1000
            z       0.0987     -0.0518     -1.2142
-------------------------------------------------------------------------------
   72 O2    x      -2.4795      0.0670     -0.0273
            y       0.0260     -1.2282      0.0549
            z      -0.0042      0.0218     -1.0636
-------------------------------------------------------------------------------




  Elastic Constant Matrix: (Units=GPa)

-------------------------------------------------------------------------------
  Indices      1         2         3         4         5         6    
-------------------------------------------------------------------------------
       1     60.0523   33.7201   37.9559    1.7842    0.6127   -9.2658
       2     33.7201   88.0686   26.9290    1.8179   -0.9470   -9.5311
       3     37.9559   26.9290   70.8502    1.0616   -0.4093   -5.3294
       4      1.7842    1.8179    1.0616    3.7291    0.0584   50.6283
       5      0.6127   -0.9470   -0.4093    0.0584   26.8406   -0.3478
       6     -9.2658   -9.5311   -5.3294   50.6283   -0.3478 -233.4113
-------------------------------------------------------------------------------


  Elastic Compliance Matrix: (Units=1/GPa)

-------------------------------------------------------------------------------
  Indices      1         2         3         4         5         6    
-------------------------------------------------------------------------------
       1    0.028585 -0.007150 -0.012644  0.000235 -0.001105 -0.000502
       2   -0.007150  0.014601 -0.001736  0.000128  0.000648 -0.000246
       3   -0.012644 -0.001736  0.021557 -0.000084  0.000557  0.000061
       4    0.000235  0.000128 -0.000084  0.067983  0.000041  0.014733
       5   -0.001105  0.000648  0.000557  0.000041  0.037313 -0.000042
       6   -0.000502 -0.000246  0.000061  0.014733 -0.000042 -0.001060
-------------------------------------------------------------------------------

  Mechanical properties :

-------------------------------------------------------------------------------
  Convention :                    Reuss         Voigt         Hill
-------------------------------------------------------------------------------
  Bulk  Modulus (GPa)     =      46.11733      46.24233      46.17983
  Shear Modulus (GPa)     =      22.80337     -32.54390      -4.87027
-------------------------------------------------------------------------------
  Velocity S-wave (km/s)  =       3.45817      -4.13125      -1.59817
  Velocity P-wave (km/s)  =       6.33489       1.22265       4.56211
-------------------------------------------------------------------------------
  Compressibility (1/GPa) =    0.02168382
-------------------------------------------------------------------------------
  Stress axis :                     x             y             z
-------------------------------------------------------------------------------
  Youngs Moduli (GPa)     =      34.98312      68.48938      46.38912
-------------------------------------------------------------------------------
  Poissons Ratio (x)      =                     0.48968       0.58654
  Poissons Ratio (y)      =       0.25012                     0.08053
  Poissons Ratio (z)      =       0.44232       0.11889
-------------------------------------------------------------------------------


  Piezoelectric Strain Matrix: (Units=C/m**2)

-------------------------------------------------------------------------------
  Indices      1         2         3         4         5         6    
-------------------------------------------------------------------------------
       x    -0.55701  -0.58390  -0.33229   2.56585  -0.02499 -15.72774
       y     0.35524   1.08639   0.04245   0.00825  -0.45325  -0.04590
       z    -5.56187  -5.74652  -3.22853  29.52479  -0.21311-156.76993
-------------------------------------------------------------------------------


  Piezoelectric Stress Matrix: (Units=10**-11 C/N)

-------------------------------------------------------------------------------
  Indices      1         2         3         4         5         6    
-------------------------------------------------------------------------------
       x     0.09722   0.02147  -0.03041  -5.74651  -0.01142   5.48773
       y     0.23762   1.29671  -0.57186   0.00843  -1.65739  -0.02536
       z     0.87147   0.36665  -0.15466 -30.43255   0.04720  60.51757
-------------------------------------------------------------------------------


  Static dielectric constant tensor : 

-------------------------------------------------------------------------------
              x         y         z
-------------------------------------------------------------------------------
       x     4.67028   0.00170   6.99840
       y     0.00170   4.03219   0.02189
       z     6.99840   0.02189  70.96166
--------------------------------------------------------------------------------

  High frequency dielectric constant tensor : 

-------------------------------------------------------------------------------
              x         y         z
-------------------------------------------------------------------------------
       x     1.68861  -0.00001   0.00041
       y    -0.00001   1.69539   0.00012
       z     0.00041   0.00012   1.62784
-------------------------------------------------------------------------------

  Static refractive indices : 

-------------------------------------------------------------------------------
    1 =    1.98482      2 =    2.00803      3 =    8.46714
-------------------------------------------------------------------------------

  High frequency refractive indices : 

-------------------------------------------------------------------------------
    1 =    1.27587      2 =    1.29947      3 =    1.30207
-------------------------------------------------------------------------------


  Time to end of optimisation =      11.4588 seconds


  Peak dynamic memory used =       5.01 MB 


  Timing analysis for GULP :

--------------------------------------------------------------------------------
  Task / Subroutine                                          Time (Seconds)
--------------------------------------------------------------------------------
  Calculation of reciprocal space energy and derivatives          0.7552
  Calculation of real space energy and derivatives                7.0405
  Calculation of three-body energy and derivatives                0.7346
  Calculation and manipulation of Hessian matrix                  3.7912
  Calculation of matrix inversion                                 0.0158
  Global summation overhead                                       0.0001
--------------------------------------------------------------------------------
  Total CPU time                                                 11.4588
--------------------------------------------------------------------------------


  Dump file written as c00043.vasp.grs
  CIF file written as c00043.vasp.cif


  Job Finished at 10:53.38  7th October    2025                               

