********************************************************************************
*                       GENERAL UTILITY LATTICE PROGRAM                        *
*                                 Julian Gale                                  *
*                       Curtin Institute for Computation                       *
*                    School of Molecular and Life Sciences                     *
*                    Curtin University, Western Australia                      *
********************************************************************************
* Version = 6.1.2 * Last modified =   3rd November 2022                        *
********************************************************************************
*  optimise     - perform optimisation run                                     *
*  conp         - constant pressure calculation                                *
*  property     - calculate properties for final geometry                      *
********************************************************************************

  Job Started  at 18:40.52 30th October    2025                               

  Number of CPUs =     1


  Total number of configurations input =      1

********************************************************************************
*  Input for Configuration =   1 : c00046.vasp                                 *
********************************************************************************

  Formula = Ge22Si2O48                                                  

  Number of irreducible atoms/shells =     120


  Total number atoms/shells =     120

  Dimensionality = 3               :  Bulk   



  Cartesian lattice vectors (Angstroms) :

       17.182800    0.000000    0.000000
        0.000000    7.513760    0.000000
        0.000000    0.000000   10.447700

  Cell parameters (Angstroms/Degrees):

  a =      17.1828    alpha =  90.0000
  b =       7.5138    beta  =  90.0000
  c =      10.4477    gamma =  90.0000

  Initial cell volume =        1348.875752 Angs**3

  Temperature of configuration =   0.00     K 

  Pressure of configuration =         0.000 GPa 

  Fractional coordinates of asymmetric unit :

--------------------------------------------------------------------------------
   No.  Atomic       x           y          z         Charge      Occupancy
        Label      (Frac)      (Frac)     (Frac)        (e)         (Frac)  
--------------------------------------------------------------------------------
      1 Ge    c    0.052090    0.000000    0.372270     4.00000    1.000000    
      2 Ge    c    0.447910 *  0.000000 *  0.372270 *   4.00000    1.000000    
      3 Ge    c    0.556730 *  0.000000 *  0.122130 *   4.00000    1.000000    
      4 Ge    c    0.943270 *  0.000000 *  0.122130 *   4.00000    1.000000    
      5 Ge    c    0.443270 *  0.000000 *  0.877870 *   4.00000    1.000000    
      6 Ge    c    0.056730 *  0.000000 *  0.877870 *   4.00000    1.000000    
      7 Ge    c    0.160190 *  0.293910 *  0.273440 *   4.00000    1.000000    
      8 Ge    c    0.339810 *  0.706090 *  0.273440 *   4.00000    1.000000    
      9 Ge    c    0.839810 *  0.293910 *  0.726560 *   4.00000    1.000000    
     10 Ge    c    0.660190 *  0.706090 *  0.726560 *   4.00000    1.000000    
     11 Ge    c    0.839810 *  0.706090 *  0.726560 *   4.00000    1.000000    
     12 Ge    c    0.660190 *  0.293910 *  0.726560 *   4.00000    1.000000    
     13 Ge    c    0.160190 *  0.706090 *  0.273440 *   4.00000    1.000000    
     14 Ge    c    0.339810 *  0.293910 *  0.273440 *   4.00000    1.000000    
     15 Ge    c    0.660660 *  0.294090 *  0.017440 *   4.00000    1.000000    
     16 Ge    c    0.839340 *  0.705910 *  0.017440 *   4.00000    1.000000    
     17 Ge    c    0.339340 *  0.294090 *  0.982560 *   4.00000    1.000000    
     18 Ge    c    0.160660 *  0.705910 *  0.982560 *   4.00000    1.000000    
     19 Ge    c    0.339340 *  0.705910 *  0.982560 *   4.00000    1.000000    
     20 Ge    c    0.160660 *  0.294090 *  0.982560 *   4.00000    1.000000    
     21 Ge    c    0.660660 *  0.705910 *  0.017440 *   4.00000    1.000000    
     22 Ge    c    0.839340 *  0.294090 *  0.017440 *   4.00000    1.000000    
     23 Si    c    0.947910 *  0.000000 *  0.627730 *   4.00000    1.000000    
     24 Si    c    0.552090 *  0.000000 *  0.627730 *   4.00000    1.000000    
     25 O1    c    0.106570 *  0.174340 *  0.366200 *   1.73396    1.000000    
     26 O1    c    0.393430 *  0.825660 *  0.366200 *   1.73396    1.000000    
     27 O3    c    0.893430 *  0.174340 *  0.633800 *   1.33043    1.000000    
     28 O3    c    0.606570 *  0.825660 *  0.633800 *   1.33043    1.000000    
     29 O3    c    0.893430 *  0.825660 *  0.633800 *   1.33043    1.000000    
     30 O3    c    0.606570 *  0.174340 *  0.633800 *   1.33043    1.000000    
     31 O1    c    0.106570 *  0.825660 *  0.366200 *   1.73396    1.000000    
     32 O1    c    0.393430 *  0.174340 *  0.366200 *   1.73396    1.000000    
     33 O3    c    0.000000 *  0.000000 *  0.500000 *   1.33043    1.000000    
     34 O3    c    0.500000 *  0.000000 *  0.500000 *   1.33043    1.000000    
     35 O1    c    0.994520 *  0.000000 *  0.250840 *   1.73396    1.000000    
     36 O1    c    0.505480 *  0.000000 *  0.250840 *   1.73396    1.000000    
     37 O3    c    0.005480 *  0.000000 *  0.749160 *   1.33043    1.000000    
     38 O3    c    0.494520 *  0.000000 *  0.749160 *   1.33043    1.000000    
     39 O1    c    0.610230 *  0.175520 *  0.115390 *   1.73396    1.000000    
     40 O1    c    0.889770 *  0.824480 *  0.115390 *   1.73396    1.000000    
     41 O1    c    0.389770 *  0.175520 *  0.884610 *   1.73396    1.000000    
     42 O1    c    0.110230 *  0.824480 *  0.884610 *   1.73396    1.000000    
     43 O1    c    0.389770 *  0.824480 *  0.884610 *   1.73396    1.000000    
     44 O1    c    0.110230 *  0.175520 *  0.884610 *   1.73396    1.000000    
     45 O1    c    0.610230 *  0.824480 *  0.115390 *   1.73396    1.000000    
     46 O1    c    0.889770 *  0.175520 *  0.115390 *   1.73396    1.000000    
     47 O1    c    0.500000 *  0.000000 *  0.000000 *   1.73396    1.000000    
     48 O1    c    0.000000 *  0.000000 *  0.000000 *   1.73396    1.000000    
     49 O1    c    0.151750 *  0.500000 *  0.313330 *   1.73396    1.000000    
     50 O1    c    0.348250 *  0.500000 *  0.313330 *   1.73396    1.000000    
     51 O1    c    0.848250 *  0.500000 *  0.686670 *   1.73396    1.000000    
     52 O1    c    0.651750 *  0.500000 *  0.686670 *   1.73396    1.000000    
     53 O1    c    0.250000 *  0.234950 *  0.285720 *   1.73396    1.000000    
     54 O1    c    0.250000 *  0.765050 *  0.285720 *   1.73396    1.000000    
     55 O1    c    0.750000 *  0.234950 *  0.714280 *   1.73396    1.000000    
     56 O1    c    0.750000 *  0.765050 *  0.714280 *   1.73396    1.000000    
     57 O1    c    0.131410 *  0.268650 *  0.127790 *   1.73396    1.000000    
     58 O1    c    0.368590 *  0.731350 *  0.127790 *   1.73396    1.000000    
     59 O1    c    0.868590 *  0.268650 *  0.872210 *   1.73396    1.000000    
     60 O1    c    0.631410 *  0.731350 *  0.872210 *   1.73396    1.000000    
     61 O1    c    0.868590 *  0.731350 *  0.872210 *   1.73396    1.000000    
     62 O1    c    0.631410 *  0.268650 *  0.872210 *   1.73396    1.000000    
     63 O1    c    0.131410 *  0.731350 *  0.127790 *   1.73396    1.000000    
     64 O1    c    0.368590 *  0.268650 *  0.127790 *   1.73396    1.000000    
     65 O1    c    0.653920 *  0.500000 *  0.058200 *   1.73396    1.000000    
     66 O1    c    0.846080 *  0.500000 *  0.058200 *   1.73396    1.000000    
     67 O1    c    0.346080 *  0.500000 *  0.941800 *   1.73396    1.000000    
     68 O1    c    0.153920 *  0.500000 *  0.941800 *   1.73396    1.000000    
     69 O1    c    0.750000 *  0.231060 *  0.027050 *   1.73396    1.000000    
     70 O1    c    0.750000 *  0.768940 *  0.027050 *   1.73396    1.000000    
     71 O1    c    0.250000 *  0.231060 *  0.972950 *   1.73396    1.000000    
     72 O1    c    0.250000 *  0.768940 *  0.972950 *   1.73396    1.000000    
     73 O1    s    0.106570 *  0.174340 *  0.366200 *  -3.73396    1.000000    
     74 O1    s    0.393430 *  0.825660 *  0.366200 *  -3.73396    1.000000    
     75 O3    s    0.893430 *  0.174340 *  0.633800 *  -3.33043    1.000000    
     76 O3    s    0.606570 *  0.825660 *  0.633800 *  -3.33043    1.000000    
     77 O3    s    0.893430 *  0.825660 *  0.633800 *  -3.33043    1.000000    
     78 O3    s    0.606570 *  0.174340 *  0.633800 *  -3.33043    1.000000    
     79 O1    s    0.106570 *  0.825660 *  0.366200 *  -3.73396    1.000000    
     80 O1    s    0.393430 *  0.174340 *  0.366200 *  -3.73396    1.000000    
     81 O3    s    0.000000 *  0.000000 *  0.500000 *  -3.33043    1.000000    
     82 O3    s    0.500000 *  0.000000 *  0.500000 *  -3.33043    1.000000    
     83 O1    s    0.994520 *  0.000000 *  0.250840 *  -3.73396    1.000000    
     84 O1    s    0.505480 *  0.000000 *  0.250840 *  -3.73396    1.000000    
     85 O3    s    0.005480 *  0.000000 *  0.749160 *  -3.33043    1.000000    
     86 O3    s    0.494520 *  0.000000 *  0.749160 *  -3.33043    1.000000    
     87 O1    s    0.610230 *  0.175520 *  0.115390 *  -3.73396    1.000000    
     88 O1    s    0.889770 *  0.824480 *  0.115390 *  -3.73396    1.000000    
     89 O1    s    0.389770 *  0.175520 *  0.884610 *  -3.73396    1.000000    
     90 O1    s    0.110230 *  0.824480 *  0.884610 *  -3.73396    1.000000    
     91 O1    s    0.389770 *  0.824480 *  0.884610 *  -3.73396    1.000000    
     92 O1    s    0.110230 *  0.175520 *  0.884610 *  -3.73396    1.000000    
     93 O1    s    0.610230 *  0.824480 *  0.115390 *  -3.73396    1.000000    
     94 O1    s    0.889770 *  0.175520 *  0.115390 *  -3.73396    1.000000    
     95 O1    s    0.500000 *  0.000000 *  0.000000 *  -3.73396    1.000000    
     96 O1    s    0.000000 *  0.000000 *  0.000000 *  -3.73396    1.000000    
     97 O1    s    0.151750 *  0.500000 *  0.313330 *  -3.73396    1.000000    
     98 O1    s    0.348250 *  0.500000 *  0.313330 *  -3.73396    1.000000    
     99 O1    s    0.848250 *  0.500000 *  0.686670 *  -3.73396    1.000000    
    100 O1    s    0.651750 *  0.500000 *  0.686670 *  -3.73396    1.000000    
    101 O1    s    0.250000 *  0.234950 *  0.285720 *  -3.73396    1.000000    
    102 O1    s    0.250000 *  0.765050 *  0.285720 *  -3.73396    1.000000    
    103 O1    s    0.750000 *  0.234950 *  0.714280 *  -3.73396    1.000000    
    104 O1    s    0.750000 *  0.765050 *  0.714280 *  -3.73396    1.000000    
    105 O1    s    0.131410 *  0.268650 *  0.127790 *  -3.73396    1.000000    
    106 O1    s    0.368590 *  0.731350 *  0.127790 *  -3.73396    1.000000    
    107 O1    s    0.868590 *  0.268650 *  0.872210 *  -3.73396    1.000000    
    108 O1    s    0.631410 *  0.731350 *  0.872210 *  -3.73396    1.000000    
    109 O1    s    0.868590 *  0.731350 *  0.872210 *  -3.73396    1.000000    
    110 O1    s    0.631410 *  0.268650 *  0.872210 *  -3.73396    1.000000    
    111 O1    s    0.131410 *  0.731350 *  0.127790 *  -3.73396    1.000000    
    112 O1    s    0.368590 *  0.268650 *  0.127790 *  -3.73396    1.000000    
    113 O1    s    0.653920 *  0.500000 *  0.058200 *  -3.73396    1.000000    
    114 O1    s    0.846080 *  0.500000 *  0.058200 *  -3.73396    1.000000    
    115 O1    s    0.346080 *  0.500000 *  0.941800 *  -3.73396    1.000000    
    116 O1    s    0.153920 *  0.500000 *  0.941800 *  -3.73396    1.000000    
    117 O1    s    0.750000 *  0.231060 *  0.027050 *  -3.73396    1.000000    
    118 O1    s    0.750000 *  0.768940 *  0.027050 *  -3.73396    1.000000    
    119 O1    s    0.250000 *  0.231060 *  0.972950 *  -3.73396    1.000000    
    120 O1    s    0.250000 *  0.768940 *  0.972950 *  -3.73396    1.000000    
--------------------------------------------------------------------------------



********************************************************************************
*  General input information                                                   *
********************************************************************************

  Species output for all configurations : 

--------------------------------------------------------------------------------
  Species    Type    Atomic    Atomic    Charge       Radii (Angs)     Library
                     Number     Mass       (e)     Cova   Ionic  VDW   Symbol
--------------------------------------------------------------------------------
    Ge       Core       32      72.61   4.000000   1.170  0.000  1.750 Ge       
    Si       Core       14      28.09   4.000000   1.200  0.000  2.100 Si       
    O1       Core        8      16.00   1.733957   0.730  0.000  1.360 O1       
    O2       Core        8      16.00   0.870733   0.730  0.000  0.000 O2       
    O3       Core        8      16.00   1.330431   0.730  0.000  1.360 O3       
    O1       Shell       8       0.00  -3.733957   0.730  0.000  0.000 O1       
    O2       Shell       8       0.00  -2.870733   0.730  0.000  0.000 O2       
    O3       Shell       8       0.00  -3.330431   0.730  0.000  0.000 O3       
--------------------------------------------------------------------------------


  Lattice summation method               =    Ewald          (3-D)
                                         =    Parry          (2-D)
                                         =    Saunders et al (1-D)
  Accuracy factor for lattice sums       =   12.000


  Analytic derivatives to be used

  Time limit = Infinity

  Maximum range for interatomic potentials =    100000.000000 Angstroms

  General interatomic potentials :

--------------------------------------------------------------------------------
Atom  Types   Potential      Parameter       Value         Units   Cutoffs(Ang)
  1     2                                                            Min /  Max 
--------------------------------------------------------------------------------
Si   c O1   s Buckingham    Buckingham A     1315.2478    eV        0.000 16.000
                            Buckingham rho  0.31775900    Ang       
                            Buckingham C     10.141118    eV*Ang^6  
--------------------------------------------------------------------------------
Si   c O2   s Buckingham    Buckingham A     1315.2478    eV        0.000 16.000
                            Buckingham rho  0.31775900    Ang       
                            Buckingham C     10.141118    eV*Ang^6  
--------------------------------------------------------------------------------
Si   c O3   s Buckingham    Buckingham A     1315.2478    eV        0.000 16.000
                            Buckingham rho  0.31775900    Ang       
                            Buckingham C     10.141118    eV*Ang^6  
--------------------------------------------------------------------------------
Ge   c O1   s Buckingham    Buckingham A     1497.3996    eV        0.000 16.000
                            Buckingham rho  0.32564600    Ang       
                            Buckingham C     16.808599    eV*Ang^6  
--------------------------------------------------------------------------------
Ge   c O2   s Buckingham    Buckingham A     1497.3996    eV        0.000 16.000
                            Buckingham rho  0.32564600    Ang       
                            Buckingham C     16.808599    eV*Ang^6  
--------------------------------------------------------------------------------
Ge   c O3   s Buckingham    Buckingham A     1497.3996    eV        0.000 16.000
                            Buckingham rho  0.32564600    Ang       
                            Buckingham C     16.808599    eV*Ang^6  
--------------------------------------------------------------------------------
O1   s O1   s Buckingham    Buckingham A     22764.000    eV        0.000 16.000
                            Buckingham rho  0.14900000    Ang       
                            Buckingham C     10.937044    eV*Ang^6  
--------------------------------------------------------------------------------
O1   s O2   s Buckingham    Buckingham A     22764.000    eV        0.000 16.000
                            Buckingham rho  0.14900000    Ang       
                            Buckingham C     10.937044    eV*Ang^6  
--------------------------------------------------------------------------------
O1   s O3   s Buckingham    Buckingham A     22764.000    eV        0.000 16.000
                            Buckingham rho  0.14900000    Ang       
                            Buckingham C     10.937044    eV*Ang^6  
--------------------------------------------------------------------------------
O2   s O2   s Buckingham    Buckingham A     22764.000    eV        0.000 16.000
                            Buckingham rho  0.14900000    Ang       
                            Buckingham C     10.937044    eV*Ang^6  
--------------------------------------------------------------------------------
O2   s O3   s Buckingham    Buckingham A     22764.000    eV        0.000 16.000
                            Buckingham rho  0.14900000    Ang       
                            Buckingham C     10.937044    eV*Ang^6  
--------------------------------------------------------------------------------
O3   s O3   s Buckingham    Buckingham A     22764.000    eV        0.000 16.000
                            Buckingham rho  0.14900000    Ang       
                            Buckingham C     10.937044    eV*Ang^6  
--------------------------------------------------------------------------------
O1   c O1   s Spring (c-s)  Spring k 2       180.31577    eV*Ang^-2 0.000  0.800
                            Spring k 4       0.0000000    eV*Ang^-4 
--------------------------------------------------------------------------------
O2   c O2   s Spring (c-s)  Spring k 2       75.969800    eV*Ang^-2 0.000  0.800
                            Spring k 4       0.0000000    eV*Ang^-4 
--------------------------------------------------------------------------------
O3   c O3   s Spring (c-s)  Spring k 2       128.14270    eV*Ang^-2 0.000  0.800
                            Spring k 4       0.0000000    eV*Ang^-4 
--------------------------------------------------------------------------------

  General Three-body potentials :

--------------------------------------------------------------------------------
  Atoms       Potential      Parameter       Value         Units   Cutoffs(Ang)
  1 / 2 / 3                                                          Min /  Max 
--------------------------------------------------------------------------------
Si    core    Harmonic      Three-body cnst  1.2614000    eV*rad^-2 0.000  1.900
O1    shel                  Three-body angl  109.47000    degrees   0.000  1.900
O1    shel                  Three-body k4    0.0000000    eV*rad^-4 0.000  3.500
                            Three-body k3    0.0000000    eV*rad^-3 
--------------------------------------------------------------------------------
Si    core    Harmonic      Three-body cnst  1.2614000    eV*rad^-2 0.000  1.900
O1    shel                  Three-body angl  109.47000    degrees   0.000  1.900
õ(1   shel                  Three-body k4    0.0000000    eV*rad^-4 0.000  3.500
                            Three-body k3    0.0000000    eV*rad^-3 
--------------------------------------------------------------------------------
Si    core    Harmonic      Three-body cnst  1.2614000    eV*rad^-2 0.000  1.900
õ(1   shel                  Three-body angl  109.47000    degrees   0.000  1.900
õ(1   shel                  Three-body k4    0.0000000    eV*rad^-4 0.000  3.500
                            Three-body k3    0.0000000    eV*rad^-3 
--------------------------------------------------------------------------------
Si    core    Harmonic      Three-body cnst  1.2614000    eV*rad^-2 0.000  1.900
O1    shel                  Three-body angl  109.47000    degrees   0.000  1.900
O2    shel                  Three-body k4    0.0000000    eV*rad^-4 0.000  3.500
                            Three-body k3    0.0000000    eV*rad^-3 
--------------------------------------------------------------------------------
Si    core    Harmonic      Three-body cnst  1.2614000    eV*rad^-2 0.000  1.900
O1    shel                  Three-body angl  109.47000    degrees   0.000  1.900
õ(2   shel                  Three-body k4    0.0000000    eV*rad^-4 0.000  3.500
                            Three-body k3    0.0000000    eV*rad^-3 
--------------------------------------------------------------------------------
Si    core    Harmonic      Three-body cnst  1.2614000    eV*rad^-2 0.000  1.900
O2    shel                  Three-body angl  109.47000    degrees   0.000  1.900
õ(1   shel                  Three-body k4    0.0000000    eV*rad^-4 0.000  3.500
                            Three-body k3    0.0000000    eV*rad^-3 
--------------------------------------------------------------------------------
Si    core    Harmonic      Three-body cnst  1.2614000    eV*rad^-2 0.000  1.900
õ(1   shel                  Three-body angl  109.47000    degrees   0.000  1.900
õ(2   shel                  Three-body k4    0.0000000    eV*rad^-4 0.000  3.500
                            Three-body k3    0.0000000    eV*rad^-3 
--------------------------------------------------------------------------------
Si    core    Harmonic      Three-body cnst  1.2614000    eV*rad^-2 0.000  1.900
O2    shel                  Three-body angl  109.47000    degrees   0.000  1.900
O2    shel                  Three-body k4    0.0000000    eV*rad^-4 0.000  3.500
                            Three-body k3    0.0000000    eV*rad^-3 
--------------------------------------------------------------------------------
Si    core    Harmonic      Three-body cnst  1.2614000    eV*rad^-2 0.000  1.900
O2    shel                  Three-body angl  109.47000    degrees   0.000  1.900
õ(2   shel                  Three-body k4    0.0000000    eV*rad^-4 0.000  3.500
                            Three-body k3    0.0000000    eV*rad^-3 
--------------------------------------------------------------------------------
Si    core    Harmonic      Three-body cnst  1.2614000    eV*rad^-2 0.000  1.900
õ(2   shel                  Three-body angl  109.47000    degrees   0.000  1.900
õ(2   shel                  Three-body k4    0.0000000    eV*rad^-4 0.000  3.500
                            Three-body k3    0.0000000    eV*rad^-3 
--------------------------------------------------------------------------------

********************************************************************************
*  Output for configuration   1 : c00046.vasp                                  *
********************************************************************************


  Components of energy : 

--------------------------------------------------------------------------------
  Interatomic potentials     =         912.63229250 eV    
  Three-body potentials      =           0.00000000 eV    
  Monopole - monopole (real) =       -2676.00317478 eV    
  Monopole - monopole (recip)=       -1115.35404472 eV    
  Monopole - monopole (total)=       -3791.35721950 eV    
--------------------------------------------------------------------------------
  Total lattice energy       =       -2878.72492700 eV    
--------------------------------------------------------------------------------
  Total lattice energy       =         -277752.9501 kJ/(mole unit cells)
--------------------------------------------------------------------------------


  Number of variables =      363

  Maximum number of calculations  =          1000
  Maximum Hessian update interval =            10
  Maximum step size               =   0.100000000
  Maximum parameter tolerance     =   0.000010000
  Maximum function  tolerance     =   0.000010000
  Maximum gradient  tolerance     =   0.001000000
  Maximum gradient  component     =   0.010000000

  Symmetry not applied to optimisation

  Cell parameters to be optimised using strains

  Newton-Raphson optimiser to be used

  BFGS hessian update to be used

  Lower half triangular hessian to be used

  Minimiser to switch to RFO
  When gradient norm is less than     0.050000

  Dumpfile to be written after every cycle

  Start of bulk optimisation :

  Cycle:      0 Energy:     -2878.724927  Gnorm:      6.072449  CPU:    0.091
  ** Hessian calculated **
  Cycle:      1 Energy:     -2891.896419  Gnorm:      5.265261  CPU:    0.247
  ** Hessian calculated **
  Cycle:      2 Energy:     -2910.349304  Gnorm:      3.852631  CPU:    0.470
  ** Hessian calculated **
  Cycle:      3 Energy:     -2927.979729  Gnorm:      0.915483  CPU:    0.634
  ** Hessian calculated **
  Cycle:      4 Energy:     -2930.351601  Gnorm:      0.631095  CPU:    0.817
  Cycle:      5 Energy:     -2931.438264  Gnorm:      0.364992  CPU:    0.900
  ** Hessian calculated **
  Cycle:      6 Energy:     -2931.696123  Gnorm:      0.154166  CPU:    1.063
  Cycle:      7 Energy:     -2931.755179  Gnorm:      0.090225  CPU:    1.147
  Cycle:      8 Energy:     -2931.793250  Gnorm:      0.077081  CPU:    1.247
  Cycle:      9 Energy:     -2931.837143  Gnorm:      0.065475  CPU:    1.347
  Cycle:     10 Energy:     -2931.869547  Gnorm:      0.060146  CPU:    1.430
  Cycle:     11 Energy:     -2931.888789  Gnorm:      0.047769  CPU:    1.514
  ** Hessian has required structure
  Cycle:     12 Energy:     -2931.893928  Gnorm:      0.083812  CPU:    1.635
  ** Hessian has required structure
  Cycle:     13 Energy:     -2931.920503  Gnorm:      0.116439  CPU:    1.786
  ** Hessian has required structure
  Cycle:     14 Energy:     -2931.932895  Gnorm:      0.090957  CPU:    1.905
  ** Hessian has required structure
  Cycle:     15 Energy:     -2931.937121  Gnorm:      0.098055  CPU:    2.025
  ** Hessian has wrong structure
  ** Imaginary eigenvectors =  10
  ** Hessian has wrong structure
  ** Imaginary eigenvectors =  10
  Cycle:     16 Energy:     -2931.974096  Gnorm:      0.100604  CPU:    2.533
  ** Hessian has wrong structure
  ** Imaginary eigenvectors =   9
  ** Hessian has wrong structure
  ** Imaginary eigenvectors =   8
  Cycle:     17 Energy:     -2932.011159  Gnorm:      0.107487  CPU:    3.008
  ** Hessian has wrong structure
  ** Imaginary eigenvectors =   7
  ** Hessian has wrong structure
  ** Imaginary eigenvectors =   6
  Cycle:     18 Energy:     -2932.054982  Gnorm:      0.122093  CPU:    3.408
  ** Hessian has wrong structure
  ** Imaginary eigenvectors =   5
  ** Hessian has wrong structure
  ** Imaginary eigenvectors =   4
  Cycle:     19 Energy:     -2932.150802  Gnorm:      0.139177  CPU:    3.849
  ** Hessian has wrong structure
  ** Imaginary eigenvectors =   3
  ** Hessian has wrong structure
  ** Imaginary eigenvectors =   2
  Cycle:     20 Energy:     -2932.298505  Gnorm:      0.146662  CPU:    4.139
  ** Hessian has wrong structure
  ** Imaginary eigenvectors =   2
  Cycle:     21 Energy:     -2932.542195  Gnorm:      0.114247  CPU:    4.381
  ** Hessian has wrong structure
  ** Imaginary eigenvectors =   3
  ** Hessian has wrong structure
  ** Imaginary eigenvectors =   2
  Cycle:     22 Energy:     -2932.589437  Gnorm:      0.118509  CPU:    4.811
  ** Hessian has wrong structure
  ** Imaginary eigenvectors =   1
  ** Hessian has required structure
  Cycle:     23 Energy:     -2932.942398  Gnorm:      0.074455  CPU:    5.255
  ** Hessian has required structure
  Cycle:     24 Energy:     -2933.050171  Gnorm:      0.044402  CPU:    5.404
  ** Hessian has required structure
  Cycle:     25 Energy:     -2933.090599  Gnorm:      0.036099  CPU:    5.539
  ** Hessian has required structure
  Cycle:     26 Energy:     -2933.115746  Gnorm:      0.024142  CPU:    5.672
  ** Hessian has required structure
  Cycle:     27 Energy:     -2933.121097  Gnorm:      0.021862  CPU:    5.790
  ** Hessian has required structure
  Cycle:     28 Energy:     -2933.126067  Gnorm:      0.013340  CPU:    5.924
  ** Hessian has required structure
  Cycle:     29 Energy:     -2933.128156  Gnorm:      0.010378  CPU:    6.059
  ** Hessian has required structure
  Cycle:     30 Energy:     -2933.129751  Gnorm:      0.008514  CPU:    6.208
  ** Hessian has required structure
  Cycle:     31 Energy:     -2933.131153  Gnorm:      0.011363  CPU:    6.358
  ** Hessian has required structure
  Cycle:     32 Energy:     -2933.133282  Gnorm:      0.014752  CPU:    6.508
  ** Hessian has wrong structure
  ** Imaginary eigenvectors =   1
  Cycle:     33 Energy:     -2933.140084  Gnorm:      0.019806  CPU:    6.825
  ** Hessian has required structure
  Cycle:     34 Energy:     -2933.145200  Gnorm:      0.010768  CPU:    7.052
  ** Hessian has required structure
  Cycle:     35 Energy:     -2933.147016  Gnorm:      0.006551  CPU:    7.202
  ** Hessian has required structure
  Cycle:     36 Energy:     -2933.147786  Gnorm:      0.003697  CPU:    7.351
  ** Hessian has required structure
  Cycle:     37 Energy:     -2933.148071  Gnorm:      0.002140  CPU:    7.501
  ** Hessian has required structure
  Cycle:     38 Energy:     -2933.148154  Gnorm:      0.001288  CPU:    7.636
  ** Hessian has required structure
  Cycle:     39 Energy:     -2933.148192  Gnorm:      0.000759  CPU:    7.785
  ** Hessian has required structure
  Cycle:     40 Energy:     -2933.148204  Gnorm:      0.000297  CPU:    7.935
  ** Hessian has required structure
  Cycle:     41 Energy:     -2933.148208  Gnorm:      0.000253  CPU:    8.072
  ** Hessian has required structure
  Cycle:     42 Energy:     -2933.020739  Gnorm:      0.155197  CPU:    8.239
  ** Hessian has required structure
  Cycle:     43 Energy:     -2933.038006  Gnorm:      0.144333  CPU:    8.469
  ** Hessian has required structure
  Cycle:     44 Energy:     -2933.065012  Gnorm:      0.125448  CPU:    8.638
  ** Hessian has required structure
  Cycle:     45 Energy:     -2933.095597  Gnorm:      0.099816  CPU:    8.790
  ** Hessian has required structure
  Cycle:     46 Energy:     -2933.127098  Gnorm:      0.063231  CPU:    8.942
  ** Hessian has required structure
  Cycle:     47 Energy:     -2933.142965  Gnorm:      0.031519  CPU:    9.093
  ** Hessian has required structure
  Cycle:     48 Energy:     -2933.144784  Gnorm:      0.025381  CPU:    9.243
  ** Hessian has required structure
  Cycle:     49 Energy:     -2933.145374  Gnorm:      0.023134  CPU:    9.409
  ** Hessian has required structure
  Cycle:     50 Energy:     -2933.147448  Gnorm:      0.011699  CPU:    9.561
  ** Hessian has required structure
  Cycle:     51 Energy:     -2933.147942  Gnorm:      0.006995  CPU:    9.697
  ** Hessian has required structure
  Cycle:     52 Energy:     -2933.148144  Gnorm:      0.003473  CPU:    9.847
  ** Hessian has required structure
  Cycle:     53 Energy:     -2933.148188  Gnorm:      0.002084  CPU:   10.060
  ** Hessian has required structure
  Cycle:     54 Energy:     -2933.148203  Gnorm:      0.001250  CPU:   10.209
  ** Hessian has required structure
  Cycle:     55 Energy:     -2933.148211  Gnorm:      0.000625  CPU:   10.375
  ** Hessian has required structure
  Cycle:     56 Energy:     -2933.148212  Gnorm:      0.000437  CPU:   10.507
  ** Hessian has required structure
  Cycle:     57 Energy:     -2933.148212  Gnorm:      0.000394  CPU:   10.641
  ** Hessian has required structure
  Cycle:     58 Energy:     -2933.148212  Gnorm:      0.000372  CPU:   10.775
  ** Hessian has required structure
  Cycle:     59 Energy:     -2933.148212  Gnorm:      0.000361  CPU:   10.907
  ** Hessian has required structure
  Cycle:     60 Energy:     -2933.148212  Gnorm:      0.000355  CPU:   11.038
  ** Hessian has required structure
  Cycle:     61 Energy:     -2933.148212  Gnorm:      0.000353  CPU:   11.175
  ** Hessian has required structure
  Cycle:     62 Energy:     -2933.148212  Gnorm:      0.000352  CPU:   11.307
  ** Hessian has required structure
  Cycle:     63 Energy:     -2933.148211  Gnorm:      0.000357  CPU:   11.573
  ** Hessian calculated **
  Cycle:     64 Energy:     -2933.148212  Gnorm:      0.000250  CPU:   11.742
  ** Hessian has required structure
  ** Hessian has required structure
  Cycle:     65 Energy:     -2933.148212  Gnorm:      0.000175  CPU:   12.011
  ** Hessian has required structure
  Cycle:     66 Energy:     -2933.148212  Gnorm:      0.000122  CPU:   12.143
  ** Hessian has required structure
  Cycle:     67 Energy:     -2933.148212  Gnorm:      0.000086  CPU:   12.274
  ** Hessian has required structure


  **** Optimisation achieved ****


  Final energy =   -2933.14821212 eV      
  Final Gnorm  =       0.00005996

  Components of energy : 

--------------------------------------------------------------------------------
  Interatomic potentials     =         770.32726224 eV    
  Three-body potentials      =           0.00000000 eV    
  Monopole - monopole (real) =       -1494.13649852 eV    
  Monopole - monopole (recip)=       -2209.33897584 eV    
  Monopole - monopole (total)=       -3703.47547437 eV    
--------------------------------------------------------------------------------
  Total lattice energy       =       -2933.14821212 eV    
--------------------------------------------------------------------------------
  Total lattice energy       =         -283003.9652 kJ/(mole unit cells)
--------------------------------------------------------------------------------

  Final fractional coordinates of atoms :

--------------------------------------------------------------------------------
   No.  Atomic        x           y          z          Radius
        Label       (Frac)      (Frac)     (Frac)       (Angs) 
--------------------------------------------------------------------------------
     1  Ge    c     0.052090    0.000000    0.372270    0.000000
     2  Ge    c     0.447740    0.028797    0.406263    0.000000
     3  Ge    c     0.554764    0.024519    0.154731    0.000000
     4  Ge    c     0.949488    0.007146    0.112643    0.000000
     5  Ge    c     0.448816    0.022204    0.899707    0.000000
     6  Ge    c     0.052566    0.997822    0.855658    0.000000
     7  Ge    c     0.169733    0.282726    0.292646    0.000000
     8  Ge    c     0.329381    0.743903    0.287262    0.000000
     9  Ge    c     0.833047    0.290223    0.725680    0.000000
    10  Ge    c     0.664660    0.729920    0.719491    0.000000
    11  Ge    c     0.847617    0.693307    0.719525    0.000000
    12  Ge    c     0.650689    0.327951    0.722995    0.000000
    13  Ge    c     0.149225    0.687407    0.289274    0.000000
    14  Ge    c     0.350216    0.339460    0.292614    0.000000
    15  Ge    c     0.650114    0.337630    0.040447    0.000000
    16  Ge    c     0.850622    0.691611    0.035388    0.000000
    17  Ge    c     0.350495    0.337142    0.976298    0.000000
    18  Ge    c     0.148279    0.685561    0.972673    0.000000
    19  Ge    c     0.329102    0.739900    0.970872    0.000000
    20  Ge    c     0.170025    0.279558    0.976515    0.000000
    21  Ge    c     0.670593    0.740439    0.034811    0.000000
    22  Ge    c     0.830122    0.290288    0.042717    0.000000
    23  Si    c     0.944469    0.000988    0.611586    0.000000
    24  Si    c     0.552436    0.017941    0.652860    0.000000
    25  O1    c     0.120687    0.150574    0.393734    0.000000
    26  O1    c     0.376952    0.885529    0.382060    0.000000
    27  O3    c     0.882959    0.143164    0.638725    0.000000
    28  O3    c     0.612326    0.869915    0.626978    0.000000
    29  O3    c     0.908286    0.816958    0.629986    0.000000
    30  O3    c     0.592446    0.198253    0.631646    0.000000
    31  O1    c     0.090211    0.802607    0.386334    0.000000
    32  O1    c     0.413312    0.228660    0.384959    0.000000
    33  O3    c     0.971994    0.021656    0.463472    0.000000
    34  O3    c     0.478264    0.003770    0.566083    0.000000
    35  O1    c     0.024493    0.030109    0.212336    0.000000
    36  O1    c     0.524947    0.996009    0.311507    0.000000
    37  O3    c     0.019961    0.020177    0.697380    0.000000
    38  O3    c     0.526658    0.000812    0.803157    0.000000
    39  O1    c     0.586552    0.227538    0.130844    0.000000
    40  O1    c     0.911342    0.808334    0.127795    0.000000
    41  O1    c     0.411337    0.220658    0.884475    0.000000
    42  O1    c     0.085207    0.796243    0.880486    0.000000
    43  O1    c     0.378868    0.875040    0.874150    0.000000
    44  O1    c     0.125140    0.138155    0.877943    0.000000
    45  O1    c     0.626911    0.885872    0.129122    0.000000
    46  O1    c     0.880004    0.154692    0.137794    0.000000
    47  O1    c     0.478752    0.986361    0.056730    0.000000
    48  O1    c     0.978597    0.040636    0.954781    0.000000
    49  O1    c     0.158064    0.486933    0.347208    0.000000
    50  O1    c     0.341187    0.542180    0.347610    0.000000
    51  O1    c     0.844604    0.489845    0.661699    0.000000
    52  O1    c     0.652859    0.528186    0.659850    0.000000
    53  O1    c     0.264092    0.239275    0.295356    0.000000
    54  O1    c     0.235172    0.788150    0.286683    0.000000
    55  O1    c     0.739153    0.241378    0.721677    0.000000
    56  O1    c     0.758763    0.777877    0.714032    0.000000
    57  O1    c     0.137922    0.269387    0.134101    0.000000
    58  O1    c     0.360732    0.749962    0.129588    0.000000
    59  O1    c     0.862152    0.290250    0.884383    0.000000
    60  O1    c     0.635603    0.736776    0.878505    0.000000
    61  O1    c     0.881367    0.687609    0.876150    0.000000
    62  O1    c     0.619825    0.339902    0.880811    0.000000
    63  O1    c     0.116632    0.683410    0.131006    0.000000
    64  O1    c     0.382460    0.343050    0.134873    0.000000
    65  O1    c     0.658850    0.539821    0.097378    0.000000
    66  O1    c     0.841826    0.493923    0.099140    0.000000
    67  O1    c     0.341734    0.536376    0.915305    0.000000
    68  O1    c     0.156479    0.482014    0.918793    0.000000
    69  O1    c     0.736522    0.240296    0.044060    0.000000
    70  O1    c     0.764275    0.788464    0.028735    0.000000
    71  O1    c     0.264418    0.237639    0.978655    0.000000
    72  O1    c     0.234809    0.783569    0.968032    0.000000
    73  O1    s     0.119260    0.149301    0.384590    0.000000
    74  O1    s     0.378712    0.885528    0.376486    0.000000
    75  O3    s     0.884999    0.141083    0.643223    0.000000
    76  O3    s     0.610740    0.872951    0.636647    0.000000
    77  O3    s     0.906903    0.824898    0.635416    0.000000
    78  O3    s     0.593193    0.191364    0.640710    0.000000
    79  O1    s     0.091727    0.808889    0.378108    0.000000
    80  O1    s     0.411093    0.221960    0.379529    0.000000
    81  O3    s     0.975886    0.017887    0.470198    0.000000
    82  O3    s     0.483294    0.007159    0.562495    0.000000
    83  O1    s     0.020431    0.025994    0.215819    0.000000
    84  O1    s     0.521272    0.000725    0.306873    0.000000
    85  O3    s     0.015418    0.016587    0.701534    0.000000
    86  O3    s     0.522745    0.004210    0.797148    0.000000
    87  O1    s     0.589136    0.221066    0.125604    0.000000
    88  O1    s     0.909501    0.813979    0.119655    0.000000
    89  O1    s     0.409538    0.214709    0.892487    0.000000
    90  O1    s     0.087620    0.802758    0.885695    0.000000
    91  O1    s     0.380212    0.875516    0.883364    0.000000
    92  O1    s     0.123139    0.138573    0.883974    0.000000
    93  O1    s     0.624857    0.884863    0.123499    0.000000
    94  O1    s     0.881196    0.154516    0.128567    0.000000
    95  O1    s     0.482303    0.991969    0.052608    0.000000
    96  O1    s     0.982188    0.034825    0.958618    0.000000
    97  O1    s     0.158230    0.487631    0.338733    0.000000
    98  O1    s     0.341018    0.541431    0.339096    0.000000
    99  O1    s     0.844000    0.490362    0.670584    0.000000
   100  O1    s     0.653546    0.527872    0.668899    0.000000
   101  O1    s     0.263316    0.249784    0.294951    0.000000
   102  O1    s     0.235959    0.777542    0.286899    0.000000
   103  O1    s     0.739653    0.251482    0.722092    0.000000
   104  O1    s     0.758318    0.768013    0.714847    0.000000
   105  O1    s     0.142594    0.271104    0.134017    0.000000
   106  O1    s     0.356072    0.748766    0.129795    0.000000
   107  O1    s     0.857573    0.290280    0.883777    0.000000
   108  O1    s     0.640362    0.736510    0.878210    0.000000
   109  O1    s     0.876642    0.688357    0.875981    0.000000
   110  O1    s     0.624334    0.338827    0.880704    0.000000
   111  O1    s     0.121289    0.683896    0.131000    0.000000
   112  O1    s     0.377781    0.342316    0.134872    0.000000
   113  O1    s     0.659040    0.539103    0.088582    0.000000
   114  O1    s     0.841650    0.494401    0.090145    0.000000
   115  O1    s     0.341490    0.535792    0.924022    0.000000
   116  O1    s     0.156837    0.482730    0.927033    0.000000
   117  O1    s     0.737266    0.251186    0.043682    0.000000
   118  O1    s     0.763546    0.777734    0.029658    0.000000
   119  O1    s     0.263664    0.248067    0.978338    0.000000
   120  O1    s     0.235552    0.773159    0.968587    0.000000
--------------------------------------------------------------------------------

  Final Cartesian lattice vectors (Angstroms) :

       17.795103   -0.025120   -0.038009
       -0.011628    7.921721    0.000951
       -0.022566    0.004149   10.266577


  Final cell parameters and derivatives :

--------------------------------------------------------------------------------
       a           17.795161 Angstrom     dE/de1(xx)    -0.000837 eV/strain
       b            7.921729 Angstrom     dE/de2(yy)    -0.004294 eV/strain
       c           10.266603 Angstrom     dE/de3(zz)     0.007820 eV/strain
       alpha       89.969782 Degrees      dE/de4(yz)    -0.000101 eV/strain
       beta        90.248351 Degrees      dE/de5(xz)    -0.000126 eV/strain
       gamma       90.164997 Degrees      dE/de6(xy)    -0.000742 eV/strain
--------------------------------------------------------------------------------

  Primitive cell volume =          1447.247325 Angs**3

  Density of cell =      2.778534 g/cm**3

  Non-primitive cell volume =          1447.247325 Angs**3


  Final internal derivatives :

--------------------------------------------------------------------------------
   No.  Atomic          a             b             c           Radius
        Label          (eV)          (eV)          (eV)        (eV/Angs)
--------------------------------------------------------------------------------
      1 Ge    c       0.000000      0.000000      0.000000      0.000000
      2 Ge    c      -0.003218      0.000129     -0.001108      0.000000
      3 Ge    c       0.002500      0.000633     -0.001333      0.000000
      4 Ge    c      -0.002968     -0.000659      0.000502      0.000000
      5 Ge    c      -0.003300      0.000120     -0.000519      0.000000
      6 Ge    c       0.003048     -0.000158      0.001032      0.000000
      7 Ge    c       0.000633      0.000424      0.001510      0.000000
      8 Ge    c      -0.000725     -0.000373      0.001689      0.000000
      9 Ge    c      -0.001140      0.000547     -0.001660      0.000000
     10 Ge    c       0.001020     -0.000575     -0.001621      0.000000
     11 Ge    c      -0.000881     -0.000350     -0.001649      0.000000
     12 Ge    c       0.000780      0.000217     -0.001712      0.000000
     13 Ge    c       0.001791     -0.000373      0.001413      0.000000
     14 Ge    c      -0.001796      0.000400      0.001509      0.000000
     15 Ge    c       0.000847      0.000397      0.001683      0.000000
     16 Ge    c      -0.000751     -0.000261      0.001735      0.000000
     17 Ge    c      -0.001659      0.000325     -0.001485      0.000000
     18 Ge    c       0.001693     -0.000419     -0.001539      0.000000
     19 Ge    c      -0.000497     -0.000375     -0.001551      0.000000
     20 Ge    c       0.000713      0.000421     -0.001637      0.000000
     21 Ge    c       0.001214     -0.000591      0.001492      0.000000
     22 Ge    c      -0.001052      0.000586      0.001479      0.000000
     23 Si    c      -0.002777     -0.000558      0.001320      0.000000
     24 Si    c       0.003155      0.000516     -0.000538      0.000000
     25 O1    c      -0.002190     -0.000873     -0.000452      0.000000
     26 O1    c       0.001857      0.000635     -0.000069      0.000000
     27 O3    c       0.000887     -0.000351     -0.000073      0.000000
     28 O3    c      -0.001008      0.000412      0.000283      0.000000
     29 O3    c       0.000869      0.001056     -0.000010      0.000000
     30 O3    c      -0.000972     -0.000994      0.000598      0.000000
     31 O1    c      -0.001807      0.001166      0.000001      0.000000
     32 O1    c       0.001506     -0.001057      0.000266      0.000000
     33 O3    c       0.000605      0.000290     -0.001979      0.000000
     34 O3    c       0.000596     -0.000282      0.001728      0.000000
     35 O1    c      -0.000294      0.000471     -0.002155      0.000000
     36 O1    c      -0.000471     -0.000457      0.002092      0.000000
     37 O3    c      -0.000870      0.000283     -0.001673      0.000000
     38 O3    c      -0.000206     -0.000264      0.001889      0.000000
     39 O1    c      -0.000942     -0.001277      0.000096      0.000000
     40 O1    c       0.001152      0.001298     -0.000568      0.000000
     41 O1    c       0.001715     -0.001120      0.000104      0.000000
     42 O1    c      -0.001505      0.001057     -0.000304      0.000000
     43 O1    c       0.002043      0.000741      0.000582      0.000000
     44 O1    c      -0.002017     -0.000673      0.000008      0.000000
     45 O1    c      -0.001207      0.000497      0.000187      0.000000
     46 O1    c       0.001337     -0.000511     -0.000214      0.000000
     47 O1    c       0.000741     -0.000552      0.002110      0.000000
     48 O1    c       0.000060      0.000562     -0.001847      0.000000
     49 O1    c      -0.000151     -0.000015     -0.001120      0.000000
     50 O1    c       0.000196     -0.000069     -0.001122      0.000000
     51 O1    c       0.000007      0.000076      0.001256      0.000000
     52 O1    c       0.000007      0.000056      0.001278      0.000000
     53 O1    c       0.000974      0.000398     -0.000178      0.000000
     54 O1    c      -0.001026     -0.000406     -0.000095      0.000000
     55 O1    c       0.000562      0.000187      0.000178      0.000000
     56 O1    c      -0.000566     -0.000177      0.000224      0.000000
     57 O1    c      -0.002990     -0.000188      0.000059      0.000000
     58 O1    c       0.002973      0.000116     -0.000144      0.000000
     59 O1    c       0.003006      0.000022      0.000166      0.000000
     60 O1    c      -0.003077      0.000026      0.000321      0.000000
     61 O1    c       0.003127     -0.000112     -0.000096      0.000000
     62 O1    c      -0.003007      0.000175      0.000106      0.000000
     63 O1    c      -0.003185     -0.000080      0.000074      0.000000
     64 O1    c       0.003197      0.000106     -0.000081      0.000000
     65 O1    c      -0.000131     -0.000069     -0.001262      0.000000
     66 O1    c       0.000118     -0.000118     -0.001276      0.000000
     67 O1    c       0.000136      0.000047      0.001115      0.000000
     68 O1    c      -0.000167      0.000067      0.001107      0.000000
     69 O1    c       0.000578      0.000207     -0.000154      0.000000
     70 O1    c      -0.000500     -0.000194     -0.000033      0.000000
     71 O1    c       0.001005      0.000395      0.000077      0.000000
     72 O1    c      -0.000963     -0.000383      0.000189      0.000000
     73 O1    s       0.001468      0.000474      0.000916      0.000000
     74 O1    s      -0.001091     -0.000277      0.000394      0.000000
     75 O3    s      -0.000462      0.000084     -0.000217      0.000000
     76 O3    s       0.000703     -0.000148     -0.000842      0.000000
     77 O3    s      -0.000362     -0.000373     -0.000229      0.000000
     78 O3    s       0.000498      0.000410     -0.000907      0.000000
     79 O1    s       0.001241     -0.000597      0.000577      0.000000
     80 O1    s      -0.001033      0.000450      0.000152      0.000000
     81 O3    s      -0.000674     -0.000235      0.000879      0.000000
     82 O3    s      -0.000534      0.000277     -0.000907      0.000000
     83 O1    s       0.000142     -0.000425      0.001283      0.000000
     84 O1    s       0.000550      0.000381     -0.001033      0.000000
     85 O3    s       0.000780     -0.000301      0.000673      0.000000
     86 O3    s       0.000114      0.000204     -0.000903      0.000000
     87 O1    s       0.000568      0.000633      0.000241      0.000000
     88 O1    s      -0.000743     -0.000698      0.000914      0.000000
     89 O1    s      -0.001253      0.000556     -0.000634      0.000000
     90 O1    s       0.001129     -0.000457     -0.000125      0.000000
     91 O1    s      -0.001448     -0.000390     -0.001005      0.000000
     92 O1    s       0.001265      0.000319     -0.000360      0.000000
     93 O1    s       0.000810     -0.000257      0.000188      0.000000
     94 O1    s      -0.001077      0.000277      0.000797      0.000000
     95 O1    s      -0.000498      0.000506     -0.001067      0.000000
     96 O1    s      -0.000073     -0.000447      0.000968      0.000000
     97 O1    s       0.000449      0.000090      0.001167      0.000000
     98 O1    s      -0.000497     -0.000032      0.001202      0.000000
     99 O1    s      -0.000360     -0.000040     -0.001327      0.000000
    100 O1    s       0.000364     -0.000043     -0.001369      0.000000
    101 O1    s      -0.000521     -0.000023      0.000347      0.000000
    102 O1    s       0.000601      0.000031      0.000260      0.000000
    103 O1    s      -0.000168      0.000084     -0.000365      0.000000
    104 O1    s       0.000236     -0.000094     -0.000418      0.000000
    105 O1    s       0.001656      0.000055      0.000013      0.000000
    106 O1    s      -0.001617     -0.000012      0.000077      0.000000
    107 O1    s      -0.001709     -0.000081     -0.000121      0.000000
    108 O1    s       0.001767      0.000043     -0.000219      0.000000
    109 O1    s      -0.001840      0.000058      0.000043      0.000000
    110 O1    s       0.001714     -0.000121     -0.000097      0.000000
    111 O1    s       0.002022      0.000113      0.000003      0.000000
    112 O1    s      -0.002037     -0.000113      0.000063      0.000000
    113 O1    s       0.000460     -0.000004      0.001294      0.000000
    114 O1    s      -0.000458      0.000134      0.001323      0.000000
    115 O1    s      -0.000468     -0.000111     -0.001184      0.000000
    116 O1    s       0.000518      0.000036     -0.001162      0.000000
    117 O1    s      -0.000182      0.000094      0.000326      0.000000
    118 O1    s       0.000067     -0.000105      0.000194      0.000000
    119 O1    s      -0.000573     -0.000026     -0.000235      0.000000
    120 O1    s       0.000523      0.000018     -0.000349      0.000000
--------------------------------------------------------------------------------
  Maximum abs         0.003300      0.001298      0.002155      0.000000
--------------------------------------------------------------------------------


  Born effective charge tensors : 

-------------------------------------------------------------------------------
  Atom             x           y             z
-------------------------------------------------------------------------------
    1 Ge    x       4.0639     -0.1294      0.0877
            y       0.1528      3.9140     -0.0025
            z      -0.7712      0.0289      4.1841
-------------------------------------------------------------------------------
    2 Ge    x       4.1829     -0.1744      0.4131
            y       0.1698      3.9108     -0.0043
            z       0.1970     -0.0652      4.3646
-------------------------------------------------------------------------------
    3 Ge    x       4.2455      0.1652     -0.3338
            y      -0.1963      3.9170     -0.0015
            z      -0.3073     -0.1031      4.0497
-------------------------------------------------------------------------------
    4 Ge    x       4.2461      0.1234      0.0071
            y      -0.1519      3.9262      0.0422
            z       0.6778      0.0387      3.7843
-------------------------------------------------------------------------------
    5 Ge    x       4.1954     -0.1269      0.0709
            y       0.1624      3.9296      0.0159
            z      -0.6329      0.0156      3.6697
-------------------------------------------------------------------------------
    6 Ge    x       4.2716     -0.1736      0.3411
            y       0.1846      3.9249      0.0086
            z       0.2903     -0.0486      3.8673
-------------------------------------------------------------------------------
    7 Ge    x       4.0284      0.2320     -0.3052
            y       0.3009      4.1810     -0.1112
            z      -0.0311     -0.1557      3.6126
-------------------------------------------------------------------------------
    8 Ge    x       3.9992      0.2343      0.3032
            y       0.2774      4.2157      0.0982
            z       0.0258      0.2187      3.6650
-------------------------------------------------------------------------------
    9 Ge    x       3.9816     -0.1966     -0.2291
            y      -0.2459      4.2253      0.0305
            z       0.0125      0.1638      3.5813
-------------------------------------------------------------------------------
   10 Ge    x       3.9999     -0.1993      0.2355
            y      -0.2711      4.1954     -0.0341
            z      -0.0404     -0.0891      3.4913
-------------------------------------------------------------------------------
   11 Ge    x       3.9614      0.0752     -0.1524
            y       0.3802      4.1987     -0.0735
            z       0.0236     -0.1568      3.5549
-------------------------------------------------------------------------------
   12 Ge    x       3.9265      0.0895      0.1679
            y       0.3452      4.2123      0.0539
            z      -0.0420      0.1438      3.5143
-------------------------------------------------------------------------------
   13 Ge    x       3.9441     -0.1128     -0.2445
            y      -0.4177      4.1904      0.0932
            z      -0.0639      0.1769      3.6339
-------------------------------------------------------------------------------
   14 Ge    x       3.9927     -0.0977      0.2267
            y      -0.4467      4.1723     -0.0990
            z       0.0667     -0.1905      3.6435
-------------------------------------------------------------------------------
   15 Ge    x       4.0388      0.1014     -0.2772
            y       0.4534      4.1481     -0.0642
            z      -0.1083     -0.1654      3.5408
-------------------------------------------------------------------------------
   16 Ge    x       4.0123      0.1276      0.3051
            y       0.4358      4.1487      0.0243
            z       0.1031      0.1481      3.5117
-------------------------------------------------------------------------------
   17 Ge    x       4.0407     -0.1247     -0.3006
            y      -0.4286      4.1737      0.0660
            z      -0.0988      0.1624      3.4996
-------------------------------------------------------------------------------
   18 Ge    x       4.0683     -0.1078      0.2859
            y      -0.4423      4.1719     -0.1034
            z       0.1077     -0.1772      3.5441
-------------------------------------------------------------------------------
   19 Ge    x       4.0951      0.2300     -0.3415
            y       0.2907      4.1815     -0.0995
            z      -0.0505     -0.1567      3.5029
-------------------------------------------------------------------------------
   20 Ge    x       4.0384      0.2251      0.3642
            y       0.2466      4.2165      0.1116
            z       0.0439      0.1996      3.5905
-------------------------------------------------------------------------------
   21 Ge    x       3.9942     -0.2051     -0.3356
            y      -0.2477      4.2253      0.0997
            z      -0.0179      0.2345      3.5656
-------------------------------------------------------------------------------
   22 Ge    x       4.0575     -0.2033      0.3079
            y      -0.2887      4.1831     -0.1007
            z       0.0379     -0.1911      3.5009
-------------------------------------------------------------------------------
   23 Si    x       3.9163      0.1158     -0.4219
            y      -0.1563      3.6982      0.0166
            z      -0.2158     -0.0816      4.1218
-------------------------------------------------------------------------------
   24 Si    x       3.8546      0.0767     -0.1391
            y      -0.1266      3.6704      0.0126
            z       0.7444      0.0285      3.8553
-------------------------------------------------------------------------------
   25 O1    x      -2.1724     -0.9264      0.3392
            y      -0.9817     -2.3013      0.3711
            z       0.4098      0.3795     -1.6503
-------------------------------------------------------------------------------
   26 O1    x      -2.2079     -0.9539     -0.5819
            y      -0.9856     -2.3471     -0.5549
            z      -0.5234     -0.5617     -1.7051
-------------------------------------------------------------------------------
   27 O3    x      -2.0576      0.9307      0.4964
            y       0.9582     -2.3053     -0.4907
            z       0.4412     -0.4868     -1.5258
-------------------------------------------------------------------------------
   28 O3    x      -2.0207      0.9089     -0.1979
            y       0.9516     -2.2698      0.2267
            z      -0.2791      0.2381     -1.4490
-------------------------------------------------------------------------------
   29 O3    x      -1.8356     -0.8473      0.4269
            y      -0.8055     -2.4552      0.4514
            z       0.3789      0.4618     -1.5156
-------------------------------------------------------------------------------
   30 O3    x      -1.8271     -0.8605     -0.2435
            y      -0.8173     -2.4269     -0.2451
            z      -0.3176     -0.2656     -1.4528
-------------------------------------------------------------------------------
   31 O1    x      -1.9560      0.8942      0.3979
            y       0.8368     -2.4876     -0.3748
            z       0.4665     -0.4157     -1.6401
-------------------------------------------------------------------------------
   32 O1    x      -1.9894      0.8873     -0.5364
            y       0.8264     -2.4934      0.5198
            z      -0.4877      0.5424     -1.6898
-------------------------------------------------------------------------------
   33 O3    x      -1.9270      0.0045      0.8650
            y       0.0231     -1.1881      0.0244
            z       1.0936      0.0400     -2.9524
-------------------------------------------------------------------------------
   34 O3    x      -2.0741      0.0038     -0.9093
            y      -0.0293     -1.1906      0.0122
            z      -1.1487      0.0392     -2.7794
-------------------------------------------------------------------------------
   35 O1    x      -2.1261     -0.0300     -0.8540
            y      -0.0403     -1.3178      0.0179
            z      -0.8480      0.0239     -2.6970
-------------------------------------------------------------------------------
   36 O1    x      -2.0746      0.0369      0.8299
            y       0.0618     -1.2753     -0.0082
            z       0.8844      0.0356     -2.8236
-------------------------------------------------------------------------------
   37 O3    x      -2.0959     -0.0171     -0.7985
            y      -0.0454     -1.2080     -0.0097
            z      -0.8148      0.0280     -2.4933
-------------------------------------------------------------------------------
   38 O3    x      -1.9482      0.0318      0.7601
            y       0.0317     -1.2458      0.0024
            z       0.7592     -0.0031     -2.5266
-------------------------------------------------------------------------------
   39 O1    x      -2.0158     -0.8396      0.5237
            y      -0.7867     -2.4888      0.5134
            z       0.4711      0.5108     -1.5796
-------------------------------------------------------------------------------
   40 O1    x      -2.0116     -0.8711     -0.3862
            y      -0.8263     -2.4829     -0.3426
            z      -0.4220     -0.3734     -1.5081
-------------------------------------------------------------------------------
   41 O1    x      -2.0410      0.9011      0.3992
            y       0.8397     -2.4983     -0.3494
            z       0.4413     -0.3887     -1.4939
-------------------------------------------------------------------------------
   42 O1    x      -2.0412      0.8764     -0.5540
            y       0.7999     -2.4996      0.5373
            z      -0.4905      0.5368     -1.5917
-------------------------------------------------------------------------------
   43 O1    x      -2.2440     -0.9412      0.3243
            y      -0.9896     -2.2994      0.3355
            z       0.3782      0.3552     -1.5279
-------------------------------------------------------------------------------
   44 O1    x      -2.2393     -0.9458     -0.5888
            y      -0.9573     -2.3268     -0.5642
            z      -0.5026     -0.5414     -1.6349
-------------------------------------------------------------------------------
   45 O1    x      -2.1948      0.9318      0.5590
            y       0.9526     -2.3488     -0.5612
            z       0.4872     -0.5447     -1.6177
-------------------------------------------------------------------------------
   46 O1    x      -2.2082      0.9324     -0.3019
            y       0.9818     -2.3073      0.3219
            z      -0.3581      0.3496     -1.5299
-------------------------------------------------------------------------------
   47 O1    x      -2.1460     -0.0599     -0.7507
            y      -0.0670     -1.3452     -0.0050
            z      -0.5374      0.0269     -2.3593
-------------------------------------------------------------------------------
   48 O1    x      -2.1086      0.0796      0.7467
            y       0.0765     -1.3483     -0.0278
            z       0.5514     -0.0034     -2.3696
-------------------------------------------------------------------------------
   49 O1    x      -1.3342      0.1557      0.0714
            y       0.2268     -3.2182      0.0308
            z       0.0289      0.0178     -1.3709
-------------------------------------------------------------------------------
   50 O1    x      -1.3393      0.1531     -0.0724
            y       0.2303     -3.2132      0.0186
            z      -0.0281      0.0096     -1.3877
-------------------------------------------------------------------------------
   51 O1    x      -1.3256     -0.0998      0.0867
            y      -0.1644     -3.2860      0.0309
            z       0.0400      0.0105     -1.3936
-------------------------------------------------------------------------------
   52 O1    x      -1.3212     -0.1024     -0.0914
            y      -0.1564     -3.2729      0.0277
            z      -0.0379      0.0205     -1.3855
-------------------------------------------------------------------------------
   53 O1    x      -3.0858     -0.2137      0.0044
            y      -0.1411     -1.5484      0.0221
            z      -0.0131      0.0492     -1.2282
-------------------------------------------------------------------------------
   54 O1    x      -3.0896     -0.2080      0.0084
            y      -0.1413     -1.5560     -0.0093
            z       0.0226     -0.0436     -1.2286
-------------------------------------------------------------------------------
   55 O1    x      -3.1895      0.1567     -0.0047
            y       0.0964     -1.5243     -0.0233
            z      -0.0098     -0.0552     -1.2151
-------------------------------------------------------------------------------
   56 O1    x      -3.1863      0.1552      0.0005
            y       0.0904     -1.5127      0.0323
            z       0.0320      0.0532     -1.2172
-------------------------------------------------------------------------------
   57 O1    x      -1.4782     -0.0989     -0.0016
            y      -0.1180     -1.4263      0.0007
            z      -0.0036     -0.0080     -2.7583
-------------------------------------------------------------------------------
   58 O1    x      -1.4711     -0.0923      0.0431
            y      -0.1094     -1.4273     -0.0072
            z       0.0394     -0.0085     -2.7645
-------------------------------------------------------------------------------
   59 O1    x      -1.4542      0.0826     -0.0007
            y       0.0996     -1.4355     -0.0357
            z      -0.0057     -0.0010     -2.7735
-------------------------------------------------------------------------------
   60 O1    x      -1.4643      0.0839     -0.0468
            y       0.1055     -1.4308      0.0127
            z      -0.0405     -0.0287     -2.7377
-------------------------------------------------------------------------------
   61 O1    x      -1.4885     -0.0590     -0.0177
            y      -0.1206     -1.4164      0.0284
            z      -0.0593      0.0125     -2.7608
-------------------------------------------------------------------------------
   62 O1    x      -1.4691     -0.0551      0.0222
            y      -0.1169     -1.4215     -0.0553
            z       0.0302     -0.0545     -2.7637
-------------------------------------------------------------------------------
   63 O1    x      -1.4913      0.0548     -0.0473
            y       0.1186     -1.4089     -0.0078
            z      -0.0295     -0.0139     -2.7688
-------------------------------------------------------------------------------
   64 O1    x      -1.4921      0.0523      0.0312
            y       0.1165     -1.4090     -0.0130
            z       0.0471     -0.0133     -2.7647
-------------------------------------------------------------------------------
   65 O1    x      -1.3617     -0.1447      0.0832
            y      -0.2240     -3.1937      0.0208
            z       0.0352      0.0249     -1.3620
-------------------------------------------------------------------------------
   66 O1    x      -1.3602     -0.1511     -0.0768
            y      -0.2248     -3.1783      0.0548
            z      -0.0328      0.0174     -1.3562
-------------------------------------------------------------------------------
   67 O1    x      -1.3686      0.1629      0.0855
            y       0.2382     -3.1934      0.0429
            z       0.0363      0.0200     -1.3417
-------------------------------------------------------------------------------
   68 O1    x      -1.3736      0.1610     -0.0902
            y       0.2423     -3.2269      0.0112
            z      -0.0404      0.0091     -1.3404
-------------------------------------------------------------------------------
   69 O1    x      -3.0930      0.1749     -0.0054
            y       0.1197     -1.5402      0.0156
            z       0.0064      0.0493     -1.2028
-------------------------------------------------------------------------------
   70 O1    x      -3.0990      0.1812      0.0063
            y       0.1338     -1.5433      0.0059
            z       0.0002     -0.0369     -1.2040
-------------------------------------------------------------------------------
   71 O1    x      -3.1297     -0.2163     -0.0003
            y      -0.1531     -1.5492     -0.0087
            z       0.0145     -0.0402     -1.2051
-------------------------------------------------------------------------------
   72 O1    x      -3.1265     -0.2040      0.0119
            y      -0.1361     -1.5415      0.0248
            z      -0.0155      0.0479     -1.2055
-------------------------------------------------------------------------------




  Elastic Constant Matrix: (Units=GPa)

-------------------------------------------------------------------------------
  Indices      1         2         3         4         5         6    
-------------------------------------------------------------------------------
       1     40.0487   19.3765   14.8868   -0.2788   -0.2979   -0.8305
       2     19.3765   34.1651   15.5466    0.2657    0.3450    0.0438
       3     14.8868   15.5466   15.1543   -0.0053   -0.6903   -0.4735
       4     -0.2788    0.2657   -0.0053    8.0870   -0.1971   -0.0268
       5     -0.2979    0.3450   -0.6903   -0.1971   17.0414   -1.8795
       6     -0.8305    0.0438   -0.4735   -0.0268   -1.8795   16.6297
-------------------------------------------------------------------------------


  Elastic Compliance Matrix: (Units=1/GPa)

-------------------------------------------------------------------------------
  Indices      1         2         3         4         5         6    
-------------------------------------------------------------------------------
       1    0.040864 -0.009256 -0.030619  0.001692 -0.000189  0.001175
       2   -0.009256  0.057299 -0.049933 -0.002331 -0.003642 -0.002450
       3   -0.030619 -0.049933  0.147717  0.000860  0.006864  0.003586
       4    0.001692 -0.002331  0.000860  0.123832  0.001599  0.000495
       5   -0.000189 -0.003642  0.006864  0.001599  0.059815  0.006958
       6    0.001175 -0.002450  0.003586  0.000495  0.006958  0.061088
-------------------------------------------------------------------------------

  Mechanical properties :

-------------------------------------------------------------------------------
  Convention :                    Reuss         Voigt         Hill
-------------------------------------------------------------------------------
  Bulk  Modulus (GPa)     =      15.09098      20.99866      18.04482
  Shear Modulus (GPa)     =       7.22212      10.98883       9.10547
-------------------------------------------------------------------------------
  Velocity S-wave (km/s)  =       1.61222       1.98869       1.81027
  Velocity P-wave (km/s)  =       2.98278       3.58199       3.29603
-------------------------------------------------------------------------------
  Compressibility (1/GPa) =    0.06626474
-------------------------------------------------------------------------------
  Stress axis :                     x             y             z
-------------------------------------------------------------------------------
  Youngs Moduli (GPa)     =      24.47147      17.45236       6.76969
-------------------------------------------------------------------------------
  Poissons Ratio (x)      =                     0.16153       0.20728
  Poissons Ratio (y)      =       0.22650                     0.33803
  Poissons Ratio (z)      =       0.74929       0.87145
-------------------------------------------------------------------------------


  Piezoelectric Strain Matrix: (Units=C/m**2)

-------------------------------------------------------------------------------
  Indices      1         2         3         4         5         6    
-------------------------------------------------------------------------------
       x     0.24641   0.51407   0.14043   0.04224  -0.08538  -0.03722
       y    -0.16181  -0.04255  -0.08576  -0.04036   0.46379   0.11904
       z    -0.22116  -0.13165  -0.17636   0.00946  -0.38169  -0.03528
-------------------------------------------------------------------------------


  Piezoelectric Stress Matrix: (Units=10**-11 C/N)

-------------------------------------------------------------------------------
  Indices      1         2         3         4         5         6    
-------------------------------------------------------------------------------
       x     0.10553   2.04666  -1.31531   0.44154  -0.62531  -0.33135
       y    -0.36088   0.14552  -0.20132  -0.44461   2.81022   1.00859
       z    -0.23722   0.47645  -1.54450   0.03240  -2.37502  -0.53757
-------------------------------------------------------------------------------


  Static dielectric constant tensor : 

-------------------------------------------------------------------------------
              x         y         z
-------------------------------------------------------------------------------
       x     5.36515   0.01116   0.00276
       y     0.01116   6.28477   0.05822
       z     0.00276   0.05822   4.03877
--------------------------------------------------------------------------------

  High frequency dielectric constant tensor : 

-------------------------------------------------------------------------------
              x         y         z
-------------------------------------------------------------------------------
       x     1.52815  -0.00026  -0.00024
       y    -0.00026   1.53033  -0.00007
       z    -0.00024  -0.00007   1.49325
-------------------------------------------------------------------------------

  Static refractive indices : 

-------------------------------------------------------------------------------
    1 =    2.00929      2 =    2.31625      3 =    2.50727
-------------------------------------------------------------------------------

  High frequency refractive indices : 

-------------------------------------------------------------------------------
    1 =    1.22199      2 =    1.23617      3 =    1.23708
-------------------------------------------------------------------------------


  Time to end of optimisation =      12.5838 seconds


  Peak dynamic memory used =       5.01 MB 


  Timing analysis for GULP :

--------------------------------------------------------------------------------
  Task / Subroutine                                          Time (Seconds)
--------------------------------------------------------------------------------
  Calculation of reciprocal space energy and derivatives          0.8505
  Calculation of real space energy and derivatives                8.2698
  Calculation of three-body energy and derivatives                0.0604
  Calculation and manipulation of Hessian matrix                  4.2036
  Calculation of matrix inversion                                 0.0387
  Global summation overhead                                       0.0001
--------------------------------------------------------------------------------
  Total CPU time                                                 12.5838
--------------------------------------------------------------------------------


  Dump file written as c00046.vasp.grs
  CIF file written as c00046.vasp.cif


  Job Finished at 18:41.04 30th October    2025                               

