********************************************************************************
*                       GENERAL UTILITY LATTICE PROGRAM                        *
*                                 Julian Gale                                  *
*                       Curtin Institute for Computation                       *
*                    School of Molecular and Life Sciences                     *
*                    Curtin University, Western Australia                      *
********************************************************************************
* Version = 6.1.2 * Last modified =   3rd November 2022                        *
********************************************************************************
*  optimise     - perform optimisation run                                     *
*  conp         - constant pressure calculation                                *
*  property     - calculate properties for final geometry                      *
********************************************************************************

  Job Started  at 18:35.08 30th October    2025                               

  Number of CPUs =     1


  Total number of configurations input =      1

********************************************************************************
*  Input for Configuration =   1 : c00010.vasp                                 *
********************************************************************************

  Formula = Ge22Si2O48                                                  

  Number of irreducible atoms/shells =     120


  Total number atoms/shells =     120

  Dimensionality = 3               :  Bulk   



  Cartesian lattice vectors (Angstroms) :

       17.182800    0.000000    0.000000
        0.000000    7.513760    0.000000
        0.000000    0.000000   10.447700

  Cell parameters (Angstroms/Degrees):

  a =      17.1828    alpha =  90.0000
  b =       7.5138    beta  =  90.0000
  c =      10.4477    gamma =  90.0000

  Initial cell volume =        1348.875752 Angs**3

  Temperature of configuration =   0.00     K 

  Pressure of configuration =         0.000 GPa 

  Fractional coordinates of asymmetric unit :

--------------------------------------------------------------------------------
   No.  Atomic       x           y          z         Charge      Occupancy
        Label      (Frac)      (Frac)     (Frac)        (e)         (Frac)  
--------------------------------------------------------------------------------
      1 Ge    c    0.052090    0.000000    0.372270     4.00000    1.000000    
      2 Ge    c    0.447910 *  0.000000 *  0.372270 *   4.00000    1.000000    
      3 Ge    c    0.947910 *  0.000000 *  0.627730 *   4.00000    1.000000    
      4 Ge    c    0.552090 *  0.000000 *  0.627730 *   4.00000    1.000000    
      5 Ge    c    0.556730 *  0.000000 *  0.122130 *   4.00000    1.000000    
      6 Ge    c    0.943270 *  0.000000 *  0.122130 *   4.00000    1.000000    
      7 Ge    c    0.443270 *  0.000000 *  0.877870 *   4.00000    1.000000    
      8 Ge    c    0.056730 *  0.000000 *  0.877870 *   4.00000    1.000000    
      9 Ge    c    0.160190 *  0.293910 *  0.273440 *   4.00000    1.000000    
     10 Ge    c    0.339810 *  0.706090 *  0.273440 *   4.00000    1.000000    
     11 Ge    c    0.839810 *  0.293910 *  0.726560 *   4.00000    1.000000    
     12 Ge    c    0.660190 *  0.706090 *  0.726560 *   4.00000    1.000000    
     13 Ge    c    0.839810 *  0.706090 *  0.726560 *   4.00000    1.000000    
     14 Ge    c    0.660190 *  0.293910 *  0.726560 *   4.00000    1.000000    
     15 Ge    c    0.160190 *  0.706090 *  0.273440 *   4.00000    1.000000    
     16 Ge    c    0.660660 *  0.294090 *  0.017440 *   4.00000    1.000000    
     17 Ge    c    0.839340 *  0.705910 *  0.017440 *   4.00000    1.000000    
     18 Ge    c    0.339340 *  0.294090 *  0.982560 *   4.00000    1.000000    
     19 Ge    c    0.160660 *  0.705910 *  0.982560 *   4.00000    1.000000    
     20 Ge    c    0.339340 *  0.705910 *  0.982560 *   4.00000    1.000000    
     21 Ge    c    0.660660 *  0.705910 *  0.017440 *   4.00000    1.000000    
     22 Ge    c    0.839340 *  0.294090 *  0.017440 *   4.00000    1.000000    
     23 Si    c    0.339810 *  0.293910 *  0.273440 *   4.00000    1.000000    
     24 Si    c    0.160660 *  0.294090 *  0.982560 *   4.00000    1.000000    
     25 O1    c    0.106570 *  0.174340 *  0.366200 *   1.73396    1.000000    
     26 O1    c    0.393430 *  0.825660 *  0.366200 *   1.73396    1.000000    
     27 O1    c    0.893430 *  0.174340 *  0.633800 *   1.73396    1.000000    
     28 O1    c    0.606570 *  0.825660 *  0.633800 *   1.73396    1.000000    
     29 O1    c    0.893430 *  0.825660 *  0.633800 *   1.73396    1.000000    
     30 O1    c    0.606570 *  0.174340 *  0.633800 *   1.73396    1.000000    
     31 O1    c    0.106570 *  0.825660 *  0.366200 *   1.73396    1.000000    
     32 O3    c    0.393430 *  0.174340 *  0.366200 *   1.33043    1.000000    
     33 O1    c    0.000000 *  0.000000 *  0.500000 *   1.73396    1.000000    
     34 O1    c    0.500000 *  0.000000 *  0.500000 *   1.73396    1.000000    
     35 O1    c    0.994520 *  0.000000 *  0.250840 *   1.73396    1.000000    
     36 O1    c    0.505480 *  0.000000 *  0.250840 *   1.73396    1.000000    
     37 O1    c    0.005480 *  0.000000 *  0.749160 *   1.73396    1.000000    
     38 O1    c    0.494520 *  0.000000 *  0.749160 *   1.73396    1.000000    
     39 O1    c    0.610230 *  0.175520 *  0.115390 *   1.73396    1.000000    
     40 O1    c    0.889770 *  0.824480 *  0.115390 *   1.73396    1.000000    
     41 O1    c    0.389770 *  0.175520 *  0.884610 *   1.73396    1.000000    
     42 O1    c    0.110230 *  0.824480 *  0.884610 *   1.73396    1.000000    
     43 O1    c    0.389770 *  0.824480 *  0.884610 *   1.73396    1.000000    
     44 O3    c    0.110230 *  0.175520 *  0.884610 *   1.33043    1.000000    
     45 O1    c    0.610230 *  0.824480 *  0.115390 *   1.73396    1.000000    
     46 O1    c    0.889770 *  0.175520 *  0.115390 *   1.73396    1.000000    
     47 O1    c    0.500000 *  0.000000 *  0.000000 *   1.73396    1.000000    
     48 O1    c    0.000000 *  0.000000 *  0.000000 *   1.73396    1.000000    
     49 O1    c    0.151750 *  0.500000 *  0.313330 *   1.73396    1.000000    
     50 O3    c    0.348250 *  0.500000 *  0.313330 *   1.33043    1.000000    
     51 O1    c    0.848250 *  0.500000 *  0.686670 *   1.73396    1.000000    
     52 O1    c    0.651750 *  0.500000 *  0.686670 *   1.73396    1.000000    
     53 O3    c    0.250000 *  0.234950 *  0.285720 *   1.33043    1.000000    
     54 O1    c    0.250000 *  0.765050 *  0.285720 *   1.73396    1.000000    
     55 O1    c    0.750000 *  0.234950 *  0.714280 *   1.73396    1.000000    
     56 O1    c    0.750000 *  0.765050 *  0.714280 *   1.73396    1.000000    
     57 O3    c    0.131410 *  0.268650 *  0.127790 *   1.33043    1.000000    
     58 O1    c    0.368590 *  0.731350 *  0.127790 *   1.73396    1.000000    
     59 O1    c    0.868590 *  0.268650 *  0.872210 *   1.73396    1.000000    
     60 O1    c    0.631410 *  0.731350 *  0.872210 *   1.73396    1.000000    
     61 O1    c    0.868590 *  0.731350 *  0.872210 *   1.73396    1.000000    
     62 O1    c    0.631410 *  0.268650 *  0.872210 *   1.73396    1.000000    
     63 O1    c    0.131410 *  0.731350 *  0.127790 *   1.73396    1.000000    
     64 O3    c    0.368590 *  0.268650 *  0.127790 *   1.33043    1.000000    
     65 O1    c    0.653920 *  0.500000 *  0.058200 *   1.73396    1.000000    
     66 O1    c    0.846080 *  0.500000 *  0.058200 *   1.73396    1.000000    
     67 O1    c    0.346080 *  0.500000 *  0.941800 *   1.73396    1.000000    
     68 O3    c    0.153920 *  0.500000 *  0.941800 *   1.33043    1.000000    
     69 O1    c    0.750000 *  0.231060 *  0.027050 *   1.73396    1.000000    
     70 O1    c    0.750000 *  0.768940 *  0.027050 *   1.73396    1.000000    
     71 O3    c    0.250000 *  0.231060 *  0.972950 *   1.33043    1.000000    
     72 O1    c    0.250000 *  0.768940 *  0.972950 *   1.73396    1.000000    
     73 O1    s    0.106570 *  0.174340 *  0.366200 *  -3.73396    1.000000    
     74 O1    s    0.393430 *  0.825660 *  0.366200 *  -3.73396    1.000000    
     75 O1    s    0.893430 *  0.174340 *  0.633800 *  -3.73396    1.000000    
     76 O1    s    0.606570 *  0.825660 *  0.633800 *  -3.73396    1.000000    
     77 O1    s    0.893430 *  0.825660 *  0.633800 *  -3.73396    1.000000    
     78 O1    s    0.606570 *  0.174340 *  0.633800 *  -3.73396    1.000000    
     79 O1    s    0.106570 *  0.825660 *  0.366200 *  -3.73396    1.000000    
     80 O3    s    0.393430 *  0.174340 *  0.366200 *  -3.33043    1.000000    
     81 O1    s    0.000000 *  0.000000 *  0.500000 *  -3.73396    1.000000    
     82 O1    s    0.500000 *  0.000000 *  0.500000 *  -3.73396    1.000000    
     83 O1    s    0.994520 *  0.000000 *  0.250840 *  -3.73396    1.000000    
     84 O1    s    0.505480 *  0.000000 *  0.250840 *  -3.73396    1.000000    
     85 O1    s    0.005480 *  0.000000 *  0.749160 *  -3.73396    1.000000    
     86 O1    s    0.494520 *  0.000000 *  0.749160 *  -3.73396    1.000000    
     87 O1    s    0.610230 *  0.175520 *  0.115390 *  -3.73396    1.000000    
     88 O1    s    0.889770 *  0.824480 *  0.115390 *  -3.73396    1.000000    
     89 O1    s    0.389770 *  0.175520 *  0.884610 *  -3.73396    1.000000    
     90 O1    s    0.110230 *  0.824480 *  0.884610 *  -3.73396    1.000000    
     91 O1    s    0.389770 *  0.824480 *  0.884610 *  -3.73396    1.000000    
     92 O3    s    0.110230 *  0.175520 *  0.884610 *  -3.33043    1.000000    
     93 O1    s    0.610230 *  0.824480 *  0.115390 *  -3.73396    1.000000    
     94 O1    s    0.889770 *  0.175520 *  0.115390 *  -3.73396    1.000000    
     95 O1    s    0.500000 *  0.000000 *  0.000000 *  -3.73396    1.000000    
     96 O1    s    0.000000 *  0.000000 *  0.000000 *  -3.73396    1.000000    
     97 O1    s    0.151750 *  0.500000 *  0.313330 *  -3.73396    1.000000    
     98 O3    s    0.348250 *  0.500000 *  0.313330 *  -3.33043    1.000000    
     99 O1    s    0.848250 *  0.500000 *  0.686670 *  -3.73396    1.000000    
    100 O1    s    0.651750 *  0.500000 *  0.686670 *  -3.73396    1.000000    
    101 O3    s    0.250000 *  0.234950 *  0.285720 *  -3.33043    1.000000    
    102 O1    s    0.250000 *  0.765050 *  0.285720 *  -3.73396    1.000000    
    103 O1    s    0.750000 *  0.234950 *  0.714280 *  -3.73396    1.000000    
    104 O1    s    0.750000 *  0.765050 *  0.714280 *  -3.73396    1.000000    
    105 O3    s    0.131410 *  0.268650 *  0.127790 *  -3.33043    1.000000    
    106 O1    s    0.368590 *  0.731350 *  0.127790 *  -3.73396    1.000000    
    107 O1    s    0.868590 *  0.268650 *  0.872210 *  -3.73396    1.000000    
    108 O1    s    0.631410 *  0.731350 *  0.872210 *  -3.73396    1.000000    
    109 O1    s    0.868590 *  0.731350 *  0.872210 *  -3.73396    1.000000    
    110 O1    s    0.631410 *  0.268650 *  0.872210 *  -3.73396    1.000000    
    111 O1    s    0.131410 *  0.731350 *  0.127790 *  -3.73396    1.000000    
    112 O3    s    0.368590 *  0.268650 *  0.127790 *  -3.33043    1.000000    
    113 O1    s    0.653920 *  0.500000 *  0.058200 *  -3.73396    1.000000    
    114 O1    s    0.846080 *  0.500000 *  0.058200 *  -3.73396    1.000000    
    115 O1    s    0.346080 *  0.500000 *  0.941800 *  -3.73396    1.000000    
    116 O3    s    0.153920 *  0.500000 *  0.941800 *  -3.33043    1.000000    
    117 O1    s    0.750000 *  0.231060 *  0.027050 *  -3.73396    1.000000    
    118 O1    s    0.750000 *  0.768940 *  0.027050 *  -3.73396    1.000000    
    119 O3    s    0.250000 *  0.231060 *  0.972950 *  -3.33043    1.000000    
    120 O1    s    0.250000 *  0.768940 *  0.972950 *  -3.73396    1.000000    
--------------------------------------------------------------------------------



********************************************************************************
*  General input information                                                   *
********************************************************************************

  Species output for all configurations : 

--------------------------------------------------------------------------------
  Species    Type    Atomic    Atomic    Charge       Radii (Angs)     Library
                     Number     Mass       (e)     Cova   Ionic  VDW   Symbol
--------------------------------------------------------------------------------
    Ge       Core       32      72.61   4.000000   1.170  0.000  1.750 Ge       
    Si       Core       14      28.09   4.000000   1.200  0.000  2.100 Si       
    O1       Core        8      16.00   1.733957   0.730  0.000  1.360 O1       
    O2       Core        8      16.00   0.870733   0.730  0.000  0.000 O2       
    O3       Core        8      16.00   1.330431   0.730  0.000  1.360 O3       
    O1       Shell       8       0.00  -3.733957   0.730  0.000  0.000 O1       
    O2       Shell       8       0.00  -2.870733   0.730  0.000  0.000 O2       
    O3       Shell       8       0.00  -3.330431   0.730  0.000  0.000 O3       
--------------------------------------------------------------------------------


  Lattice summation method               =    Ewald          (3-D)
                                         =    Parry          (2-D)
                                         =    Saunders et al (1-D)
  Accuracy factor for lattice sums       =   12.000


  Analytic derivatives to be used

  Time limit = Infinity

  Maximum range for interatomic potentials =    100000.000000 Angstroms

  General interatomic potentials :

--------------------------------------------------------------------------------
Atom  Types   Potential      Parameter       Value         Units   Cutoffs(Ang)
  1     2                                                            Min /  Max 
--------------------------------------------------------------------------------
Si   c O1   s Buckingham    Buckingham A     1315.2478    eV        0.000 16.000
                            Buckingham rho  0.31775900    Ang       
                            Buckingham C     10.141118    eV*Ang^6  
--------------------------------------------------------------------------------
Si   c O2   s Buckingham    Buckingham A     1315.2478    eV        0.000 16.000
                            Buckingham rho  0.31775900    Ang       
                            Buckingham C     10.141118    eV*Ang^6  
--------------------------------------------------------------------------------
Si   c O3   s Buckingham    Buckingham A     1315.2478    eV        0.000 16.000
                            Buckingham rho  0.31775900    Ang       
                            Buckingham C     10.141118    eV*Ang^6  
--------------------------------------------------------------------------------
Ge   c O1   s Buckingham    Buckingham A     1497.3996    eV        0.000 16.000
                            Buckingham rho  0.32564600    Ang       
                            Buckingham C     16.808599    eV*Ang^6  
--------------------------------------------------------------------------------
Ge   c O2   s Buckingham    Buckingham A     1497.3996    eV        0.000 16.000
                            Buckingham rho  0.32564600    Ang       
                            Buckingham C     16.808599    eV*Ang^6  
--------------------------------------------------------------------------------
Ge   c O3   s Buckingham    Buckingham A     1497.3996    eV        0.000 16.000
                            Buckingham rho  0.32564600    Ang       
                            Buckingham C     16.808599    eV*Ang^6  
--------------------------------------------------------------------------------
O1   s O1   s Buckingham    Buckingham A     22764.000    eV        0.000 16.000
                            Buckingham rho  0.14900000    Ang       
                            Buckingham C     10.937044    eV*Ang^6  
--------------------------------------------------------------------------------
O1   s O2   s Buckingham    Buckingham A     22764.000    eV        0.000 16.000
                            Buckingham rho  0.14900000    Ang       
                            Buckingham C     10.937044    eV*Ang^6  
--------------------------------------------------------------------------------
O1   s O3   s Buckingham    Buckingham A     22764.000    eV        0.000 16.000
                            Buckingham rho  0.14900000    Ang       
                            Buckingham C     10.937044    eV*Ang^6  
--------------------------------------------------------------------------------
O2   s O2   s Buckingham    Buckingham A     22764.000    eV        0.000 16.000
                            Buckingham rho  0.14900000    Ang       
                            Buckingham C     10.937044    eV*Ang^6  
--------------------------------------------------------------------------------
O2   s O3   s Buckingham    Buckingham A     22764.000    eV        0.000 16.000
                            Buckingham rho  0.14900000    Ang       
                            Buckingham C     10.937044    eV*Ang^6  
--------------------------------------------------------------------------------
O3   s O3   s Buckingham    Buckingham A     22764.000    eV        0.000 16.000
                            Buckingham rho  0.14900000    Ang       
                            Buckingham C     10.937044    eV*Ang^6  
--------------------------------------------------------------------------------
O1   c O1   s Spring (c-s)  Spring k 2       180.31577    eV*Ang^-2 0.000  0.800
                            Spring k 4       0.0000000    eV*Ang^-4 
--------------------------------------------------------------------------------
O2   c O2   s Spring (c-s)  Spring k 2       75.969800    eV*Ang^-2 0.000  0.800
                            Spring k 4       0.0000000    eV*Ang^-4 
--------------------------------------------------------------------------------
O3   c O3   s Spring (c-s)  Spring k 2       128.14270    eV*Ang^-2 0.000  0.800
                            Spring k 4       0.0000000    eV*Ang^-4 
--------------------------------------------------------------------------------

  General Three-body potentials :

--------------------------------------------------------------------------------
  Atoms       Potential      Parameter       Value         Units   Cutoffs(Ang)
  1 / 2 / 3                                                          Min /  Max 
--------------------------------------------------------------------------------
Si    core    Harmonic      Three-body cnst  1.2614000    eV*rad^-2 0.000  1.900
O1    shel                  Three-body angl  109.47000    degrees   0.000  1.900
O1    shel                  Three-body k4    0.0000000    eV*rad^-4 0.000  3.500
                            Three-body k3    0.0000000    eV*rad^-3 
--------------------------------------------------------------------------------
Si    core    Harmonic      Three-body cnst  1.2614000    eV*rad^-2 0.000  1.900
O1    shel                  Three-body angl  109.47000    degrees   0.000  1.900
õ(1   shel                  Three-body k4    0.0000000    eV*rad^-4 0.000  3.500
                            Three-body k3    0.0000000    eV*rad^-3 
--------------------------------------------------------------------------------
Si    core    Harmonic      Three-body cnst  1.2614000    eV*rad^-2 0.000  1.900
õ(1   shel                  Three-body angl  109.47000    degrees   0.000  1.900
õ(1   shel                  Three-body k4    0.0000000    eV*rad^-4 0.000  3.500
                            Three-body k3    0.0000000    eV*rad^-3 
--------------------------------------------------------------------------------
Si    core    Harmonic      Three-body cnst  1.2614000    eV*rad^-2 0.000  1.900
O1    shel                  Three-body angl  109.47000    degrees   0.000  1.900
O2    shel                  Three-body k4    0.0000000    eV*rad^-4 0.000  3.500
                            Three-body k3    0.0000000    eV*rad^-3 
--------------------------------------------------------------------------------
Si    core    Harmonic      Three-body cnst  1.2614000    eV*rad^-2 0.000  1.900
O1    shel                  Three-body angl  109.47000    degrees   0.000  1.900
õ(2   shel                  Three-body k4    0.0000000    eV*rad^-4 0.000  3.500
                            Three-body k3    0.0000000    eV*rad^-3 
--------------------------------------------------------------------------------
Si    core    Harmonic      Three-body cnst  1.2614000    eV*rad^-2 0.000  1.900
O2    shel                  Three-body angl  109.47000    degrees   0.000  1.900
õ(1   shel                  Three-body k4    0.0000000    eV*rad^-4 0.000  3.500
                            Three-body k3    0.0000000    eV*rad^-3 
--------------------------------------------------------------------------------
Si    core    Harmonic      Three-body cnst  1.2614000    eV*rad^-2 0.000  1.900
õ(1   shel                  Three-body angl  109.47000    degrees   0.000  1.900
õ(2   shel                  Three-body k4    0.0000000    eV*rad^-4 0.000  3.500
                            Three-body k3    0.0000000    eV*rad^-3 
--------------------------------------------------------------------------------
Si    core    Harmonic      Three-body cnst  1.2614000    eV*rad^-2 0.000  1.900
O2    shel                  Three-body angl  109.47000    degrees   0.000  1.900
O2    shel                  Three-body k4    0.0000000    eV*rad^-4 0.000  3.500
                            Three-body k3    0.0000000    eV*rad^-3 
--------------------------------------------------------------------------------
Si    core    Harmonic      Three-body cnst  1.2614000    eV*rad^-2 0.000  1.900
O2    shel                  Three-body angl  109.47000    degrees   0.000  1.900
õ(2   shel                  Three-body k4    0.0000000    eV*rad^-4 0.000  3.500
                            Three-body k3    0.0000000    eV*rad^-3 
--------------------------------------------------------------------------------
Si    core    Harmonic      Three-body cnst  1.2614000    eV*rad^-2 0.000  1.900
õ(2   shel                  Three-body angl  109.47000    degrees   0.000  1.900
õ(2   shel                  Three-body k4    0.0000000    eV*rad^-4 0.000  3.500
                            Three-body k3    0.0000000    eV*rad^-3 
--------------------------------------------------------------------------------

********************************************************************************
*  Output for configuration   1 : c00010.vasp                                  *
********************************************************************************


  Components of energy : 

--------------------------------------------------------------------------------
  Interatomic potentials     =         912.64032029 eV    
  Three-body potentials      =           0.00000000 eV    
  Monopole - monopole (real) =       -2676.00317478 eV    
  Monopole - monopole (recip)=       -1115.35404472 eV    
  Monopole - monopole (total)=       -3791.35721950 eV    
--------------------------------------------------------------------------------
  Total lattice energy       =       -2878.71689922 eV    
--------------------------------------------------------------------------------
  Total lattice energy       =         -277752.1756 kJ/(mole unit cells)
--------------------------------------------------------------------------------


  Number of variables =      363

  Maximum number of calculations  =          1000
  Maximum Hessian update interval =            10
  Maximum step size               =   0.100000000
  Maximum parameter tolerance     =   0.000010000
  Maximum function  tolerance     =   0.000010000
  Maximum gradient  tolerance     =   0.001000000
  Maximum gradient  component     =   0.010000000

  Symmetry not applied to optimisation

  Cell parameters to be optimised using strains

  Newton-Raphson optimiser to be used

  BFGS hessian update to be used

  Lower half triangular hessian to be used

  Minimiser to switch to RFO
  When gradient norm is less than     0.050000

  Dumpfile to be written after every cycle

  Start of bulk optimisation :

  Cycle:      0 Energy:     -2878.716899  Gnorm:      5.963667  CPU:    0.088
  ** Hessian calculated **
  Cycle:      1 Energy:     -2924.600435  Gnorm:      1.442251  CPU:    0.202
  ** Hessian calculated **
  Cycle:      2 Energy:     -2929.839012  Gnorm:      0.765009  CPU:    0.371
  Cycle:      3 Energy:     -2930.682723  Gnorm:      0.307113  CPU:    0.449
  Cycle:      4 Energy:     -2930.959497  Gnorm:      0.247697  CPU:    0.542
  Cycle:      5 Energy:     -2931.310972  Gnorm:      0.208243  CPU:    0.634
  Cycle:      6 Energy:     -2931.700791  Gnorm:      0.185961  CPU:    0.727
  Cycle:      7 Energy:     -2931.951258  Gnorm:      0.140653  CPU:    0.804
  Cycle:      8 Energy:     -2932.043904  Gnorm:      0.106763  CPU:    0.883
  Cycle:      9 Energy:     -2932.090937  Gnorm:      0.082345  CPU:    0.975
  Cycle:     10 Energy:     -2932.128559  Gnorm:      0.079822  CPU:    1.067
  Cycle:     11 Energy:     -2932.169450  Gnorm:      0.084268  CPU:    1.154
  ** Hessian calculated **
  Cycle:     12 Energy:     -2932.191802  Gnorm:      0.082346  CPU:    1.326
  Cycle:     13 Energy:     -2932.230859  Gnorm:      0.078713  CPU:    1.431
  Cycle:     14 Energy:     -2932.286331  Gnorm:      0.072706  CPU:    1.523
  Cycle:     15 Energy:     -2932.378129  Gnorm:      0.060649  CPU:    1.629
  Cycle:     16 Energy:     -2932.463172  Gnorm:      0.045121  CPU:    1.721
  ** Hessian has wrong structure
  ** Imaginary eigenvectors =   7
  Cycle:     17 Energy:     -2932.517912  Gnorm:      0.142988  CPU:    1.958
  ** Hessian has wrong structure
  ** Imaginary eigenvectors =   4
  ** Hessian has wrong structure
  ** Imaginary eigenvectors =   3
  Cycle:     18 Energy:     -2932.615281  Gnorm:      0.155327  CPU:    2.388
  ** Hessian has wrong structure
  ** Imaginary eigenvectors =   2
  ** Hessian has wrong structure
  ** Imaginary eigenvectors =   1
  Cycle:     19 Energy:     -2932.657623  Gnorm:      0.165443  CPU:    2.734
  ** Hessian has required structure
  Cycle:     20 Energy:     -2933.012072  Gnorm:      0.104778  CPU:    2.946
  ** Hessian has required structure
  Cycle:     21 Energy:     -2933.135951  Gnorm:      0.086169  CPU:    3.071
  ** Hessian has required structure
  Cycle:     22 Energy:     -2933.202609  Gnorm:      0.047684  CPU:    3.196
  ** Hessian has required structure
  Cycle:     23 Energy:     -2933.246602  Gnorm:      0.038703  CPU:    3.321
  ** Hessian has required structure
  Cycle:     24 Energy:     -2933.263079  Gnorm:      0.035772  CPU:    3.447
  ** Hessian has required structure
  Cycle:     25 Energy:     -2933.272246  Gnorm:      0.028932  CPU:    3.572
  ** Hessian has required structure
  Cycle:     26 Energy:     -2933.279181  Gnorm:      0.023041  CPU:    3.713
  ** Hessian has required structure
  Cycle:     27 Energy:     -2933.285707  Gnorm:      0.022892  CPU:    3.852
  ** Hessian has required structure
  Cycle:     28 Energy:     -2933.293283  Gnorm:      0.030862  CPU:    3.992
  ** Hessian has required structure
  Cycle:     29 Energy:     -2933.300437  Gnorm:      0.040059  CPU:    4.118
  ** Hessian has required structure
  Cycle:     30 Energy:     -2933.331489  Gnorm:      0.039259  CPU:    4.316
  ** Hessian has required structure
  Cycle:     31 Energy:     -2933.353526  Gnorm:      0.030542  CPU:    4.455
  ** Hessian has required structure
  Cycle:     32 Energy:     -2933.366522  Gnorm:      0.013695  CPU:    4.594
  ** Hessian has required structure
  Cycle:     33 Energy:     -2933.372426  Gnorm:      0.020295  CPU:    4.733
  ** Hessian has required structure
  Cycle:     34 Energy:     -2933.376989  Gnorm:      0.012339  CPU:    4.872
  ** Hessian has required structure
  Cycle:     35 Energy:     -2933.378524  Gnorm:      0.007053  CPU:    4.997
  ** Hessian has required structure
  Cycle:     36 Energy:     -2933.379183  Gnorm:      0.002962  CPU:    5.121
  ** Hessian has required structure
  Cycle:     37 Energy:     -2933.379371  Gnorm:      0.002158  CPU:    5.245
  ** Hessian has required structure
  Cycle:     38 Energy:     -2933.379433  Gnorm:      0.001488  CPU:    5.370
  ** Hessian has required structure
  Cycle:     39 Energy:     -2933.379460  Gnorm:      0.000622  CPU:    5.495
  ** Hessian has required structure
  Cycle:     40 Energy:     -2933.379471  Gnorm:      0.000374  CPU:    5.691
  ** Hessian has required structure
  Cycle:     41 Energy:     -2933.379474  Gnorm:      0.000262  CPU:    5.802
  ** Hessian has required structure
  Cycle:     42 Energy:     -2933.379475  Gnorm:      0.000183  CPU:    5.911
  ** Hessian has required structure
  Cycle:     43 Energy:     -2933.379476  Gnorm:      0.000128  CPU:    6.021
  ** Hessian has required structure
  Cycle:     44 Energy:     -2933.379476  Gnorm:      0.000090  CPU:    6.131
  ** Hessian has required structure
  Cycle:     45 Energy:     -2933.379477  Gnorm:      0.000063  CPU:    6.241
  ** Hessian has required structure


  **** Optimisation achieved ****


  Final energy =   -2933.37947661 eV      
  Final Gnorm  =       0.00004410

  Components of energy : 

--------------------------------------------------------------------------------
  Interatomic potentials     =         772.90555944 eV    
  Three-body potentials      =           0.00000000 eV    
  Monopole - monopole (real) =       -1487.50328932 eV    
  Monopole - monopole (recip)=       -2218.78174673 eV    
  Monopole - monopole (total)=       -3706.28503605 eV    
--------------------------------------------------------------------------------
  Total lattice energy       =       -2933.37947661 eV    
--------------------------------------------------------------------------------
  Total lattice energy       =         -283026.2787 kJ/(mole unit cells)
--------------------------------------------------------------------------------

  Final fractional coordinates of atoms :

--------------------------------------------------------------------------------
   No.  Atomic        x           y          z          Radius
        Label       (Frac)      (Frac)     (Frac)       (Angs) 
--------------------------------------------------------------------------------
     1  Ge    c     0.052090    0.000000    0.372270    0.000000
     2  Ge    c     0.442678    0.054272    0.407533    0.000000
     3  Ge    c     0.947634    0.069122    0.621261    0.000000
     4  Ge    c     0.549105    0.014732    0.658223    0.000000
     5  Ge    c     0.553494    0.008673    0.166486    0.000000
     6  Ge    c     0.949459    0.068912    0.117767    0.000000
     7  Ge    c     0.447589    0.067067    0.914760    0.000000
     8  Ge    c     0.054802    0.013307    0.869307    0.000000
     9  Ge    c     0.174402    0.285405    0.295118    0.000000
    10  Ge    c     0.327788    0.755911    0.297941    0.000000
    11  Ge    c     0.853250    0.379318    0.735584    0.000000
    12  Ge    c     0.645550    0.699298    0.729181    0.000000
    13  Ge    c     0.825755    0.780183    0.734185    0.000000
    14  Ge    c     0.672761    0.298018    0.732661    0.000000
    15  Ge    c     0.145570    0.683991    0.303539    0.000000
    16  Ge    c     0.673124    0.296199    0.048663    0.000000
    17  Ge    c     0.825374    0.782450    0.050063    0.000000
    18  Ge    c     0.346113    0.375243    0.976993    0.000000
    19  Ge    c     0.144781    0.695348    0.990241    0.000000
    20  Ge    c     0.326287    0.774925    0.985245    0.000000
    21  Ge    c     0.645244    0.698897    0.045755    0.000000
    22  Ge    c     0.852666    0.383025    0.052182    0.000000
    23  Si    c     0.350305    0.362055    0.288045    0.000000
    24  Si    c     0.170519    0.298997    0.985097    0.000000
    25  O1    c     0.129425    0.137226    0.389216    0.000000
    26  O1    c     0.374399    0.896918    0.397470    0.000000
    27  O1    c     0.919463    0.272060    0.649682    0.000000
    28  O1    c     0.582145    0.813143    0.638648    0.000000
    29  O1    c     0.872846    0.929654    0.642118    0.000000
    30  O1    c     0.623299    0.157989    0.636404    0.000000
    31  O1    c     0.084081    0.798042    0.395679    0.000000
    32  O3    c     0.412353    0.254065    0.363489    0.000000
    33  O1    c     0.975867    0.051976    0.461091    0.000000
    34  O1    c     0.471156    0.060284    0.568394    0.000000
    35  O1    c     0.025658    0.023001    0.210445    0.000000
    36  O1    c     0.523638    0.008718    0.325314    0.000000
    37  O1    c     0.027384    0.020969    0.708795    0.000000
    38  O1    c     0.523101    0.030758    0.820335    0.000000
    39  O1    c     0.629031    0.147545    0.145713    0.000000
    40  O1    c     0.875217    0.925263    0.142371    0.000000
    41  O1    c     0.409110    0.264484    0.889882    0.000000
    42  O1    c     0.083338    0.808700    0.897419    0.000000
    43  O1    c     0.375033    0.919365    0.892150    0.000000
    44  O3    c     0.127020    0.161494    0.897287    0.000000
    45  O1    c     0.579277    0.804852    0.131361    0.000000
    46  O1    c     0.916467    0.270012    0.141618    0.000000
    47  O1    c     0.477084    0.065696    0.074754    0.000000
    48  O1    c     0.976202    0.058312    0.956472    0.000000
    49  O1    c     0.154252    0.481025    0.358875    0.000000
    50  O3    c     0.341226    0.547157    0.350301    0.000000
    51  O1    c     0.840795    0.579833    0.673691    0.000000
    52  O1    c     0.658148    0.500103    0.671094    0.000000
    53  O3    c     0.270812    0.256333    0.296202    0.000000
    54  O1    c     0.232547    0.788129    0.301057    0.000000
    55  O1    c     0.768302    0.265760    0.731861    0.000000
    56  O1    c     0.730367    0.813214    0.731826    0.000000
    57  O3    c     0.143067    0.282315    0.134264    0.000000
    58  O1    c     0.360653    0.787750    0.142776    0.000000
    59  O1    c     0.882987    0.402218    0.893599    0.000000
    60  O1    c     0.614984    0.680180    0.887398    0.000000
    61  O1    c     0.857644    0.792319    0.892121    0.000000
    62  O1    c     0.640614    0.282465    0.890718    0.000000
    63  O1    c     0.111600    0.682234    0.145961    0.000000
    64  O3    c     0.373875    0.391691    0.139127    0.000000
    65  O1    c     0.657751    0.497925    0.106288    0.000000
    66  O1    c     0.840082    0.580755    0.112815    0.000000
    67  O1    c     0.340334    0.576969    0.919339    0.000000
    68  O3    c     0.155473    0.490028    0.933684    0.000000
    69  O1    c     0.768682    0.266452    0.048310    0.000000
    70  O1    c     0.729895    0.813746    0.049926    0.000000
    71  O3    c     0.259504    0.266441    0.977204    0.000000
    72  O1    c     0.230756    0.802750    0.988965    0.000000
    73  O1    s     0.127406    0.139119    0.380525    0.000000
    74  O1    s     0.376047    0.898104    0.390493    0.000000
    75  O1    s     0.916602    0.264797    0.653985    0.000000
    76  O1    s     0.584365    0.819531    0.646674    0.000000
    77  O1    s     0.874960    0.928766    0.647729    0.000000
    78  O1    s     0.621625    0.158168    0.645336    0.000000
    79  O1    s     0.086165    0.804663    0.387318    0.000000
    80  O3    s     0.408588    0.248919    0.359490    0.000000
    81  O1    s     0.979897    0.049097    0.465527    0.000000
    82  O1    s     0.475178    0.056300    0.563747    0.000000
    83  O1    s     0.021457    0.025021    0.214475    0.000000
    84  O1    s     0.519844    0.012112    0.319772    0.000000
    85  O1    s     0.023539    0.023967    0.714165    0.000000
    86  O1    s     0.518854    0.032510    0.816593    0.000000
    87  O1    s     0.626736    0.148590    0.139740    0.000000
    88  O1    s     0.876699    0.924506    0.133460    0.000000
    89  O1    s     0.406954    0.259032    0.898428    0.000000
    90  O1    s     0.085995    0.815016    0.902540    0.000000
    91  O1    s     0.376522    0.918849    0.901065    0.000000
    92  O3    s     0.125644    0.163557    0.903943    0.000000
    93  O1    s     0.582481    0.811721    0.127323    0.000000
    94  O1    s     0.914138    0.263837    0.133299    0.000000
    95  O1    s     0.480655    0.061493    0.070028    0.000000
    96  O1    s     0.980243    0.055677    0.961250    0.000000
    97  O1    s     0.155037    0.482645    0.349919    0.000000
    98  O3    s     0.341089    0.545179    0.340501    0.000000
    99  O1    s     0.840647    0.579298    0.682621    0.000000
   100  O1    s     0.658214    0.501148    0.679971    0.000000
   101  O3    s     0.270548    0.268351    0.295352    0.000000
   102  O1    s     0.233403    0.778071    0.300989    0.000000
   103  O1    s     0.767300    0.276285    0.732192    0.000000
   104  O1    s     0.731381    0.802595    0.731833    0.000000
   105  O3    s     0.147986    0.284093    0.132557    0.000000
   106  O1    s     0.355780    0.784524    0.143051    0.000000
   107  O1    s     0.878532    0.399098    0.893331    0.000000
   108  O1    s     0.619483    0.682976    0.887546    0.000000
   109  O1    s     0.852950    0.790717    0.891890    0.000000
   110  O1    s     0.645285    0.284571    0.890883    0.000000
   111  O1    s     0.116582    0.683370    0.145634    0.000000
   112  O3    s     0.369443    0.387584    0.141183    0.000000
   113  O1    s     0.657918    0.498470    0.097624    0.000000
   114  O1    s     0.840015    0.579691    0.103696    0.000000
   115  O1    s     0.339774    0.575226    0.928645    0.000000
   116  O3    s     0.156036    0.488153    0.942752    0.000000
   117  O1    s     0.767595    0.277069    0.048589    0.000000
   118  O1    s     0.730980    0.803201    0.049631    0.000000
   119  O3    s     0.257634    0.277965    0.977981    0.000000
   120  O1    s     0.231678    0.792661    0.988775    0.000000
--------------------------------------------------------------------------------

  Final Cartesian lattice vectors (Angstroms) :

       17.682678   -0.235241   -0.053769
       -0.104185    7.867380    0.032466
       -0.033219    0.045406   10.273555


  Final cell parameters and derivatives :

--------------------------------------------------------------------------------
       a           17.684325 Angstrom     dE/de1(xx)    -0.000630 eV/strain
       b            7.868137 Angstrom     dE/de2(yy)     0.000789 eV/strain
       c           10.273709 Angstrom     dE/de3(zz)     0.000307 eV/strain
       alpha       89.507927 Degrees      dE/de4(yz)     0.000130 eV/strain
       beta        90.362822 Degrees      dE/de5(xz)    -0.000486 eV/strain
       gamma       91.521591 Degrees      dE/de6(xy)     0.000364 eV/strain
--------------------------------------------------------------------------------

  Primitive cell volume =          1428.928036 Angs**3

  Density of cell =      2.814155 g/cm**3

  Non-primitive cell volume =          1428.928036 Angs**3


  Final internal derivatives :

--------------------------------------------------------------------------------
   No.  Atomic          a             b             c           Radius
        Label          (eV)          (eV)          (eV)        (eV/Angs)
--------------------------------------------------------------------------------
      1 Ge    c       0.000000      0.000000      0.000000      0.000000
      2 Ge    c      -0.000460     -0.000147      0.000066      0.000000
      3 Ge    c       0.000296      0.000007      0.000433      0.000000
      4 Ge    c      -0.000109      0.000000     -0.000316      0.000000
      5 Ge    c      -0.000447     -0.000020     -0.000434      0.000000
      6 Ge    c       0.000090     -0.000022      0.000450      0.000000
      7 Ge    c      -0.000050      0.001003      0.001321      0.000000
      8 Ge    c       0.000342     -0.000407     -0.000380      0.000000
      9 Ge    c       0.000903     -0.000278     -0.000858      0.000000
     10 Ge    c      -0.000248      0.000254     -0.000229      0.000000
     11 Ge    c      -0.000120     -0.000004     -0.000063      0.000000
     12 Ge    c       0.000340     -0.000029     -0.000103      0.000000
     13 Ge    c      -0.000317     -0.000065     -0.000099      0.000000
     14 Ge    c       0.000045      0.000017     -0.000099      0.000000
     15 Ge    c       0.001239     -0.000005     -0.000075      0.000000
     16 Ge    c       0.000259      0.000061      0.000002      0.000000
     17 Ge    c      -0.000032     -0.000013      0.000022      0.000000
     18 Ge    c      -0.002786      0.000337     -0.000760      0.000000
     19 Ge    c       0.002172      0.000126     -0.000252      0.000000
     20 Ge    c      -0.001534      0.000629      0.001697      0.000000
     21 Ge    c       0.000103     -0.000029      0.000072      0.000000
     22 Ge    c      -0.000225      0.000030      0.000011      0.000000
     23 Si    c      -0.000876     -0.000050      0.000454      0.000000
     24 Si    c       0.000102     -0.000312      0.001153      0.000000
     25 O1    c       0.001667     -0.000086      0.000840      0.000000
     26 O1    c      -0.000091      0.000640      0.000172      0.000000
     27 O1    c      -0.000171     -0.000146     -0.000004      0.000000
     28 O1    c      -0.000395      0.000377      0.000055      0.000000
     29 O1    c       0.000562      0.000224     -0.000129      0.000000
     30 O1    c      -0.000918     -0.000245      0.000159      0.000000
     31 O1    c      -0.000881     -0.000367      0.000031      0.000000
     32 O3    c       0.000952     -0.000154     -0.000184      0.000000
     33 O1    c      -0.001593      0.000106      0.000486      0.000000
     34 O1    c       0.000556     -0.000142      0.000211      0.000000
     35 O1    c       0.000080      0.000259     -0.000468      0.000000
     36 O1    c      -0.000019      0.000091      0.000236      0.000000
     37 O1    c      -0.000696      0.000188      0.000058      0.000000
     38 O1    c       0.004305      0.000563     -0.001636      0.000000
     39 O1    c      -0.000586     -0.000195      0.000199      0.000000
     40 O1    c       0.000225      0.000037     -0.000096      0.000000
     41 O1    c      -0.001229      0.000252     -0.000025      0.000000
     42 O1    c      -0.000479      0.000303      0.000530      0.000000
     43 O1    c      -0.000660     -0.002275     -0.002716      0.000000
     44 O3    c       0.000121     -0.000080     -0.000793      0.000000
     45 O1    c       0.000112      0.000163      0.000062      0.000000
     46 O1    c       0.000032     -0.000178      0.000001      0.000000
     47 O1    c       0.000326     -0.000462      0.000081      0.000000
     48 O1    c      -0.001636     -0.000183     -0.000006      0.000000
     49 O1    c      -0.000261      0.001348      0.000386      0.000000
     50 O3    c      -0.000407     -0.000408      0.000121      0.000000
     51 O1    c       0.000057      0.000020      0.000079      0.000000
     52 O1    c       0.000072     -0.000017      0.000103      0.000000
     53 O3    c       0.001613      0.000554     -0.000017      0.000000
     54 O1    c      -0.002962     -0.000754      0.000025      0.000000
     55 O1    c      -0.000023      0.000143     -0.000043      0.000000
     56 O1    c      -0.000032     -0.000168     -0.000066      0.000000
     57 O3    c       0.000092     -0.000128      0.000055      0.000000
     58 O1    c      -0.000056      0.000090     -0.000574      0.000000
     59 O1    c      -0.000027     -0.000021     -0.000085      0.000000
     60 O1    c      -0.000024      0.000029      0.000161      0.000000
     61 O1    c       0.000246      0.000076      0.000268      0.000000
     62 O1    c      -0.000226     -0.000048     -0.000070      0.000000
     63 O1    c       0.000312     -0.000054      0.000265      0.000000
     64 O3    c       0.000626     -0.000125      0.000120      0.000000
     65 O1    c      -0.000031      0.000089     -0.000032      0.000000
     66 O1    c       0.000015     -0.000066     -0.000103      0.000000
     67 O1    c      -0.000546     -0.004327     -0.000467      0.000000
     68 O3    c       0.000329      0.002850     -0.000531      0.000000
     69 O1    c       0.000123      0.000135      0.000060      0.000000
     70 O1    c       0.000022     -0.000100      0.000063      0.000000
     71 O3    c       0.007558      0.000734     -0.000150      0.000000
     72 O1    c      -0.006739     -0.000635     -0.000052      0.000000
     73 O1    s      -0.000404      0.000048     -0.000115      0.000000
     74 O1    s      -0.000001     -0.000181      0.000036      0.000000
     75 O1    s       0.000039      0.000051      0.000044      0.000000
     76 O1    s       0.000313     -0.000006      0.000091      0.000000
     77 O1    s      -0.000040     -0.000126      0.000040      0.000000
     78 O1    s       0.000259      0.000005     -0.000010      0.000000
     79 O1    s       0.000613     -0.000395     -0.000053      0.000000
     80 O3    s      -0.000750      0.000137      0.000009      0.000000
     81 O1    s       0.000304      0.000037     -0.000157      0.000000
     82 O1    s      -0.000215      0.000038     -0.000235      0.000000
     83 O1    s      -0.000816     -0.000174      0.000154      0.000000
     84 O1    s      -0.000015     -0.000116     -0.000139      0.000000
     85 O1    s       0.000288     -0.000163     -0.000257      0.000000
     86 O1    s      -0.000557     -0.000072      0.000701      0.000000
     87 O1    s       0.000076      0.000101     -0.000150      0.000000
     88 O1    s       0.000030     -0.000044      0.000112      0.000000
     89 O1    s      -0.001381      0.001020      0.000362      0.000000
     90 O1    s       0.001455     -0.000631     -0.000305      0.000000
     91 O1    s       0.001328      0.000861      0.000565      0.000000
     92 O3    s      -0.000780     -0.000287     -0.000170      0.000000
     93 O1    s       0.000051     -0.000045     -0.000065      0.000000
     94 O1    s      -0.000069      0.000096      0.000025      0.000000
     95 O1    s       0.000576      0.000615      0.000583      0.000000
     96 O1    s       0.000024     -0.000015     -0.000030      0.000000
     97 O1    s       0.000369     -0.000298     -0.000336      0.000000
     98 O3    s       0.000322     -0.000051      0.000024      0.000000
     99 O1    s      -0.000057     -0.000073      0.000027      0.000000
    100 O1    s      -0.000133      0.000020     -0.000013      0.000000
    101 O3    s       0.000164     -0.000413     -0.000164      0.000000
    102 O1    s       0.000775      0.000631     -0.000228      0.000000
    103 O1    s       0.000015     -0.000047      0.000105      0.000000
    104 O1    s      -0.000058      0.000063      0.000138      0.000000
    105 O3    s      -0.000589      0.000134      0.000509      0.000000
    106 O1    s       0.000225     -0.000173      0.000896      0.000000
    107 O1    s      -0.000070      0.000015      0.000029      0.000000
    108 O1    s       0.000058     -0.000013     -0.000091      0.000000
    109 O1    s      -0.000244     -0.000089     -0.000142      0.000000
    110 O1    s       0.000302      0.000042      0.000045      0.000000
    111 O1    s       0.001263     -0.000189     -0.000359      0.000000
    112 O3    s      -0.001407      0.000117     -0.000592      0.000000
    113 O1    s      -0.000019     -0.000005     -0.000051      0.000000
    114 O1    s       0.000014      0.000011      0.000006      0.000000
    115 O1    s       0.000164      0.001229      0.000374      0.000000
    116 O3    s      -0.000289     -0.000265      0.000293      0.000000
    117 O1    s      -0.000009     -0.000034     -0.000111      0.000000
    118 O1    s      -0.000081      0.000021     -0.000137      0.000000
    119 O3    s      -0.000197     -0.000908      0.000164      0.000000
    120 O1    s       0.000997      0.000528      0.000326      0.000000
--------------------------------------------------------------------------------
  Maximum abs         0.007558      0.004327      0.002716      0.000000
--------------------------------------------------------------------------------


  Born effective charge tensors : 

-------------------------------------------------------------------------------
  Atom             x           y             z
-------------------------------------------------------------------------------
    1 Ge    x       4.1555     -0.2856      0.0588
            y       0.0781      3.9461     -0.0376
            z      -0.8080      0.1675      4.1835
-------------------------------------------------------------------------------
    2 Ge    x       4.1154     -0.1634      0.4467
            y       0.1778      3.9296     -0.1188
            z       0.2163      0.0491      4.4261
-------------------------------------------------------------------------------
    3 Ge    x       4.1901     -0.2553     -0.4242
            y       0.1375      3.9259      0.1152
            z      -0.1994      0.0551      4.4592
-------------------------------------------------------------------------------
    4 Ge    x       4.1775     -0.2519     -0.0715
            y       0.1032      3.9132      0.0086
            z       0.7957     -0.1603      4.2135
-------------------------------------------------------------------------------
    5 Ge    x       4.2920     -0.2153     -0.4183
            y       0.1540      3.9456      0.0876
            z      -0.3267     -0.0011      3.9431
-------------------------------------------------------------------------------
    6 Ge    x       4.3109     -0.2164     -0.0633
            y       0.0953      3.9417     -0.0118
            z       0.6344     -0.1510      3.6416
-------------------------------------------------------------------------------
    7 Ge    x       4.3233     -0.2080      0.0272
            y       0.0818      3.9322      0.0087
            z      -0.6780      0.1732      3.6979
-------------------------------------------------------------------------------
    8 Ge    x       4.1812     -0.2366      0.3774
            y       0.0895      4.0023     -0.0360
            z       0.3146      0.0028      3.9777
-------------------------------------------------------------------------------
    9 Ge    x       3.8456      0.2630     -0.3385
            y       0.2562      4.1267     -0.0957
            z      -0.0644     -0.1678      3.5164
-------------------------------------------------------------------------------
   10 Ge    x       3.9270      0.2543      0.2580
            y       0.2936      4.1799      0.1518
            z      -0.0090      0.2377      3.5587
-------------------------------------------------------------------------------
   11 Ge    x       3.9659     -0.0668     -0.1936
            y      -0.4596      4.1819      0.1034
            z      -0.0761      0.2231      3.6096
-------------------------------------------------------------------------------
   12 Ge    x       3.9345     -0.0978      0.2199
            y      -0.4521      4.2120     -0.0991
            z       0.0646     -0.1921      3.5780
-------------------------------------------------------------------------------
   13 Ge    x       4.0110      0.2412     -0.2650
            y       0.2501      4.1937     -0.0637
            z      -0.0001     -0.1892      3.6138
-------------------------------------------------------------------------------
   14 Ge    x       4.0386      0.2466      0.2867
            y       0.2742      4.1531      0.0659
            z       0.0205      0.1434      3.5809
-------------------------------------------------------------------------------
   15 Ge    x       3.9001     -0.1299     -0.2108
            y      -0.4567      4.2329      0.1230
            z      -0.0612      0.1786      3.5476
-------------------------------------------------------------------------------
   16 Ge    x       4.0519      0.2370     -0.3399
            y       0.2372      4.1936     -0.0916
            z      -0.0321     -0.1839      3.5397
-------------------------------------------------------------------------------
   17 Ge    x       4.1045      0.2490      0.3205
            y       0.2750      4.1528      0.0713
            z       0.0344      0.1552      3.4590
-------------------------------------------------------------------------------
   18 Ge    x       3.9181     -0.1245     -0.3621
            y      -0.4644      4.1390      0.0801
            z      -0.1577      0.1733      3.3972
-------------------------------------------------------------------------------
   19 Ge    x       3.9596     -0.0909      0.2731
            y      -0.4357      4.1715     -0.1694
            z       0.1022     -0.2615      3.4629
-------------------------------------------------------------------------------
   20 Ge    x       4.0246      0.2837     -0.3246
            y       0.3001      4.1816     -0.0649
            z      -0.0485     -0.1472      3.4523
-------------------------------------------------------------------------------
   21 Ge    x       4.0405     -0.0742     -0.2737
            y      -0.4474      4.1809      0.0945
            z      -0.1285      0.2050      3.5122
-------------------------------------------------------------------------------
   22 Ge    x       4.0140     -0.0922      0.2855
            y      -0.4361      4.1999     -0.0684
            z       0.0843     -0.1667      3.4404
-------------------------------------------------------------------------------
   23 Si    x       3.6422     -0.0794      0.2042
            y      -0.4414      3.9117     -0.0839
            z       0.1099     -0.2357      3.3227
-------------------------------------------------------------------------------
   24 Si    x       3.7220      0.2251      0.3080
            y       0.2362      3.9228      0.1106
            z       0.0484      0.1948      3.2733
-------------------------------------------------------------------------------
   25 O1    x      -2.1984     -0.8958      0.3231
            y      -0.9613     -2.2945      0.3997
            z       0.3899      0.3996     -1.6175
-------------------------------------------------------------------------------
   26 O1    x      -2.0707     -0.9121     -0.4874
            y      -0.9566     -2.4422     -0.5065
            z      -0.4514     -0.5467     -1.6706
-------------------------------------------------------------------------------
   27 O1    x      -1.9716      0.8463      0.5188
            y       0.8004     -2.5302     -0.5354
            z       0.4686     -0.5254     -1.6494
-------------------------------------------------------------------------------
   28 O1    x      -1.9579      0.8724     -0.3462
            y       0.8248     -2.5254      0.2926
            z      -0.4271      0.3372     -1.5910
-------------------------------------------------------------------------------
   29 O1    x      -2.2096     -0.9094      0.5186
            y      -0.9526     -2.3132      0.5012
            z       0.4790      0.5304     -1.6606
-------------------------------------------------------------------------------
   30 O1    x      -2.1992     -0.8909     -0.3094
            y      -0.9590     -2.2668     -0.3541
            z      -0.3916     -0.3684     -1.6158
-------------------------------------------------------------------------------
   31 O1    x      -1.9005      0.8420      0.3374
            y       0.8179     -2.5691     -0.2981
            z       0.4261     -0.3431     -1.5993
-------------------------------------------------------------------------------
   32 O3    x      -1.9250      0.8694     -0.5478
            y       0.8002     -2.3311      0.5583
            z      -0.4855      0.5628     -1.5675
-------------------------------------------------------------------------------
   33 O1    x      -2.0770      0.2891      0.9119
            y       0.1357     -1.2993     -0.1848
            z       1.1427     -0.3383     -3.0643
-------------------------------------------------------------------------------
   34 O1    x      -2.1022      0.2162     -0.9452
            y       0.0880     -1.2847      0.0982
            z      -1.1669      0.1757     -3.0834
-------------------------------------------------------------------------------
   35 O1    x      -2.1400      0.2473     -0.8210
            y       0.1185     -1.3581      0.1898
            z      -0.7974      0.2520     -2.5772
-------------------------------------------------------------------------------
   36 O1    x      -2.1642      0.2343      0.8059
            y       0.1301     -1.3142     -0.1303
            z       0.8074     -0.1452     -2.6874
-------------------------------------------------------------------------------
   37 O1    x      -2.1059      0.2226     -0.8114
            y       0.1062     -1.3092      0.1289
            z      -0.8360      0.1742     -2.7852
-------------------------------------------------------------------------------
   38 O1    x      -2.1471      0.2119      0.8498
            y       0.0937     -1.3332     -0.1554
            z       0.8394     -0.2042     -2.6301
-------------------------------------------------------------------------------
   39 O1    x      -2.2324     -0.9062      0.5460
            y      -0.9165     -2.3018      0.5257
            z       0.4646      0.5199     -1.5957
-------------------------------------------------------------------------------
   40 O1    x      -2.2504     -0.9094     -0.2983
            y      -0.9559     -2.2856     -0.3291
            z      -0.3587     -0.3467     -1.4931
-------------------------------------------------------------------------------
   41 O1    x      -2.0998      0.9075      0.3680
            y       0.8768     -2.4859     -0.2759
            z       0.4219     -0.3259     -1.4892
-------------------------------------------------------------------------------
   42 O1    x      -1.9632      0.8491     -0.5424
            y       0.7905     -2.6512      0.5703
            z      -0.4714      0.5460     -1.5684
-------------------------------------------------------------------------------
   43 O1    x      -2.1886     -0.8950      0.3083
            y      -0.9663     -2.3364      0.3514
            z       0.3700      0.3584     -1.4986
-------------------------------------------------------------------------------
   44 O3    x      -2.0271     -0.8753     -0.5545
            y      -0.8746     -2.2429     -0.5687
            z      -0.4893     -0.5731     -1.5479
-------------------------------------------------------------------------------
   45 O1    x      -2.0335      0.8394      0.5612
            y       0.7603     -2.5223     -0.5669
            z       0.4886     -0.5432     -1.5654
-------------------------------------------------------------------------------
   46 O1    x      -2.0369      0.8683     -0.3447
            y       0.8120     -2.5178      0.2588
            z      -0.3877      0.3000     -1.4568
-------------------------------------------------------------------------------
   47 O1    x      -2.1603      0.2326     -0.7185
            y       0.1369     -1.3719      0.1512
            z      -0.5003      0.1280     -2.2867
-------------------------------------------------------------------------------
   48 O1    x      -2.2037      0.2114      0.7247
            y       0.1020     -1.3619     -0.1496
            z       0.4888     -0.1404     -2.2629
-------------------------------------------------------------------------------
   49 O1    x      -1.3532      0.2239      0.1031
            y       0.3305     -3.1226     -0.0534
            z       0.0603     -0.0578     -1.4003
-------------------------------------------------------------------------------
   50 O3    x      -1.2584      0.1552     -0.0501
            y       0.2517     -3.0042     -0.1691
            z      -0.0044     -0.1716     -1.3145
-------------------------------------------------------------------------------
   51 O1    x      -1.3633      0.2044      0.0664
            y       0.3086     -3.1475      0.0119
            z       0.0226      0.0147     -1.4037
-------------------------------------------------------------------------------
   52 O1    x      -1.3561      0.2000     -0.0721
            y       0.3078     -3.1504     -0.0014
            z      -0.0260     -0.0151     -1.3905
-------------------------------------------------------------------------------
   53 O3    x      -2.7996     -0.3285      0.0262
            y      -0.2665     -1.5018      0.0323
            z      -0.0106      0.0603     -1.1589
-------------------------------------------------------------------------------
   54 O1    x      -3.0457     -0.2309      0.0285
            y      -0.1421     -1.5776     -0.0160
            z       0.0418     -0.0459     -1.2116
-------------------------------------------------------------------------------
   55 O1    x      -3.0496     -0.2777     -0.0112
            y      -0.1905     -1.5785     -0.0195
            z       0.0118     -0.0505     -1.2203
-------------------------------------------------------------------------------
   56 O1    x      -3.0561     -0.2731     -0.0209
            y      -0.1903     -1.5824      0.0061
            z      -0.0339      0.0414     -1.2229
-------------------------------------------------------------------------------
   57 O3    x      -1.3983     -0.0936      0.0162
            y      -0.1067     -1.3399      0.0502
            z       0.0171      0.0496     -2.5806
-------------------------------------------------------------------------------
   58 O1    x      -1.4807     -0.1271      0.0128
            y      -0.1420     -1.4577      0.0849
            z       0.0240      0.0749     -2.6682
-------------------------------------------------------------------------------
   59 O1    x      -1.4609      0.0129     -0.0312
            y       0.0818     -1.4308     -0.0131
            z      -0.0320     -0.0203     -2.7374
-------------------------------------------------------------------------------
   60 O1    x      -1.4598      0.0153      0.0447
            y       0.0829     -1.4268     -0.0001
            z       0.0294      0.0027     -2.7513
-------------------------------------------------------------------------------
   61 O1    x      -1.4947     -0.1004     -0.0281
            y      -0.1084     -1.4237     -0.0207
            z      -0.0302     -0.0220     -2.7262
-------------------------------------------------------------------------------
   62 O1    x      -1.4989     -0.1050      0.0097
            y      -0.1179     -1.4227     -0.0120
            z       0.0181     -0.0017     -2.7281
-------------------------------------------------------------------------------
   63 O1    x      -1.4642      0.0453     -0.0283
            y       0.1118     -1.4370     -0.0124
            z      -0.0182      0.0160     -2.6920
-------------------------------------------------------------------------------
   64 O3    x      -1.3530      0.0061      0.0524
            y       0.0780     -1.3608      0.0655
            z       0.0546      0.0654     -2.6021
-------------------------------------------------------------------------------
   65 O1    x      -1.4009      0.2163      0.0827
            y       0.3090     -3.1616      0.0218
            z       0.0343      0.0113     -1.3493
-------------------------------------------------------------------------------
   66 O1    x      -1.3933      0.2068     -0.0832
            y       0.3039     -3.1253     -0.0162
            z      -0.0278     -0.0182     -1.3537
-------------------------------------------------------------------------------
   67 O1    x      -1.3543      0.1151      0.1076
            y       0.2123     -3.1469     -0.0163
            z       0.0435      0.0284     -1.3712
-------------------------------------------------------------------------------
   68 O3    x      -1.3149      0.2110     -0.0922
            y       0.2817     -3.0238      0.0481
            z      -0.0510      0.0719     -1.2484
-------------------------------------------------------------------------------
   69 O1    x      -3.0844     -0.2993     -0.0108
            y      -0.2085     -1.5887      0.0029
            z      -0.0211      0.0372     -1.1945
-------------------------------------------------------------------------------
   70 O1    x      -3.0788     -0.2858     -0.0133
            y      -0.1943     -1.5828     -0.0213
            z       0.0217     -0.0480     -1.1953
-------------------------------------------------------------------------------
   71 O3    x      -2.9173     -0.1829      0.0400
            y      -0.0904     -1.4338     -0.0189
            z       0.0226     -0.0527     -1.1412
-------------------------------------------------------------------------------
   72 O1    x      -3.0442     -0.2854      0.0238
            y      -0.2003     -1.5941      0.0157
            z      -0.0060      0.0445     -1.1814
-------------------------------------------------------------------------------




  Elastic Constant Matrix: (Units=GPa)

-------------------------------------------------------------------------------
  Indices      1         2         3         4         5         6    
-------------------------------------------------------------------------------
       1     26.6357   10.4416    7.8395    0.5318   -0.0539   -7.2203
       2     10.4416   32.2839    6.2453    0.6633   -0.1590   -7.2050
       3      7.8395    6.2453   12.9316    0.4979   -0.0553   -2.0576
       4      0.5318    0.6633    0.4979    8.1733   -1.7024   -0.4564
       5     -0.0539   -0.1590   -0.0553   -1.7024   15.8308    1.1598
       6     -7.2203   -7.2050   -2.0576   -0.4564    1.1598   19.5937
-------------------------------------------------------------------------------


  Elastic Compliance Matrix: (Units=1/GPa)

-------------------------------------------------------------------------------
  Indices      1         2         3         4         5         6    
-------------------------------------------------------------------------------
       1    0.052072 -0.009017 -0.025080 -0.000603 -0.001039  0.013286
       2   -0.009017  0.038261 -0.011441 -0.001400 -0.000536  0.009544
       3   -0.025080 -0.011441  0.097676 -0.003573 -0.000003 -0.003275
       4   -0.000603 -0.001400 -0.003573  0.125568  0.013400  0.001019
       5   -0.001039 -0.000536 -0.000003  0.013400  0.064901 -0.004110
       6    0.013286  0.009544 -0.003275  0.001019 -0.004110  0.059366
-------------------------------------------------------------------------------

  Mechanical properties :

-------------------------------------------------------------------------------
  Convention :                    Reuss         Voigt         Hill
-------------------------------------------------------------------------------
  Bulk  Modulus (GPa)     =      10.31649      13.43377      11.87513
  Shear Modulus (GPa)     =       8.90898      11.87454      10.39176
-------------------------------------------------------------------------------
  Velocity S-wave (km/s)  =       1.77926       2.05416       1.92163
  Velocity P-wave (km/s)  =       2.80837       3.22486       3.02380
-------------------------------------------------------------------------------
  Compressibility (1/GPa) =    0.09693218
-------------------------------------------------------------------------------
  Stress axis :                     x             y             z
-------------------------------------------------------------------------------
  Youngs Moduli (GPa)     =      19.20426      26.13613      10.23794
-------------------------------------------------------------------------------
  Poissons Ratio (x)      =                     0.23568       0.25676
  Poissons Ratio (y)      =       0.17317                     0.11713
  Poissons Ratio (z)      =       0.48164       0.29903
-------------------------------------------------------------------------------


  Piezoelectric Strain Matrix: (Units=C/m**2)

-------------------------------------------------------------------------------
  Indices      1         2         3         4         5         6    
-------------------------------------------------------------------------------
       x     0.23788   0.44814   0.32661   0.02570  -0.00198   0.14574
       y     0.48296   0.41636   0.43939  -0.06921   0.04743  -0.16664
       z    -0.05874  -0.04327   0.05078   0.19476  -0.21570   0.17367
-------------------------------------------------------------------------------


  Piezoelectric Stress Matrix: (Units=10**-11 C/N)

-------------------------------------------------------------------------------
  Indices      1         2         3         4         5         6    
-------------------------------------------------------------------------------
       x     0.20775   1.26204   2.02396   0.14113  -0.08716   1.50544
       y     0.81526   0.50294   2.68348  -1.06696   0.21091  -0.12062
       z    -0.15277  -0.02064   0.56642   2.16573  -1.20191   1.00352
-------------------------------------------------------------------------------


  Static dielectric constant tensor : 

-------------------------------------------------------------------------------
              x         y         z
-------------------------------------------------------------------------------
       x     5.32596  -0.03471  -0.02281
       y    -0.03471   6.35416   0.05582
       z    -0.02281   0.05582   4.27192
--------------------------------------------------------------------------------

  High frequency dielectric constant tensor : 

-------------------------------------------------------------------------------
              x         y         z
-------------------------------------------------------------------------------
       x     1.53297  -0.00254   0.00037
       y    -0.00254   1.53964   0.00050
       z     0.00037   0.00050   1.49453
-------------------------------------------------------------------------------

  Static refractive indices : 

-------------------------------------------------------------------------------
    1 =    2.06639      2 =    2.30764      3 =    2.52128
-------------------------------------------------------------------------------

  High frequency refractive indices : 

-------------------------------------------------------------------------------
    1 =    1.22250      2 =    1.23779      3 =    1.24117
-------------------------------------------------------------------------------


  Time to end of optimisation =       6.5057 seconds


  Peak dynamic memory used =       5.01 MB 


  Timing analysis for GULP :

--------------------------------------------------------------------------------
  Task / Subroutine                                          Time (Seconds)
--------------------------------------------------------------------------------
  Calculation of reciprocal space energy and derivatives          0.4130
  Calculation of real space energy and derivatives                4.4768
  Calculation of three-body energy and derivatives                0.0362
  Calculation and manipulation of Hessian matrix                  1.8338
  Calculation of matrix inversion                                 0.0184
--------------------------------------------------------------------------------
  Total CPU time                                                  6.5057
--------------------------------------------------------------------------------


  Dump file written as c00010.vasp.grs
  CIF file written as c00010.vasp.cif


  Job Finished at 18:35.15 30th October    2025                               

