********************************************************************************
*                       GENERAL UTILITY LATTICE PROGRAM                        *
*                                 Julian Gale                                  *
*                       Curtin Institute for Computation                       *
*                    School of Molecular and Life Sciences                     *
*                    Curtin University, Western Australia                      *
********************************************************************************
* Version = 6.1.2 * Last modified =   3rd November 2022                        *
********************************************************************************
*  optimise     - perform optimisation run                                     *
*  conp         - constant pressure calculation                                *
*  property     - calculate properties for final geometry                      *
********************************************************************************

  Job Started  at 18:34.50 30th October    2025                               

  Number of CPUs =     1


  Total number of configurations input =      1

********************************************************************************
*  Input for Configuration =   1 : c00008.vasp                                 *
********************************************************************************

  Formula = Ge22Si2O48                                                  

  Number of irreducible atoms/shells =     120


  Total number atoms/shells =     120

  Dimensionality = 3               :  Bulk   



  Cartesian lattice vectors (Angstroms) :

       17.182800    0.000000    0.000000
        0.000000    7.513760    0.000000
        0.000000    0.000000   10.447700

  Cell parameters (Angstroms/Degrees):

  a =      17.1828    alpha =  90.0000
  b =       7.5138    beta  =  90.0000
  c =      10.4477    gamma =  90.0000

  Initial cell volume =        1348.875752 Angs**3

  Temperature of configuration =   0.00     K 

  Pressure of configuration =         0.000 GPa 

  Fractional coordinates of asymmetric unit :

--------------------------------------------------------------------------------
   No.  Atomic       x           y          z         Charge      Occupancy
        Label      (Frac)      (Frac)     (Frac)        (e)         (Frac)  
--------------------------------------------------------------------------------
      1 Ge    c    0.052090    0.000000    0.372270     4.00000    1.000000    
      2 Ge    c    0.447910 *  0.000000 *  0.372270 *   4.00000    1.000000    
      3 Ge    c    0.947910 *  0.000000 *  0.627730 *   4.00000    1.000000    
      4 Ge    c    0.552090 *  0.000000 *  0.627730 *   4.00000    1.000000    
      5 Ge    c    0.556730 *  0.000000 *  0.122130 *   4.00000    1.000000    
      6 Ge    c    0.943270 *  0.000000 *  0.122130 *   4.00000    1.000000    
      7 Ge    c    0.443270 *  0.000000 *  0.877870 *   4.00000    1.000000    
      8 Ge    c    0.056730 *  0.000000 *  0.877870 *   4.00000    1.000000    
      9 Ge    c    0.160190 *  0.293910 *  0.273440 *   4.00000    1.000000    
     10 Ge    c    0.339810 *  0.706090 *  0.273440 *   4.00000    1.000000    
     11 Ge    c    0.839810 *  0.293910 *  0.726560 *   4.00000    1.000000    
     12 Ge    c    0.660190 *  0.706090 *  0.726560 *   4.00000    1.000000    
     13 Ge    c    0.839810 *  0.706090 *  0.726560 *   4.00000    1.000000    
     14 Ge    c    0.660190 *  0.293910 *  0.726560 *   4.00000    1.000000    
     15 Ge    c    0.160190 *  0.706090 *  0.273440 *   4.00000    1.000000    
     16 Ge    c    0.660660 *  0.294090 *  0.017440 *   4.00000    1.000000    
     17 Ge    c    0.839340 *  0.705910 *  0.017440 *   4.00000    1.000000    
     18 Ge    c    0.339340 *  0.294090 *  0.982560 *   4.00000    1.000000    
     19 Ge    c    0.160660 *  0.705910 *  0.982560 *   4.00000    1.000000    
     20 Ge    c    0.339340 *  0.705910 *  0.982560 *   4.00000    1.000000    
     21 Ge    c    0.160660 *  0.294090 *  0.982560 *   4.00000    1.000000    
     22 Ge    c    0.660660 *  0.705910 *  0.017440 *   4.00000    1.000000    
     23 Si    c    0.339810 *  0.293910 *  0.273440 *   4.00000    1.000000    
     24 Si    c    0.839340 *  0.294090 *  0.017440 *   4.00000    1.000000    
     25 O1    c    0.106570 *  0.174340 *  0.366200 *   1.73396    1.000000    
     26 O1    c    0.393430 *  0.825660 *  0.366200 *   1.73396    1.000000    
     27 O1    c    0.893430 *  0.174340 *  0.633800 *   1.73396    1.000000    
     28 O1    c    0.606570 *  0.825660 *  0.633800 *   1.73396    1.000000    
     29 O1    c    0.893430 *  0.825660 *  0.633800 *   1.73396    1.000000    
     30 O1    c    0.606570 *  0.174340 *  0.633800 *   1.73396    1.000000    
     31 O1    c    0.106570 *  0.825660 *  0.366200 *   1.73396    1.000000    
     32 O3    c    0.393430 *  0.174340 *  0.366200 *   1.33043    1.000000    
     33 O1    c    0.000000 *  0.000000 *  0.500000 *   1.73396    1.000000    
     34 O1    c    0.500000 *  0.000000 *  0.500000 *   1.73396    1.000000    
     35 O1    c    0.994520 *  0.000000 *  0.250840 *   1.73396    1.000000    
     36 O1    c    0.505480 *  0.000000 *  0.250840 *   1.73396    1.000000    
     37 O1    c    0.005480 *  0.000000 *  0.749160 *   1.73396    1.000000    
     38 O1    c    0.494520 *  0.000000 *  0.749160 *   1.73396    1.000000    
     39 O1    c    0.610230 *  0.175520 *  0.115390 *   1.73396    1.000000    
     40 O1    c    0.889770 *  0.824480 *  0.115390 *   1.73396    1.000000    
     41 O1    c    0.389770 *  0.175520 *  0.884610 *   1.73396    1.000000    
     42 O1    c    0.110230 *  0.824480 *  0.884610 *   1.73396    1.000000    
     43 O1    c    0.389770 *  0.824480 *  0.884610 *   1.73396    1.000000    
     44 O1    c    0.110230 *  0.175520 *  0.884610 *   1.73396    1.000000    
     45 O1    c    0.610230 *  0.824480 *  0.115390 *   1.73396    1.000000    
     46 O3    c    0.889770 *  0.175520 *  0.115390 *   1.33043    1.000000    
     47 O1    c    0.500000 *  0.000000 *  0.000000 *   1.73396    1.000000    
     48 O1    c    0.000000 *  0.000000 *  0.000000 *   1.73396    1.000000    
     49 O1    c    0.151750 *  0.500000 *  0.313330 *   1.73396    1.000000    
     50 O3    c    0.348250 *  0.500000 *  0.313330 *   1.33043    1.000000    
     51 O1    c    0.848250 *  0.500000 *  0.686670 *   1.73396    1.000000    
     52 O1    c    0.651750 *  0.500000 *  0.686670 *   1.73396    1.000000    
     53 O3    c    0.250000 *  0.234950 *  0.285720 *   1.33043    1.000000    
     54 O1    c    0.250000 *  0.765050 *  0.285720 *   1.73396    1.000000    
     55 O1    c    0.750000 *  0.234950 *  0.714280 *   1.73396    1.000000    
     56 O1    c    0.750000 *  0.765050 *  0.714280 *   1.73396    1.000000    
     57 O1    c    0.131410 *  0.268650 *  0.127790 *   1.73396    1.000000    
     58 O1    c    0.368590 *  0.731350 *  0.127790 *   1.73396    1.000000    
     59 O3    c    0.868590 *  0.268650 *  0.872210 *   1.33043    1.000000    
     60 O1    c    0.631410 *  0.731350 *  0.872210 *   1.73396    1.000000    
     61 O1    c    0.868590 *  0.731350 *  0.872210 *   1.73396    1.000000    
     62 O1    c    0.631410 *  0.268650 *  0.872210 *   1.73396    1.000000    
     63 O1    c    0.131410 *  0.731350 *  0.127790 *   1.73396    1.000000    
     64 O3    c    0.368590 *  0.268650 *  0.127790 *   1.33043    1.000000    
     65 O1    c    0.653920 *  0.500000 *  0.058200 *   1.73396    1.000000    
     66 O3    c    0.846080 *  0.500000 *  0.058200 *   1.33043    1.000000    
     67 O1    c    0.346080 *  0.500000 *  0.941800 *   1.73396    1.000000    
     68 O1    c    0.153920 *  0.500000 *  0.941800 *   1.73396    1.000000    
     69 O3    c    0.750000 *  0.231060 *  0.027050 *   1.33043    1.000000    
     70 O1    c    0.750000 *  0.768940 *  0.027050 *   1.73396    1.000000    
     71 O1    c    0.250000 *  0.231060 *  0.972950 *   1.73396    1.000000    
     72 O1    c    0.250000 *  0.768940 *  0.972950 *   1.73396    1.000000    
     73 O1    s    0.106570 *  0.174340 *  0.366200 *  -3.73396    1.000000    
     74 O1    s    0.393430 *  0.825660 *  0.366200 *  -3.73396    1.000000    
     75 O1    s    0.893430 *  0.174340 *  0.633800 *  -3.73396    1.000000    
     76 O1    s    0.606570 *  0.825660 *  0.633800 *  -3.73396    1.000000    
     77 O1    s    0.893430 *  0.825660 *  0.633800 *  -3.73396    1.000000    
     78 O1    s    0.606570 *  0.174340 *  0.633800 *  -3.73396    1.000000    
     79 O1    s    0.106570 *  0.825660 *  0.366200 *  -3.73396    1.000000    
     80 O3    s    0.393430 *  0.174340 *  0.366200 *  -3.33043    1.000000    
     81 O1    s    0.000000 *  0.000000 *  0.500000 *  -3.73396    1.000000    
     82 O1    s    0.500000 *  0.000000 *  0.500000 *  -3.73396    1.000000    
     83 O1    s    0.994520 *  0.000000 *  0.250840 *  -3.73396    1.000000    
     84 O1    s    0.505480 *  0.000000 *  0.250840 *  -3.73396    1.000000    
     85 O1    s    0.005480 *  0.000000 *  0.749160 *  -3.73396    1.000000    
     86 O1    s    0.494520 *  0.000000 *  0.749160 *  -3.73396    1.000000    
     87 O1    s    0.610230 *  0.175520 *  0.115390 *  -3.73396    1.000000    
     88 O1    s    0.889770 *  0.824480 *  0.115390 *  -3.73396    1.000000    
     89 O1    s    0.389770 *  0.175520 *  0.884610 *  -3.73396    1.000000    
     90 O1    s    0.110230 *  0.824480 *  0.884610 *  -3.73396    1.000000    
     91 O1    s    0.389770 *  0.824480 *  0.884610 *  -3.73396    1.000000    
     92 O1    s    0.110230 *  0.175520 *  0.884610 *  -3.73396    1.000000    
     93 O1    s    0.610230 *  0.824480 *  0.115390 *  -3.73396    1.000000    
     94 O3    s    0.889770 *  0.175520 *  0.115390 *  -3.33043    1.000000    
     95 O1    s    0.500000 *  0.000000 *  0.000000 *  -3.73396    1.000000    
     96 O1    s    0.000000 *  0.000000 *  0.000000 *  -3.73396    1.000000    
     97 O1    s    0.151750 *  0.500000 *  0.313330 *  -3.73396    1.000000    
     98 O3    s    0.348250 *  0.500000 *  0.313330 *  -3.33043    1.000000    
     99 O1    s    0.848250 *  0.500000 *  0.686670 *  -3.73396    1.000000    
    100 O1    s    0.651750 *  0.500000 *  0.686670 *  -3.73396    1.000000    
    101 O3    s    0.250000 *  0.234950 *  0.285720 *  -3.33043    1.000000    
    102 O1    s    0.250000 *  0.765050 *  0.285720 *  -3.73396    1.000000    
    103 O1    s    0.750000 *  0.234950 *  0.714280 *  -3.73396    1.000000    
    104 O1    s    0.750000 *  0.765050 *  0.714280 *  -3.73396    1.000000    
    105 O1    s    0.131410 *  0.268650 *  0.127790 *  -3.73396    1.000000    
    106 O1    s    0.368590 *  0.731350 *  0.127790 *  -3.73396    1.000000    
    107 O3    s    0.868590 *  0.268650 *  0.872210 *  -3.33043    1.000000    
    108 O1    s    0.631410 *  0.731350 *  0.872210 *  -3.73396    1.000000    
    109 O1    s    0.868590 *  0.731350 *  0.872210 *  -3.73396    1.000000    
    110 O1    s    0.631410 *  0.268650 *  0.872210 *  -3.73396    1.000000    
    111 O1    s    0.131410 *  0.731350 *  0.127790 *  -3.73396    1.000000    
    112 O3    s    0.368590 *  0.268650 *  0.127790 *  -3.33043    1.000000    
    113 O1    s    0.653920 *  0.500000 *  0.058200 *  -3.73396    1.000000    
    114 O3    s    0.846080 *  0.500000 *  0.058200 *  -3.33043    1.000000    
    115 O1    s    0.346080 *  0.500000 *  0.941800 *  -3.73396    1.000000    
    116 O1    s    0.153920 *  0.500000 *  0.941800 *  -3.73396    1.000000    
    117 O3    s    0.750000 *  0.231060 *  0.027050 *  -3.33043    1.000000    
    118 O1    s    0.750000 *  0.768940 *  0.027050 *  -3.73396    1.000000    
    119 O1    s    0.250000 *  0.231060 *  0.972950 *  -3.73396    1.000000    
    120 O1    s    0.250000 *  0.768940 *  0.972950 *  -3.73396    1.000000    
--------------------------------------------------------------------------------



********************************************************************************
*  General input information                                                   *
********************************************************************************

  Species output for all configurations : 

--------------------------------------------------------------------------------
  Species    Type    Atomic    Atomic    Charge       Radii (Angs)     Library
                     Number     Mass       (e)     Cova   Ionic  VDW   Symbol
--------------------------------------------------------------------------------
    Ge       Core       32      72.61   4.000000   1.170  0.000  1.750 Ge       
    Si       Core       14      28.09   4.000000   1.200  0.000  2.100 Si       
    O1       Core        8      16.00   1.733957   0.730  0.000  1.360 O1       
    O2       Core        8      16.00   0.870733   0.730  0.000  0.000 O2       
    O3       Core        8      16.00   1.330431   0.730  0.000  1.360 O3       
    O1       Shell       8       0.00  -3.733957   0.730  0.000  0.000 O1       
    O2       Shell       8       0.00  -2.870733   0.730  0.000  0.000 O2       
    O3       Shell       8       0.00  -3.330431   0.730  0.000  0.000 O3       
--------------------------------------------------------------------------------


  Lattice summation method               =    Ewald          (3-D)
                                         =    Parry          (2-D)
                                         =    Saunders et al (1-D)
  Accuracy factor for lattice sums       =   12.000


  Analytic derivatives to be used

  Time limit = Infinity

  Maximum range for interatomic potentials =    100000.000000 Angstroms

  General interatomic potentials :

--------------------------------------------------------------------------------
Atom  Types   Potential      Parameter       Value         Units   Cutoffs(Ang)
  1     2                                                            Min /  Max 
--------------------------------------------------------------------------------
Si   c O1   s Buckingham    Buckingham A     1315.2478    eV        0.000 16.000
                            Buckingham rho  0.31775900    Ang       
                            Buckingham C     10.141118    eV*Ang^6  
--------------------------------------------------------------------------------
Si   c O2   s Buckingham    Buckingham A     1315.2478    eV        0.000 16.000
                            Buckingham rho  0.31775900    Ang       
                            Buckingham C     10.141118    eV*Ang^6  
--------------------------------------------------------------------------------
Si   c O3   s Buckingham    Buckingham A     1315.2478    eV        0.000 16.000
                            Buckingham rho  0.31775900    Ang       
                            Buckingham C     10.141118    eV*Ang^6  
--------------------------------------------------------------------------------
Ge   c O1   s Buckingham    Buckingham A     1497.3996    eV        0.000 16.000
                            Buckingham rho  0.32564600    Ang       
                            Buckingham C     16.808599    eV*Ang^6  
--------------------------------------------------------------------------------
Ge   c O2   s Buckingham    Buckingham A     1497.3996    eV        0.000 16.000
                            Buckingham rho  0.32564600    Ang       
                            Buckingham C     16.808599    eV*Ang^6  
--------------------------------------------------------------------------------
Ge   c O3   s Buckingham    Buckingham A     1497.3996    eV        0.000 16.000
                            Buckingham rho  0.32564600    Ang       
                            Buckingham C     16.808599    eV*Ang^6  
--------------------------------------------------------------------------------
O1   s O1   s Buckingham    Buckingham A     22764.000    eV        0.000 16.000
                            Buckingham rho  0.14900000    Ang       
                            Buckingham C     10.937044    eV*Ang^6  
--------------------------------------------------------------------------------
O1   s O2   s Buckingham    Buckingham A     22764.000    eV        0.000 16.000
                            Buckingham rho  0.14900000    Ang       
                            Buckingham C     10.937044    eV*Ang^6  
--------------------------------------------------------------------------------
O1   s O3   s Buckingham    Buckingham A     22764.000    eV        0.000 16.000
                            Buckingham rho  0.14900000    Ang       
                            Buckingham C     10.937044    eV*Ang^6  
--------------------------------------------------------------------------------
O2   s O2   s Buckingham    Buckingham A     22764.000    eV        0.000 16.000
                            Buckingham rho  0.14900000    Ang       
                            Buckingham C     10.937044    eV*Ang^6  
--------------------------------------------------------------------------------
O2   s O3   s Buckingham    Buckingham A     22764.000    eV        0.000 16.000
                            Buckingham rho  0.14900000    Ang       
                            Buckingham C     10.937044    eV*Ang^6  
--------------------------------------------------------------------------------
O3   s O3   s Buckingham    Buckingham A     22764.000    eV        0.000 16.000
                            Buckingham rho  0.14900000    Ang       
                            Buckingham C     10.937044    eV*Ang^6  
--------------------------------------------------------------------------------
O1   c O1   s Spring (c-s)  Spring k 2       180.31577    eV*Ang^-2 0.000  0.800
                            Spring k 4       0.0000000    eV*Ang^-4 
--------------------------------------------------------------------------------
O2   c O2   s Spring (c-s)  Spring k 2       75.969800    eV*Ang^-2 0.000  0.800
                            Spring k 4       0.0000000    eV*Ang^-4 
--------------------------------------------------------------------------------
O3   c O3   s Spring (c-s)  Spring k 2       128.14270    eV*Ang^-2 0.000  0.800
                            Spring k 4       0.0000000    eV*Ang^-4 
--------------------------------------------------------------------------------

  General Three-body potentials :

--------------------------------------------------------------------------------
  Atoms       Potential      Parameter       Value         Units   Cutoffs(Ang)
  1 / 2 / 3                                                          Min /  Max 
--------------------------------------------------------------------------------
Si    core    Harmonic      Three-body cnst  1.2614000    eV*rad^-2 0.000  1.900
O1    shel                  Three-body angl  109.47000    degrees   0.000  1.900
O1    shel                  Three-body k4    0.0000000    eV*rad^-4 0.000  3.500
                            Three-body k3    0.0000000    eV*rad^-3 
--------------------------------------------------------------------------------
Si    core    Harmonic      Three-body cnst  1.2614000    eV*rad^-2 0.000  1.900
O1    shel                  Three-body angl  109.47000    degrees   0.000  1.900
õ(1   shel                  Three-body k4    0.0000000    eV*rad^-4 0.000  3.500
                            Three-body k3    0.0000000    eV*rad^-3 
--------------------------------------------------------------------------------
Si    core    Harmonic      Three-body cnst  1.2614000    eV*rad^-2 0.000  1.900
õ(1   shel                  Three-body angl  109.47000    degrees   0.000  1.900
õ(1   shel                  Three-body k4    0.0000000    eV*rad^-4 0.000  3.500
                            Three-body k3    0.0000000    eV*rad^-3 
--------------------------------------------------------------------------------
Si    core    Harmonic      Three-body cnst  1.2614000    eV*rad^-2 0.000  1.900
O1    shel                  Three-body angl  109.47000    degrees   0.000  1.900
O2    shel                  Three-body k4    0.0000000    eV*rad^-4 0.000  3.500
                            Three-body k3    0.0000000    eV*rad^-3 
--------------------------------------------------------------------------------
Si    core    Harmonic      Three-body cnst  1.2614000    eV*rad^-2 0.000  1.900
O1    shel                  Three-body angl  109.47000    degrees   0.000  1.900
õ(2   shel                  Three-body k4    0.0000000    eV*rad^-4 0.000  3.500
                            Three-body k3    0.0000000    eV*rad^-3 
--------------------------------------------------------------------------------
Si    core    Harmonic      Three-body cnst  1.2614000    eV*rad^-2 0.000  1.900
O2    shel                  Three-body angl  109.47000    degrees   0.000  1.900
õ(1   shel                  Three-body k4    0.0000000    eV*rad^-4 0.000  3.500
                            Three-body k3    0.0000000    eV*rad^-3 
--------------------------------------------------------------------------------
Si    core    Harmonic      Three-body cnst  1.2614000    eV*rad^-2 0.000  1.900
õ(1   shel                  Three-body angl  109.47000    degrees   0.000  1.900
õ(2   shel                  Three-body k4    0.0000000    eV*rad^-4 0.000  3.500
                            Three-body k3    0.0000000    eV*rad^-3 
--------------------------------------------------------------------------------
Si    core    Harmonic      Three-body cnst  1.2614000    eV*rad^-2 0.000  1.900
O2    shel                  Three-body angl  109.47000    degrees   0.000  1.900
O2    shel                  Three-body k4    0.0000000    eV*rad^-4 0.000  3.500
                            Three-body k3    0.0000000    eV*rad^-3 
--------------------------------------------------------------------------------
Si    core    Harmonic      Three-body cnst  1.2614000    eV*rad^-2 0.000  1.900
O2    shel                  Three-body angl  109.47000    degrees   0.000  1.900
õ(2   shel                  Three-body k4    0.0000000    eV*rad^-4 0.000  3.500
                            Three-body k3    0.0000000    eV*rad^-3 
--------------------------------------------------------------------------------
Si    core    Harmonic      Three-body cnst  1.2614000    eV*rad^-2 0.000  1.900
õ(2   shel                  Three-body angl  109.47000    degrees   0.000  1.900
õ(2   shel                  Three-body k4    0.0000000    eV*rad^-4 0.000  3.500
                            Three-body k3    0.0000000    eV*rad^-3 
--------------------------------------------------------------------------------

********************************************************************************
*  Output for configuration   1 : c00008.vasp                                  *
********************************************************************************


  Components of energy : 

--------------------------------------------------------------------------------
  Interatomic potentials     =         912.64032029 eV    
  Three-body potentials      =           0.00000000 eV    
  Monopole - monopole (real) =       -2676.00317478 eV    
  Monopole - monopole (recip)=       -1115.35404472 eV    
  Monopole - monopole (total)=       -3791.35721950 eV    
--------------------------------------------------------------------------------
  Total lattice energy       =       -2878.71689922 eV    
--------------------------------------------------------------------------------
  Total lattice energy       =         -277752.1756 kJ/(mole unit cells)
--------------------------------------------------------------------------------


  Number of variables =      363

  Maximum number of calculations  =          1000
  Maximum Hessian update interval =            10
  Maximum step size               =   0.100000000
  Maximum parameter tolerance     =   0.000010000
  Maximum function  tolerance     =   0.000010000
  Maximum gradient  tolerance     =   0.001000000
  Maximum gradient  component     =   0.010000000

  Symmetry not applied to optimisation

  Cell parameters to be optimised using strains

  Newton-Raphson optimiser to be used

  BFGS hessian update to be used

  Lower half triangular hessian to be used

  Minimiser to switch to RFO
  When gradient norm is less than     0.050000

  Dumpfile to be written after every cycle

  Start of bulk optimisation :

  Cycle:      0 Energy:     -2878.716899  Gnorm:      5.963726  CPU:    0.091
  ** Hessian calculated **
  Cycle:      1 Energy:     -2924.602824  Gnorm:      1.442297  CPU:    0.205
  ** Hessian calculated **
  Cycle:      2 Energy:     -2929.844623  Gnorm:      0.766563  CPU:    0.377
  Cycle:      3 Energy:     -2930.692215  Gnorm:      0.309929  CPU:    0.457
  Cycle:      4 Energy:     -2930.974515  Gnorm:      0.250593  CPU:    0.551
  Cycle:      5 Energy:     -2931.330994  Gnorm:      0.212271  CPU:    0.645
  Cycle:      6 Energy:     -2931.732058  Gnorm:      0.186812  CPU:    0.739
  Cycle:      7 Energy:     -2931.999820  Gnorm:      0.142241  CPU:    0.819
  Cycle:      8 Energy:     -2932.099544  Gnorm:      0.104277  CPU:    0.899
  Cycle:      9 Energy:     -2932.143698  Gnorm:      0.076205  CPU:    0.993
  Cycle:     10 Energy:     -2932.173802  Gnorm:      0.069839  CPU:    1.087
  Cycle:     11 Energy:     -2932.204521  Gnorm:      0.068789  CPU:    1.182
  ** Hessian calculated **
  Cycle:     12 Energy:     -2932.213818  Gnorm:      0.060353  CPU:    1.355
  Cycle:     13 Energy:     -2932.229635  Gnorm:      0.056062  CPU:    1.464
  Cycle:     14 Energy:     -2932.248545  Gnorm:      0.050785  CPU:    1.559
  Cycle:     15 Energy:     -2932.271186  Gnorm:      0.045015  CPU:    1.653
  ** Hessian has required structure
  Cycle:     16 Energy:     -2932.277448  Gnorm:      0.085431  CPU:    1.766
  ** Hessian has required structure
  Cycle:     17 Energy:     -2932.288216  Gnorm:      0.101681  CPU:    1.902
  ** Hessian has required structure
  Cycle:     18 Energy:     -2932.302403  Gnorm:      0.113144  CPU:    2.024
  ** Hessian has required structure
  Cycle:     19 Energy:     -2932.308011  Gnorm:      0.119632  CPU:    2.146
  ** Hessian has required structure
  Cycle:     20 Energy:     -2932.312505  Gnorm:      0.126745  CPU:    2.269
  ** Hessian has required structure
  Cycle:     21 Energy:     -2932.316689  Gnorm:      0.102989  CPU:    2.393
  ** Hessian has wrong structure
  ** Imaginary eigenvectors =   6
  ** Hessian has wrong structure
  ** Imaginary eigenvectors =   6
  Cycle:     22 Energy:     -2932.392154  Gnorm:      0.113847  CPU:    2.895
  ** Hessian has wrong structure
  ** Imaginary eigenvectors =   5
  ** Hessian has wrong structure
  ** Imaginary eigenvectors =   4
  Cycle:     23 Energy:     -2932.505927  Gnorm:      0.147664  CPU:    3.362
  ** Hessian has wrong structure
  ** Imaginary eigenvectors =   3
  ** Hessian has wrong structure
  ** Imaginary eigenvectors =   2
  Cycle:     24 Energy:     -2932.525789  Gnorm:      0.151820  CPU:    3.682
  ** Hessian has wrong structure
  ** Imaginary eigenvectors =   1
  ** Hessian has required structure
  Cycle:     25 Energy:     -2932.902135  Gnorm:      0.123346  CPU:    4.106
  ** Hessian has required structure
  Cycle:     26 Energy:     -2933.144086  Gnorm:      0.070447  CPU:    4.249
  ** Hessian has required structure
  Cycle:     27 Energy:     -2933.184056  Gnorm:      0.071301  CPU:    4.378
  ** Hessian has required structure
  Cycle:     28 Energy:     -2933.253151  Gnorm:      0.042819  CPU:    4.493
  ** Hessian has required structure
  Cycle:     29 Energy:     -2933.303106  Gnorm:      0.061463  CPU:    4.621
  ** Hessian has required structure
  Cycle:     30 Energy:     -2933.328013  Gnorm:      0.059503  CPU:    4.748
  ** Hessian has required structure
  Cycle:     31 Energy:     -2933.346658  Gnorm:      0.086958  CPU:    4.877
  ** Hessian has required structure
  Cycle:     32 Energy:     -2933.370758  Gnorm:      0.077336  CPU:    4.990
  ** Hessian has required structure
  Cycle:     33 Energy:     -2933.398143  Gnorm:      0.068263  CPU:    5.116
  ** Hessian has required structure
  Cycle:     34 Energy:     -2933.419249  Gnorm:      0.042384  CPU:    5.243
  ** Hessian has required structure
  Cycle:     35 Energy:     -2933.448793  Gnorm:      0.025372  CPU:    5.461
  ** Hessian has required structure
  Cycle:     36 Energy:     -2933.457209  Gnorm:      0.015304  CPU:    5.604
  ** Hessian has required structure
  Cycle:     37 Energy:     -2933.460088  Gnorm:      0.007477  CPU:    5.747
  ** Hessian has required structure
  Cycle:     38 Energy:     -2933.460885  Gnorm:      0.005208  CPU:    5.874
  ** Hessian has required structure
  Cycle:     39 Energy:     -2933.461281  Gnorm:      0.001852  CPU:    6.017
  ** Hessian has required structure
  Cycle:     40 Energy:     -2933.461378  Gnorm:      0.001446  CPU:    6.144
  ** Hessian has required structure
  Cycle:     41 Energy:     -2933.461424  Gnorm:      0.000461  CPU:    6.285
  ** Hessian has required structure
  Cycle:     42 Energy:     -2933.461433  Gnorm:      0.000297  CPU:    6.412
  ** Hessian has required structure
  Cycle:     43 Energy:     -2933.461436  Gnorm:      0.000199  CPU:    6.524
  ** Hessian has required structure
  Cycle:     44 Energy:     -2933.461436  Gnorm:      0.000159  CPU:    6.636
  ** Hessian has required structure
  Cycle:     45 Energy:     -2933.461437  Gnorm:      0.000157  CPU:    6.835
  ** Hessian has required structure
  Cycle:     46 Energy:     -2933.461437  Gnorm:      0.000156  CPU:    6.947
  ** Hessian has required structure
  Cycle:     47 Energy:     -2933.461437  Gnorm:      0.000156  CPU:    7.060
  ** Hessian has required structure
  Cycle:     48 Energy:     -2933.461437  Gnorm:      0.000156  CPU:    7.172
  ** Hessian has required structure
  Cycle:     49 Energy:     -2933.461437  Gnorm:      0.000156  CPU:    7.283
  ** Hessian has required structure
  Cycle:     50 Energy:     -2933.461437  Gnorm:      0.000156  CPU:    7.398
  ** Hessian has required structure
  Cycle:     51 Energy:     -2933.461437  Gnorm:      0.000156  CPU:    7.510
  ** Hessian has required structure
  Cycle:     52 Energy:     -2933.461437  Gnorm:      0.000156  CPU:    7.622
  ** Hessian has required structure
  Cycle:     53 Energy:     -2933.461437  Gnorm:      0.000156  CPU:    7.738
  ** Hessian has required structure
  Cycle:     54 Energy:     -2933.461437  Gnorm:      0.000156  CPU:    7.849
  ** Hessian has required structure
  Cycle:     55 Energy:     -2933.461436  Gnorm:      0.000156  CPU:    8.183
  ** Hessian calculated **
  Cycle:     56 Energy:     -2933.461437  Gnorm:      0.000109  CPU:    8.329
  ** Hessian has required structure
  ** Hessian has required structure
  Cycle:     57 Energy:     -2933.461438  Gnorm:      0.000099  CPU:    8.560
  ** Hessian has required structure
  Cycle:     58 Energy:     -2933.461438  Gnorm:      0.000093  CPU:    8.673
  ** Hessian has required structure
  Cycle:     59 Energy:     -2933.461438  Gnorm:      0.000094  CPU:    8.848
  ** Hessian has required structure
  Cycle:     60 Energy:     -2933.461439  Gnorm:      0.000106  CPU:    8.985
  ** Hessian has required structure
  Cycle:     61 Energy:     -2933.461439  Gnorm:      0.000104  CPU:    9.103
  ** Hessian has required structure
  Cycle:     62 Energy:     -2933.461439  Gnorm:      0.000104  CPU:    9.231
  ** Hessian has required structure
  Cycle:     63 Energy:     -2933.461439  Gnorm:      0.000104  CPU:    9.345
  ** Hessian has required structure
  Cycle:     64 Energy:     -2933.461439  Gnorm:      0.000104  CPU:    9.459
  ** Hessian has required structure
  Cycle:     65 Energy:     -2933.461439  Gnorm:      0.000104  CPU:    9.573
  ** Hessian has required structure
  Cycle:     66 Energy:     -2933.461439  Gnorm:      0.000104  CPU:    9.686
  ** Hessian has required structure
  Cycle:     67 Energy:     -2933.461438  Gnorm:      0.000103  CPU:   10.022
  ** Hessian calculated **


  **** Optimisation achieved ****


  Final energy =   -2933.46143773 eV      
  Final Gnorm  =       0.00005875

  Components of energy : 

--------------------------------------------------------------------------------
  Interatomic potentials     =         773.84874470 eV    
  Three-body potentials      =           0.00000000 eV    
  Monopole - monopole (real) =       -1485.33770990 eV    
  Monopole - monopole (recip)=       -2221.97247253 eV    
  Monopole - monopole (total)=       -3707.31018242 eV    
--------------------------------------------------------------------------------
  Total lattice energy       =       -2933.46143773 eV    
--------------------------------------------------------------------------------
  Total lattice energy       =         -283034.1867 kJ/(mole unit cells)
--------------------------------------------------------------------------------

  Final fractional coordinates of atoms :

--------------------------------------------------------------------------------
   No.  Atomic        x           y          z          Radius
        Label       (Frac)      (Frac)     (Frac)       (Angs) 
--------------------------------------------------------------------------------
     1  Ge    c     0.052090    0.000000    0.372270    0.000000
     2  Ge    c     0.442156    0.051791    0.372082    0.000000
     3  Ge    c     0.946728    0.063533    0.620802    0.000000
     4  Ge    c     0.548883    0.012158    0.621505    0.000000
     5  Ge    c     0.556481    0.997592    0.135527    0.000000
     6  Ge    c     0.942191    0.052975    0.126923    0.000000
     7  Ge    c     0.452105    0.069670    0.882126    0.000000
     8  Ge    c     0.048219    0.006138    0.877332    0.000000
     9  Ge    c     0.173277    0.286137    0.258905    0.000000
    10  Ge    c     0.325967    0.757585    0.263894    0.000000
    11  Ge    c     0.849879    0.374601    0.694032    0.000000
    12  Ge    c     0.645361    0.696201    0.698730    0.000000
    13  Ge    c     0.824911    0.779115    0.699200    0.000000
    14  Ge    c     0.671638    0.291603    0.697433    0.000000
    15  Ge    c     0.144286    0.685151    0.260835    0.000000
    16  Ge    c     0.674856    0.283151    0.013991    0.000000
    17  Ge    c     0.826829    0.760203    0.013485    0.000000
    18  Ge    c     0.349908    0.378013    0.940947    0.000000
    19  Ge    c     0.148979    0.694747    0.943075    0.000000
    20  Ge    c     0.327604    0.781377    0.949815    0.000000
    21  Ge    c     0.172738    0.291969    0.941689    0.000000
    22  Ge    c     0.645332    0.684176    0.015344    0.000000
    23  Si    c     0.349644    0.363799    0.252936    0.000000
    24  Si    c     0.851537    0.364005    0.003829    0.000000
    25  O1    c     0.131057    0.126838    0.349102    0.000000
    26  O1    c     0.373466    0.896500    0.362591    0.000000
    27  O1    c     0.914164    0.267792    0.603251    0.000000
    28  O1    c     0.582712    0.810049    0.604920    0.000000
    29  O1    c     0.873369    0.919328    0.599114    0.000000
    30  O1    c     0.621637    0.158799    0.598186    0.000000
    31  O1    c     0.076649    0.793862    0.342882    0.000000
    32  O3    c     0.411944    0.252926    0.327577    0.000000
    33  O1    c     0.024720    0.019779    0.532522    0.000000
    34  O1    c     0.470084    0.056319    0.533521    0.000000
    35  O1    c     0.973617    0.061567    0.285548    0.000000
    36  O1    c     0.524610    0.004483    0.293275    0.000000
    37  O1    c     0.971570    0.043920    0.783821    0.000000
    38  O1    c     0.526112    0.028771    0.785230    0.000000
    39  O1    c     0.635243    0.126899    0.110969    0.000000
    40  O1    c     0.872653    0.898301    0.114898    0.000000
    41  O1    c     0.417647    0.272686    0.858963    0.000000
    42  O1    c     0.085776    0.808389    0.852331    0.000000
    43  O1    c     0.378671    0.925350    0.858555    0.000000
    44  O1    c     0.119264    0.156848    0.850649    0.000000
    45  O1    c     0.580531    0.791265    0.103722    0.000000
    46  O3    c     0.912178    0.255668    0.084014    0.000000
    47  O1    c     0.481643    0.061735    0.042170    0.000000
    48  O1    c     0.020400    0.005049    0.038481    0.000000
    49  O1    c     0.152786    0.480771    0.322348    0.000000
    50  O3    c     0.339946    0.547638    0.316785    0.000000
    51  O1    c     0.837996    0.577547    0.638202    0.000000
    52  O1    c     0.659154    0.498222    0.639974    0.000000
    53  O3    c     0.270380    0.258701    0.258114    0.000000
    54  O1    c     0.230572    0.790842    0.269307    0.000000
    55  O1    c     0.766916    0.255807    0.691838    0.000000
    56  O1    c     0.729609    0.812600    0.702132    0.000000
    57  O1    c     0.142161    0.274616    0.100793    0.000000
    58  O1    c     0.359436    0.792403    0.108812    0.000000
    59  O3    c     0.878984    0.390223    0.855513    0.000000
    60  O1    c     0.614211    0.673797    0.856864    0.000000
    61  O1    c     0.858684    0.792007    0.856962    0.000000
    62  O1    c     0.641307    0.271348    0.856981    0.000000
    63  O1    c     0.117979    0.666920    0.101054    0.000000
    64  O3    c     0.373789    0.399240    0.104451    0.000000
    65  O1    c     0.654668    0.479650    0.074796    0.000000
    66  O3    c     0.841644    0.549568    0.064102    0.000000
    67  O1    c     0.339705    0.581599    0.884766    0.000000
    68  O1    c     0.162799    0.498158    0.881614    0.000000
    69  O3    c     0.771985    0.259793    0.006838    0.000000
    70  O1    c     0.731341    0.791174    0.018199    0.000000
    71  O1    c     0.267930    0.255818    0.934116    0.000000
    72  O1    c     0.232213    0.814276    0.949870    0.000000
    73  O1    s     0.128346    0.129731    0.343725    0.000000
    74  O1    s     0.375134    0.897841    0.355691    0.000000
    75  O1    s     0.911791    0.260770    0.611225    0.000000
    76  O1    s     0.584816    0.816530    0.612994    0.000000
    77  O1    s     0.875076    0.919270    0.608263    0.000000
    78  O1    s     0.620139    0.158241    0.607466    0.000000
    79  O1    s     0.079886    0.801153    0.338938    0.000000
    80  O3    s     0.408202    0.247776    0.323769    0.000000
    81  O1    s     0.020556    0.021768    0.527867    0.000000
    82  O1    s     0.474275    0.052536    0.528854    0.000000
    83  O1    s     0.977067    0.056414    0.280375    0.000000
    84  O1    s     0.520955    0.007449    0.287467    0.000000
    85  O1    s     0.975992    0.042292    0.779853    0.000000
    86  O1    s     0.521728    0.030864    0.781625    0.000000
    87  O1    s     0.632496    0.129518    0.105227    0.000000
    88  O1    s     0.874377    0.899343    0.107997    0.000000
    89  O1    s     0.414921    0.266305    0.866845    0.000000
    90  O1    s     0.087853    0.813994    0.860972    0.000000
    91  O1    s     0.380009    0.924567    0.867398    0.000000
    92  O1    s     0.118291    0.156508    0.859685    0.000000
    93  O1    s     0.583722    0.798335    0.099298    0.000000
    94  O3    s     0.908488    0.250566    0.079389    0.000000
    95  O1    s     0.485118    0.057457    0.037606    0.000000
    96  O1    s     0.016543    0.008713    0.033643    0.000000
    97  O1    s     0.153658    0.481432    0.313179    0.000000
    98  O3    s     0.339826    0.545930    0.306821    0.000000
    99  O1    s     0.837994    0.575900    0.646944    0.000000
   100  O1    s     0.658974    0.498943    0.648675    0.000000
   101  O3    s     0.270322    0.270608    0.257685    0.000000
   102  O1    s     0.231461    0.780641    0.268283    0.000000
   103  O1    s     0.765862    0.267037    0.692436    0.000000
   104  O1    s     0.730807    0.801922    0.701690    0.000000
   105  O1    s     0.146701    0.276720    0.100966    0.000000
   106  O1    s     0.354692    0.789076    0.108979    0.000000
   107  O3    s     0.874163    0.386551    0.857386    0.000000
   108  O1    s     0.618798    0.676215    0.856903    0.000000
   109  O1    s     0.853920    0.788751    0.857309    0.000000
   110  O1    s     0.645935    0.273659    0.857071    0.000000
   111  O1    s     0.122263    0.670341    0.101493    0.000000
   112  O3    s     0.369598    0.394200    0.106454    0.000000
   113  O1    s     0.655451    0.480425    0.065897    0.000000
   114  O3    s     0.841486    0.547589    0.054587    0.000000
   115  O1    s     0.339638    0.579825    0.893750    0.000000
   116  O1    s     0.162439    0.498755    0.890665    0.000000
   117  O3    s     0.771890    0.271306    0.007106    0.000000
   118  O1    s     0.732263    0.780996    0.017626    0.000000
   119  O1    s     0.266778    0.267271    0.935195    0.000000
   120  O1    s     0.233468    0.803416    0.949406    0.000000
--------------------------------------------------------------------------------

  Final Cartesian lattice vectors (Angstroms) :

       17.679017   -0.172615   -0.019157
       -0.076681    7.844458    0.079705
       -0.014146    0.111384   10.261371


  Final cell parameters and derivatives :

--------------------------------------------------------------------------------
       a           17.679870 Angstrom     dE/de1(xx)     0.000830 eV/strain
       b            7.845238 Angstrom     dE/de2(yy)    -0.003247 eV/strain
       c           10.261985 Angstrom     dE/de3(zz)    -0.001677 eV/strain
       alpha       88.795243 Degrees      dE/de4(yz)     0.001297 eV/strain
       beta        90.147129 Degrees      dE/de5(xz)    -0.000590 eV/strain
       gamma       91.120039 Degrees      dE/de6(xy)     0.000388 eV/strain
--------------------------------------------------------------------------------

  Primitive cell volume =          1422.776020 Angs**3

  Density of cell =      2.826324 g/cm**3

  Non-primitive cell volume =          1422.776020 Angs**3


  Final internal derivatives :

--------------------------------------------------------------------------------
   No.  Atomic          a             b             c           Radius
        Label          (eV)          (eV)          (eV)        (eV/Angs)
--------------------------------------------------------------------------------
      1 Ge    c       0.000000      0.000000      0.000000      0.000000
      2 Ge    c       0.001435     -0.000784      0.000973      0.000000
      3 Ge    c      -0.001384      0.000174      0.000513      0.000000
      4 Ge    c      -0.000240     -0.000324     -0.000204      0.000000
      5 Ge    c       0.001188      0.000216     -0.000151      0.000000
      6 Ge    c      -0.000431      0.000582     -0.000047      0.000000
      7 Ge    c      -0.000063     -0.000097      0.001371      0.000000
      8 Ge    c       0.000594     -0.000449     -0.000327      0.000000
      9 Ge    c      -0.001346     -0.000423      0.000031      0.000000
     10 Ge    c       0.001418     -0.000212     -0.000676      0.000000
     11 Ge    c       0.000145      0.000287     -0.000082      0.000000
     12 Ge    c      -0.000342      0.000143     -0.000073      0.000000
     13 Ge    c       0.000690      0.000126     -0.000473      0.000000
     14 Ge    c      -0.000728      0.000485     -0.000046      0.000000
     15 Ge    c      -0.000427     -0.000194     -0.000498      0.000000
     16 Ge    c      -0.000801     -0.000202      0.000418      0.000000
     17 Ge    c       0.000433     -0.000367     -0.000085      0.000000
     18 Ge    c      -0.001922      0.001242     -0.001811      0.000000
     19 Ge    c      -0.001102      0.000726      0.000135      0.000000
     20 Ge    c       0.001187      0.000492      0.000142      0.000000
     21 Ge    c      -0.001733      0.000616     -0.000003      0.000000
     22 Ge    c       0.000161     -0.000384     -0.000123      0.000000
     23 Si    c      -0.006468      0.001450      0.002244      0.000000
     24 Si    c       0.000616     -0.000118      0.000125      0.000000
     25 O1    c       0.002263      0.001697     -0.000435      0.000000
     26 O1    c      -0.001410     -0.001025     -0.000027      0.000000
     27 O1    c      -0.000008     -0.000627      0.000265      0.000000
     28 O1    c       0.000407      0.000180      0.000260      0.000000
     29 O1    c      -0.000261     -0.000542      0.000693      0.000000
     30 O1    c       0.000498      0.000336      0.000421      0.000000
     31 O1    c       0.001168      0.000341     -0.000157      0.000000
     32 O3    c       0.002351      0.000678      0.001050      0.000000
     33 O1    c      -0.000670      0.000086      0.000262      0.000000
     34 O1    c       0.000010      0.000121     -0.000267      0.000000
     35 O1    c      -0.000736     -0.000346     -0.000390      0.000000
     36 O1    c       0.003051      0.000001     -0.001501      0.000000
     37 O1    c       0.001310     -0.000309      0.000093      0.000000
     38 O1    c       0.001354      0.000310     -0.001610      0.000000
     39 O1    c       0.000314      0.000682     -0.000751      0.000000
     40 O1    c       0.000127     -0.000303     -0.000429      0.000000
     41 O1    c       0.000570      0.000141     -0.001436      0.000000
     42 O1    c       0.000619      0.000372      0.000286      0.000000
     43 O1    c      -0.001995     -0.001720     -0.000521      0.000000
     44 O1    c       0.000119      0.000222      0.000889      0.000000
     45 O1    c       0.000375     -0.000007     -0.000071      0.000000
     46 O3    c      -0.000115     -0.000687      0.000055      0.000000
     47 O1    c      -0.000487     -0.000149     -0.000105      0.000000
     48 O1    c      -0.000969      0.000184     -0.000403      0.000000
     49 O1    c       0.000066      0.001730     -0.000303      0.000000
     50 O3    c       0.000249     -0.000001      0.000209      0.000000
     51 O1    c      -0.000044     -0.000190      0.000648      0.000000
     52 O1    c       0.000050     -0.000553      0.000602      0.000000
     53 O3    c      -0.002576     -0.001385     -0.000502      0.000000
     54 O1    c      -0.003233      0.000114      0.000351      0.000000
     55 O1    c      -0.000120      0.000049     -0.000028      0.000000
     56 O1    c       0.000450     -0.000402     -0.000125      0.000000
     57 O1    c       0.000633      0.000156     -0.000803      0.000000
     58 O1    c      -0.000624      0.000069     -0.000069      0.000000
     59 O3    c      -0.000840     -0.000096      0.000197      0.000000
     60 O1    c       0.000909      0.000153     -0.000341      0.000000
     61 O1    c      -0.001264     -0.000106      0.000132      0.000000
     62 O1    c       0.000996      0.000021     -0.000056      0.000000
     63 O1    c       0.001535      0.000023      0.001196      0.000000
     64 O3    c       0.009278     -0.000212     -0.003488      0.000000
     65 O1    c       0.000142      0.000175     -0.000693      0.000000
     66 O3    c      -0.000287      0.000360     -0.000414      0.000000
     67 O1    c      -0.000046     -0.001627      0.000352      0.000000
     68 O1    c       0.000121     -0.001906      0.000376      0.000000
     69 O3    c      -0.000885      0.000213      0.000022      0.000000
     70 O1    c       0.000270      0.000094      0.000092      0.000000
     71 O1    c      -0.004341     -0.001288      0.000529      0.000000
     72 O1    c       0.000694     -0.000013     -0.000303      0.000000
     73 O1    s      -0.001193     -0.000047     -0.000284      0.000000
     74 O1    s       0.000075     -0.000215      0.001283      0.000000
     75 O1    s       0.000447     -0.000154      0.000475      0.000000
     76 O1    s       0.000064     -0.000127      0.000633      0.000000
     77 O1    s      -0.000353     -0.000001      0.000785      0.000000
     78 O1    s       0.000074      0.000138      0.000032      0.000000
     79 O1    s      -0.000041     -0.000868     -0.000329      0.000000
     80 O3    s       0.001384     -0.000258      0.003001      0.000000
     81 O1    s      -0.000593      0.000045      0.000202      0.000000
     82 O1    s       0.000768     -0.000528      0.000756      0.000000
     83 O1    s      -0.000305      0.000127     -0.000226      0.000000
     84 O1    s       0.002109     -0.000117      0.000372      0.000000
     85 O1    s      -0.000006      0.000050     -0.000002      0.000000
     86 O1    s       0.001179     -0.000505      0.000517      0.000000
     87 O1    s      -0.000042      0.000266     -0.000582      0.000000
     88 O1    s      -0.000184      0.000179     -0.000161      0.000000
     89 O1    s       0.000946      0.000361     -0.001107      0.000000
     90 O1    s      -0.000697      0.000366      0.000733      0.000000
     91 O1    s      -0.000197      0.000207      0.000372      0.000000
     92 O1    s      -0.000493      0.000181      0.000236      0.000000
     93 O1    s      -0.000178      0.000030      0.000005      0.000000
     94 O3    s       0.000237     -0.000061     -0.000341      0.000000
     95 O1    s       0.001232      0.000438      0.000356      0.000000
     96 O1    s       0.000122      0.000188     -0.000424      0.000000
     97 O1    s      -0.000773      0.000144     -0.000446      0.000000
     98 O3    s      -0.001770      0.001429      0.000346      0.000000
     99 O1    s       0.000356     -0.000035      0.000500      0.000000
    100 O1    s      -0.000019     -0.000170      0.000628      0.000000
    101 O3    s      -0.004552      0.000105      0.002237      0.000000
    102 O1    s      -0.000979     -0.000371     -0.000458      0.000000
    103 O1    s      -0.000396      0.000718      0.000003      0.000000
    104 O1    s       0.000153      0.000064      0.000043      0.000000
    105 O1    s      -0.001647     -0.000461     -0.000519      0.000000
    106 O1    s       0.000282     -0.001114     -0.000412      0.000000
    107 O3    s       0.000011      0.000037     -0.000067      0.000000
    108 O1    s       0.000099     -0.000132      0.000107      0.000000
    109 O1    s       0.000175     -0.000148     -0.000147      0.000000
    110 O1    s       0.000002      0.000222      0.000163      0.000000
    111 O1    s       0.000056      0.000314      0.000546      0.000000
    112 O3    s       0.007048      0.001355     -0.001149      0.000000
    113 O1    s      -0.000311     -0.000073     -0.000408      0.000000
    114 O3    s       0.000220      0.000284     -0.000497      0.000000
    115 O1    s       0.000036      0.000581      0.000304      0.000000
    116 O1    s      -0.000913     -0.000436     -0.000139      0.000000
    117 O3    s      -0.000121     -0.000036     -0.000108      0.000000
    118 O1    s       0.000541     -0.000712     -0.000072      0.000000
    119 O1    s      -0.001931      0.001145     -0.001930      0.000000
    120 O1    s      -0.000812      0.000363      0.000643      0.000000
--------------------------------------------------------------------------------
  Maximum abs         0.009278      0.001906      0.003488      0.000000
--------------------------------------------------------------------------------


  Born effective charge tensors : 

-------------------------------------------------------------------------------
  Atom             x           y             z
-------------------------------------------------------------------------------
    1 Ge    x       4.2105     -0.3059     -0.4407
            y       0.1656      3.9074      0.1017
            z      -0.2159      0.0558      4.4527
-------------------------------------------------------------------------------
    2 Ge    x       4.1483     -0.1647      0.4568
            y       0.1679      3.9264     -0.1102
            z       0.2147      0.0620      4.3942
-------------------------------------------------------------------------------
    3 Ge    x       4.1205     -0.2620      0.0552
            y       0.0839      3.9319      0.0363
            z      -0.8106      0.2046      4.1925
-------------------------------------------------------------------------------
    4 Ge    x       4.1398     -0.2362     -0.0381
            y       0.0938      3.9162      0.0176
            z       0.8422     -0.1393      4.2201
-------------------------------------------------------------------------------
    5 Ge    x       4.2980     -0.2562     -0.4357
            y       0.1534      3.9431      0.0801
            z      -0.3569      0.0248      3.9497
-------------------------------------------------------------------------------
    6 Ge    x       4.2454     -0.1433      0.3863
            y       0.1747      3.9350     -0.0924
            z       0.3228      0.0465      3.9544
-------------------------------------------------------------------------------
    7 Ge    x       4.2926     -0.2058      0.0262
            y       0.0970      3.9352      0.0265
            z      -0.6501      0.1893      3.7089
-------------------------------------------------------------------------------
    8 Ge    x       4.3259     -0.1678     -0.0763
            y       0.0692      3.9302      0.0147
            z       0.6413     -0.1303      3.6498
-------------------------------------------------------------------------------
    9 Ge    x       3.8730      0.2858     -0.2634
            y       0.2548      4.1928     -0.0409
            z      -0.0128     -0.1743      3.5953
-------------------------------------------------------------------------------
   10 Ge    x       3.9713      0.2482      0.2332
            y       0.2905      4.1687      0.1407
            z      -0.0138      0.2315      3.5598
-------------------------------------------------------------------------------
   11 Ge    x       3.8541     -0.0692     -0.2799
            y      -0.4399      4.2106      0.1109
            z      -0.1058      0.1993      3.5194
-------------------------------------------------------------------------------
   12 Ge    x       3.8964     -0.0985      0.2395
            y      -0.4535      4.2114     -0.1082
            z       0.0706     -0.1939      3.5915
-------------------------------------------------------------------------------
   13 Ge    x       3.9952      0.2507     -0.2975
            y       0.2712      4.1641     -0.0836
            z      -0.0104     -0.1503      3.5786
-------------------------------------------------------------------------------
   14 Ge    x       4.0159      0.2394      0.3072
            y       0.2896      4.1399      0.0962
            z       0.0471      0.1492      3.5994
-------------------------------------------------------------------------------
   15 Ge    x       3.9787     -0.0962     -0.1693
            y      -0.4744      4.1904      0.1029
            z      -0.1020      0.2240      3.5854
-------------------------------------------------------------------------------
   16 Ge    x       3.9142      0.2677     -0.3431
            y       0.2400      4.1822     -0.0734
            z      -0.0353     -0.1710      3.5343
-------------------------------------------------------------------------------
   17 Ge    x       4.0085      0.2365      0.2981
            y       0.2713      4.1683      0.1617
            z       0.0097      0.2260      3.4991
-------------------------------------------------------------------------------
   18 Ge    x       3.9764     -0.0676     -0.3220
            y      -0.4362      4.1977      0.0906
            z      -0.1529      0.2054      3.3864
-------------------------------------------------------------------------------
   19 Ge    x       3.9900     -0.1022      0.3101
            y      -0.4453      4.1916     -0.0788
            z       0.1033     -0.1794      3.4455
-------------------------------------------------------------------------------
   20 Ge    x       4.0674      0.2751     -0.3197
            y       0.3087      4.1685     -0.0483
            z      -0.0372     -0.1398      3.4592
-------------------------------------------------------------------------------
   21 Ge    x       4.0990      0.2589      0.3162
            y       0.3367      4.1356      0.0785
            z       0.0679      0.1422      3.4649
-------------------------------------------------------------------------------
   22 Ge    x       4.0288     -0.0864     -0.2714
            y      -0.4439      4.1924      0.1093
            z      -0.1377      0.1953      3.5062
-------------------------------------------------------------------------------
   23 Si    x       3.6656     -0.0708      0.1747
            y      -0.4364      3.9229     -0.0787
            z       0.0914     -0.2508      3.3093
-------------------------------------------------------------------------------
   24 Si    x       3.7194     -0.0740      0.2643
            y      -0.4171      3.9164     -0.0724
            z       0.1032     -0.2136      3.2440
-------------------------------------------------------------------------------
   25 O1    x      -2.2371     -0.8964      0.5147
            y      -0.9467     -2.3150      0.5090
            z       0.4699      0.5298     -1.6360
-------------------------------------------------------------------------------
   26 O1    x      -2.1033     -0.9119     -0.4905
            y      -0.9650     -2.4194     -0.5008
            z      -0.4645     -0.5476     -1.6703
-------------------------------------------------------------------------------
   27 O1    x      -1.9478      0.8575      0.3744
            y       0.8139     -2.5005     -0.3226
            z       0.4488     -0.3622     -1.6191
-------------------------------------------------------------------------------
   28 O1    x      -1.9410      0.8630     -0.3634
            y       0.8234     -2.5172      0.3163
            z      -0.4362      0.3464     -1.6086
-------------------------------------------------------------------------------
   29 O1    x      -2.1609     -0.8727      0.3120
            y      -0.9409     -2.2662      0.3596
            z       0.3858      0.3583     -1.6323
-------------------------------------------------------------------------------
   30 O1    x      -2.1864     -0.8853     -0.3298
            y      -0.9445     -2.2397     -0.3618
            z      -0.4080     -0.3685     -1.6459
-------------------------------------------------------------------------------
   31 O1    x      -1.9562      0.8305      0.4966
            y       0.7792     -2.5661     -0.5321
            z       0.4610     -0.5262     -1.6311
-------------------------------------------------------------------------------
   32 O3    x      -1.9248      0.8666     -0.5334
            y       0.8030     -2.3463      0.5515
            z      -0.4757      0.5590     -1.5528
-------------------------------------------------------------------------------
   33 O1    x      -2.0859      0.2740      0.9087
            y       0.1148     -1.2861     -0.1779
            z       1.1384     -0.3211     -3.0576
-------------------------------------------------------------------------------
   34 O1    x      -2.1133      0.2077     -0.9416
            y       0.0849     -1.2802      0.0885
            z      -1.1634      0.1579     -3.0694
-------------------------------------------------------------------------------
   35 O1    x      -2.1321      0.2391     -0.8251
            y       0.1263     -1.3248      0.1304
            z      -0.8544      0.1417     -2.7498
-------------------------------------------------------------------------------
   36 O1    x      -2.1910      0.2614      0.7947
            y       0.1533     -1.3185     -0.1564
            z       0.8202     -0.1868     -2.6649
-------------------------------------------------------------------------------
   37 O1    x      -2.1429      0.2076     -0.8235
            y       0.0973     -1.3386      0.1434
            z      -0.8006      0.1847     -2.5855
-------------------------------------------------------------------------------
   38 O1    x      -2.1028      0.2218      0.8291
            y       0.0975     -1.3477     -0.1820
            z       0.7942     -0.2345     -2.6404
-------------------------------------------------------------------------------
   39 O1    x      -2.2398     -0.8839      0.5483
            y      -0.9054     -2.3029      0.5465
            z       0.4597      0.5246     -1.5959
-------------------------------------------------------------------------------
   40 O1    x      -2.1377     -0.9078     -0.5158
            y      -0.9408     -2.4087     -0.5290
            z      -0.4525     -0.5269     -1.6068
-------------------------------------------------------------------------------
   41 O1    x      -2.0986      0.8789      0.3580
            y       0.8429     -2.4807     -0.2517
            z       0.4205     -0.3092     -1.4631
-------------------------------------------------------------------------------
   42 O1    x      -2.0614      0.8837     -0.3417
            y       0.8488     -2.4858      0.2526
            z      -0.3914      0.2936     -1.4678
-------------------------------------------------------------------------------
   43 O1    x      -2.2424     -0.9096      0.3021
            y      -0.9654     -2.2985      0.3207
            z       0.3682      0.3401     -1.4891
-------------------------------------------------------------------------------
   44 O1    x      -2.2564     -0.9215     -0.3129
            y      -0.9697     -2.2770     -0.3174
            z      -0.3882     -0.3441     -1.4976
-------------------------------------------------------------------------------
   45 O1    x      -1.9859      0.8142      0.5506
            y       0.7381     -2.5613     -0.5783
            z       0.4822     -0.5465     -1.5738
-------------------------------------------------------------------------------
   46 O3    x      -1.9614      0.8540     -0.5727
            y       0.7682     -2.3360      0.5677
            z      -0.4870      0.5546     -1.5010
-------------------------------------------------------------------------------
   47 O1    x      -2.1407      0.2523     -0.7145
            y       0.1493     -1.3818      0.1828
            z      -0.5038      0.1596     -2.2999
-------------------------------------------------------------------------------
   48 O1    x      -2.2010      0.2262      0.7307
            y       0.1474     -1.3730     -0.1473
            z       0.4953     -0.1100     -2.2692
-------------------------------------------------------------------------------
   49 O1    x      -1.3764      0.2210      0.0950
            y       0.3233     -3.1147     -0.0187
            z       0.0562     -0.0130     -1.4010
-------------------------------------------------------------------------------
   50 O3    x      -1.2675      0.1619     -0.0410
            y       0.2590     -2.9930     -0.1822
            z       0.0021     -0.1799     -1.3234
-------------------------------------------------------------------------------
   51 O1    x      -1.3319      0.1759      0.0743
            y       0.2824     -3.1724     -0.0152
            z       0.0172      0.0241     -1.4025
-------------------------------------------------------------------------------
   52 O1    x      -1.3520      0.2022     -0.0651
            y       0.2939     -3.1632     -0.0360
            z      -0.0190     -0.0385     -1.3807
-------------------------------------------------------------------------------
   53 O3    x      -2.8334     -0.3444      0.0272
            y      -0.2844     -1.5148      0.0209
            z       0.0093      0.0577     -1.1531
-------------------------------------------------------------------------------
   54 O1    x      -3.0642     -0.2395     -0.0143
            y      -0.1433     -1.5770     -0.0321
            z       0.0144     -0.0656     -1.2156
-------------------------------------------------------------------------------
   55 O1    x      -2.9904     -0.2784      0.0042
            y      -0.1820     -1.5938     -0.0279
            z       0.0018     -0.0612     -1.2282
-------------------------------------------------------------------------------
   56 O1    x      -3.0121     -0.2736     -0.0021
            y      -0.1790     -1.5994      0.0049
            z      -0.0318      0.0342     -1.2140
-------------------------------------------------------------------------------
   57 O1    x      -1.5007     -0.1083     -0.0745
            y      -0.1177     -1.4165     -0.0251
            z      -0.0512     -0.0048     -2.7272
-------------------------------------------------------------------------------
   58 O1    x      -1.4826     -0.1245      0.0351
            y      -0.1387     -1.4567      0.0929
            z       0.0447      0.0793     -2.6849
-------------------------------------------------------------------------------
   59 O3    x      -1.3566      0.0100      0.0546
            y       0.0794     -1.3591      0.0463
            z       0.0403      0.0402     -2.5890
-------------------------------------------------------------------------------
   60 O1    x      -1.4616      0.0188      0.0277
            y       0.0864     -1.4270      0.0278
            z       0.0258      0.0375     -2.7385
-------------------------------------------------------------------------------
   61 O1    x      -1.4807     -0.1188     -0.0265
            y      -0.1345     -1.4533      0.0846
            z      -0.0309      0.0623     -2.6911
-------------------------------------------------------------------------------
   62 O1    x      -1.5191     -0.1087     -0.0478
            y      -0.1266     -1.4138     -0.0136
            z      -0.0199      0.0104     -2.7226
-------------------------------------------------------------------------------
   63 O1    x      -1.4492      0.0177     -0.0163
            y       0.0857     -1.4353      0.0191
            z      -0.0014      0.0200     -2.7325
-------------------------------------------------------------------------------
   64 O3    x      -1.3355      0.0021      0.1213
            y       0.0740     -1.3743      0.0736
            z       0.0927      0.0690     -2.6050
-------------------------------------------------------------------------------
   65 O1    x      -1.4091      0.2360      0.1097
            y       0.3268     -3.1361     -0.0152
            z       0.0605     -0.0216     -1.3462
-------------------------------------------------------------------------------
   66 O3    x      -1.3005      0.1751     -0.0589
            y       0.2672     -3.0243     -0.1760
            z      -0.0069     -0.1602     -1.2676
-------------------------------------------------------------------------------
   67 O1    x      -1.3698      0.1676      0.0898
            y       0.2467     -3.1477     -0.0326
            z       0.0288      0.0198     -1.3767
-------------------------------------------------------------------------------
   68 O1    x      -1.3861      0.2007     -0.0716
            y       0.2605     -3.1289     -0.0423
            z      -0.0196     -0.0421     -1.3519
-------------------------------------------------------------------------------
   69 O3    x      -2.8660     -0.3584      0.0439
            y      -0.2901     -1.5134      0.0207
            z       0.0169      0.0484     -1.1355
-------------------------------------------------------------------------------
   70 O1    x      -3.0903     -0.2572      0.0146
            y      -0.1543     -1.5820     -0.0266
            z       0.0463     -0.0515     -1.1936
-------------------------------------------------------------------------------
   71 O1    x      -3.0120     -0.2915     -0.0050
            y      -0.1808     -1.6021     -0.0317
            z      -0.0103     -0.0718     -1.2051
-------------------------------------------------------------------------------
   72 O1    x      -3.0362     -0.2907     -0.0395
            y      -0.1855     -1.6079     -0.0078
            z      -0.0575      0.0275     -1.1867
-------------------------------------------------------------------------------




  Elastic Constant Matrix: (Units=GPa)

-------------------------------------------------------------------------------
  Indices      1         2         3         4         5         6    
-------------------------------------------------------------------------------
       1     27.8957   11.9452    8.6468    0.6249    0.4773   -6.0362
       2     11.9452   32.8043    6.4962    0.9393   -0.0772   -5.8228
       3      8.6468    6.4962   13.1007    0.8984    0.0530   -1.2377
       4      0.6249    0.9393    0.8984    7.6210   -1.3715   -0.5061
       5      0.4773   -0.0772    0.0530   -1.3715   15.1796    2.0441
       6     -6.0362   -5.8228   -1.2377   -0.5061    2.0441   19.2369
-------------------------------------------------------------------------------


  Elastic Compliance Matrix: (Units=1/GPa)

-------------------------------------------------------------------------------
  Indices      1         2         3         4         5         6    
-------------------------------------------------------------------------------
       1    0.051738 -0.011414 -0.027445  0.000603 -0.003064  0.011356
       2   -0.011414  0.038072 -0.010509 -0.002140 -0.000583  0.007272
       3   -0.027445 -0.010509  0.099705 -0.008502  0.000454 -0.005650
       4    0.000603 -0.002140 -0.008502  0.134676  0.011998  0.001262
       5   -0.003064 -0.000583  0.000454  0.011998  0.068135 -0.008033
       6    0.011356  0.007272 -0.005650  0.001262 -0.008033  0.058271
-------------------------------------------------------------------------------

  Mechanical properties :

-------------------------------------------------------------------------------
  Convention :                    Reuss         Voigt         Hill
-------------------------------------------------------------------------------
  Bulk  Modulus (GPa)     =      11.01574      14.21969      12.61772
  Shear Modulus (GPa)     =       8.62673      11.52166      10.07420
-------------------------------------------------------------------------------
  Velocity S-wave (km/s)  =       1.74708       2.01905       1.88797
  Velocity P-wave (km/s)  =       2.82263       3.23521       3.03594
-------------------------------------------------------------------------------
  Compressibility (1/GPa) =    0.09077919
-------------------------------------------------------------------------------
  Stress axis :                     x             y             z
-------------------------------------------------------------------------------
  Youngs Moduli (GPa)     =      19.32797      26.26614      10.02956
-------------------------------------------------------------------------------
  Poissons Ratio (x)      =                     0.29980       0.27526
  Poissons Ratio (y)      =       0.22061                     0.10540
  Poissons Ratio (z)      =       0.53046       0.27604
-------------------------------------------------------------------------------


  Piezoelectric Strain Matrix: (Units=C/m**2)

-------------------------------------------------------------------------------
  Indices      1         2         3         4         5         6    
-------------------------------------------------------------------------------
       x     0.34374   0.24771   0.16248  -0.18791  -0.41036   0.12830
       y     0.41037   0.20458   0.36578  -1.19582   0.65456  -0.05433
       z    -0.31314   0.45660   1.29984   0.19545   0.04291   0.29251
-------------------------------------------------------------------------------


  Piezoelectric Stress Matrix: (Units=10**-11 C/N)

-------------------------------------------------------------------------------
  Indices      1         2         3         4         5         6    
-------------------------------------------------------------------------------
       x     1.30992   0.53742   0.48487  -3.17728  -3.23694   1.53219
       y     0.55150   0.10424   3.38283 -15.65628   2.94773  -0.58526
       z    -5.37792   0.89811  13.01015   1.49893   0.42022   0.93671
-------------------------------------------------------------------------------


  Static dielectric constant tensor : 

-------------------------------------------------------------------------------
              x         y         z
-------------------------------------------------------------------------------
       x     5.38270   0.07020  -0.01210
       y     0.07020   6.54098   0.11978
       z    -0.01210   0.11978   4.24653
--------------------------------------------------------------------------------

  High frequency dielectric constant tensor : 

-------------------------------------------------------------------------------
              x         y         z
-------------------------------------------------------------------------------
       x     1.53527  -0.00325   0.00038
       y    -0.00325   1.54194   0.00073
       z     0.00038   0.00073   1.49666
-------------------------------------------------------------------------------

  Static refractive indices : 

-------------------------------------------------------------------------------
    1 =    2.05914      2 =    2.31922      3 =    2.55956
-------------------------------------------------------------------------------

  High frequency refractive indices : 

-------------------------------------------------------------------------------
    1 =    1.22337      2 =    1.23853      3 =    1.24229
-------------------------------------------------------------------------------


  Time to end of optimisation =      10.3216 seconds


  Peak dynamic memory used =       5.01 MB 


  Timing analysis for GULP :

--------------------------------------------------------------------------------
  Task / Subroutine                                          Time (Seconds)
--------------------------------------------------------------------------------
  Calculation of reciprocal space energy and derivatives          0.6627
  Calculation of real space energy and derivatives                6.8249
  Calculation of three-body energy and derivatives                0.0528
  Calculation and manipulation of Hessian matrix                  3.0975
  Calculation of matrix inversion                                 0.0312
  Global summation overhead                                       0.0001
--------------------------------------------------------------------------------
  Total CPU time                                                 10.3216
--------------------------------------------------------------------------------


  Dump file written as c00008.vasp.grs
  CIF file written as c00008.vasp.cif


  Job Finished at 18:35.00 30th October    2025                               

