********************************************************************************
*                       GENERAL UTILITY LATTICE PROGRAM                        *
*                                 Julian Gale                                  *
*                       Curtin Institute for Computation                       *
*                    School of Molecular and Life Sciences                     *
*                    Curtin University, Western Australia                      *
********************************************************************************
* Version = 6.1.2 * Last modified =   3rd November 2022                        *
********************************************************************************
*  optimise     - perform optimisation run                                     *
*  conp         - constant pressure calculation                                *
*  property     - calculate properties for final geometry                      *
********************************************************************************

  Job Started  at 18:37.08 30th October    2025                               

  Number of CPUs =     1


  Total number of configurations input =      1

********************************************************************************
*  Input for Configuration =   1 : c00020.vasp                                 *
********************************************************************************

  Formula = Ge22Si2O48                                                  

  Number of irreducible atoms/shells =     120


  Total number atoms/shells =     120

  Dimensionality = 3               :  Bulk   



  Cartesian lattice vectors (Angstroms) :

       17.182800    0.000000    0.000000
        0.000000    7.513760    0.000000
        0.000000    0.000000   10.447700

  Cell parameters (Angstroms/Degrees):

  a =      17.1828    alpha =  90.0000
  b =       7.5138    beta  =  90.0000
  c =      10.4477    gamma =  90.0000

  Initial cell volume =        1348.875752 Angs**3

  Temperature of configuration =   0.00     K 

  Pressure of configuration =         0.000 GPa 

  Fractional coordinates of asymmetric unit :

--------------------------------------------------------------------------------
   No.  Atomic       x           y          z         Charge      Occupancy
        Label      (Frac)      (Frac)     (Frac)        (e)         (Frac)  
--------------------------------------------------------------------------------
      1 Ge    c    0.052090    0.000000    0.372270     4.00000    1.000000    
      2 Ge    c    0.447910 *  0.000000 *  0.372270 *   4.00000    1.000000    
      3 Ge    c    0.947910 *  0.000000 *  0.627730 *   4.00000    1.000000    
      4 Ge    c    0.552090 *  0.000000 *  0.627730 *   4.00000    1.000000    
      5 Ge    c    0.556730 *  0.000000 *  0.122130 *   4.00000    1.000000    
      6 Ge    c    0.943270 *  0.000000 *  0.122130 *   4.00000    1.000000    
      7 Ge    c    0.443270 *  0.000000 *  0.877870 *   4.00000    1.000000    
      8 Ge    c    0.056730 *  0.000000 *  0.877870 *   4.00000    1.000000    
      9 Ge    c    0.160190 *  0.293910 *  0.273440 *   4.00000    1.000000    
     10 Ge    c    0.339810 *  0.706090 *  0.273440 *   4.00000    1.000000    
     11 Ge    c    0.839810 *  0.293910 *  0.726560 *   4.00000    1.000000    
     12 Ge    c    0.839810 *  0.706090 *  0.726560 *   4.00000    1.000000    
     13 Ge    c    0.660190 *  0.293910 *  0.726560 *   4.00000    1.000000    
     14 Ge    c    0.339810 *  0.293910 *  0.273440 *   4.00000    1.000000    
     15 Ge    c    0.660660 *  0.294090 *  0.017440 *   4.00000    1.000000    
     16 Ge    c    0.839340 *  0.705910 *  0.017440 *   4.00000    1.000000    
     17 Ge    c    0.339340 *  0.294090 *  0.982560 *   4.00000    1.000000    
     18 Ge    c    0.160660 *  0.705910 *  0.982560 *   4.00000    1.000000    
     19 Ge    c    0.339340 *  0.705910 *  0.982560 *   4.00000    1.000000    
     20 Ge    c    0.160660 *  0.294090 *  0.982560 *   4.00000    1.000000    
     21 Ge    c    0.660660 *  0.705910 *  0.017440 *   4.00000    1.000000    
     22 Ge    c    0.839340 *  0.294090 *  0.017440 *   4.00000    1.000000    
     23 Si    c    0.660190 *  0.706090 *  0.726560 *   4.00000    1.000000    
     24 Si    c    0.160190 *  0.706090 *  0.273440 *   4.00000    1.000000    
     25 O1    c    0.106570 *  0.174340 *  0.366200 *   1.73396    1.000000    
     26 O1    c    0.393430 *  0.825660 *  0.366200 *   1.73396    1.000000    
     27 O1    c    0.893430 *  0.174340 *  0.633800 *   1.73396    1.000000    
     28 O3    c    0.606570 *  0.825660 *  0.633800 *   1.33043    1.000000    
     29 O1    c    0.893430 *  0.825660 *  0.633800 *   1.73396    1.000000    
     30 O1    c    0.606570 *  0.174340 *  0.633800 *   1.73396    1.000000    
     31 O3    c    0.106570 *  0.825660 *  0.366200 *   1.33043    1.000000    
     32 O1    c    0.393430 *  0.174340 *  0.366200 *   1.73396    1.000000    
     33 O1    c    0.000000 *  0.000000 *  0.500000 *   1.73396    1.000000    
     34 O1    c    0.500000 *  0.000000 *  0.500000 *   1.73396    1.000000    
     35 O1    c    0.994520 *  0.000000 *  0.250840 *   1.73396    1.000000    
     36 O1    c    0.505480 *  0.000000 *  0.250840 *   1.73396    1.000000    
     37 O1    c    0.005480 *  0.000000 *  0.749160 *   1.73396    1.000000    
     38 O1    c    0.494520 *  0.000000 *  0.749160 *   1.73396    1.000000    
     39 O1    c    0.610230 *  0.175520 *  0.115390 *   1.73396    1.000000    
     40 O1    c    0.889770 *  0.824480 *  0.115390 *   1.73396    1.000000    
     41 O1    c    0.389770 *  0.175520 *  0.884610 *   1.73396    1.000000    
     42 O1    c    0.110230 *  0.824480 *  0.884610 *   1.73396    1.000000    
     43 O1    c    0.389770 *  0.824480 *  0.884610 *   1.73396    1.000000    
     44 O1    c    0.110230 *  0.175520 *  0.884610 *   1.73396    1.000000    
     45 O1    c    0.610230 *  0.824480 *  0.115390 *   1.73396    1.000000    
     46 O1    c    0.889770 *  0.175520 *  0.115390 *   1.73396    1.000000    
     47 O1    c    0.500000 *  0.000000 *  0.000000 *   1.73396    1.000000    
     48 O1    c    0.000000 *  0.000000 *  0.000000 *   1.73396    1.000000    
     49 O3    c    0.151750 *  0.500000 *  0.313330 *   1.33043    1.000000    
     50 O1    c    0.348250 *  0.500000 *  0.313330 *   1.73396    1.000000    
     51 O1    c    0.848250 *  0.500000 *  0.686670 *   1.73396    1.000000    
     52 O3    c    0.651750 *  0.500000 *  0.686670 *   1.33043    1.000000    
     53 O1    c    0.250000 *  0.234950 *  0.285720 *   1.73396    1.000000    
     54 O3    c    0.250000 *  0.765050 *  0.285720 *   1.33043    1.000000    
     55 O1    c    0.750000 *  0.234950 *  0.714280 *   1.73396    1.000000    
     56 O3    c    0.750000 *  0.765050 *  0.714280 *   1.33043    1.000000    
     57 O1    c    0.131410 *  0.268650 *  0.127790 *   1.73396    1.000000    
     58 O1    c    0.368590 *  0.731350 *  0.127790 *   1.73396    1.000000    
     59 O1    c    0.868590 *  0.268650 *  0.872210 *   1.73396    1.000000    
     60 O3    c    0.631410 *  0.731350 *  0.872210 *   1.33043    1.000000    
     61 O1    c    0.868590 *  0.731350 *  0.872210 *   1.73396    1.000000    
     62 O1    c    0.631410 *  0.268650 *  0.872210 *   1.73396    1.000000    
     63 O3    c    0.131410 *  0.731350 *  0.127790 *   1.33043    1.000000    
     64 O1    c    0.368590 *  0.268650 *  0.127790 *   1.73396    1.000000    
     65 O1    c    0.653920 *  0.500000 *  0.058200 *   1.73396    1.000000    
     66 O1    c    0.846080 *  0.500000 *  0.058200 *   1.73396    1.000000    
     67 O1    c    0.346080 *  0.500000 *  0.941800 *   1.73396    1.000000    
     68 O1    c    0.153920 *  0.500000 *  0.941800 *   1.73396    1.000000    
     69 O1    c    0.750000 *  0.231060 *  0.027050 *   1.73396    1.000000    
     70 O1    c    0.750000 *  0.768940 *  0.027050 *   1.73396    1.000000    
     71 O1    c    0.250000 *  0.231060 *  0.972950 *   1.73396    1.000000    
     72 O1    c    0.250000 *  0.768940 *  0.972950 *   1.73396    1.000000    
     73 O1    s    0.106570 *  0.174340 *  0.366200 *  -3.73396    1.000000    
     74 O1    s    0.393430 *  0.825660 *  0.366200 *  -3.73396    1.000000    
     75 O1    s    0.893430 *  0.174340 *  0.633800 *  -3.73396    1.000000    
     76 O3    s    0.606570 *  0.825660 *  0.633800 *  -3.33043    1.000000    
     77 O1    s    0.893430 *  0.825660 *  0.633800 *  -3.73396    1.000000    
     78 O1    s    0.606570 *  0.174340 *  0.633800 *  -3.73396    1.000000    
     79 O3    s    0.106570 *  0.825660 *  0.366200 *  -3.33043    1.000000    
     80 O1    s    0.393430 *  0.174340 *  0.366200 *  -3.73396    1.000000    
     81 O1    s    0.000000 *  0.000000 *  0.500000 *  -3.73396    1.000000    
     82 O1    s    0.500000 *  0.000000 *  0.500000 *  -3.73396    1.000000    
     83 O1    s    0.994520 *  0.000000 *  0.250840 *  -3.73396    1.000000    
     84 O1    s    0.505480 *  0.000000 *  0.250840 *  -3.73396    1.000000    
     85 O1    s    0.005480 *  0.000000 *  0.749160 *  -3.73396    1.000000    
     86 O1    s    0.494520 *  0.000000 *  0.749160 *  -3.73396    1.000000    
     87 O1    s    0.610230 *  0.175520 *  0.115390 *  -3.73396    1.000000    
     88 O1    s    0.889770 *  0.824480 *  0.115390 *  -3.73396    1.000000    
     89 O1    s    0.389770 *  0.175520 *  0.884610 *  -3.73396    1.000000    
     90 O1    s    0.110230 *  0.824480 *  0.884610 *  -3.73396    1.000000    
     91 O1    s    0.389770 *  0.824480 *  0.884610 *  -3.73396    1.000000    
     92 O1    s    0.110230 *  0.175520 *  0.884610 *  -3.73396    1.000000    
     93 O1    s    0.610230 *  0.824480 *  0.115390 *  -3.73396    1.000000    
     94 O1    s    0.889770 *  0.175520 *  0.115390 *  -3.73396    1.000000    
     95 O1    s    0.500000 *  0.000000 *  0.000000 *  -3.73396    1.000000    
     96 O1    s    0.000000 *  0.000000 *  0.000000 *  -3.73396    1.000000    
     97 O3    s    0.151750 *  0.500000 *  0.313330 *  -3.33043    1.000000    
     98 O1    s    0.348250 *  0.500000 *  0.313330 *  -3.73396    1.000000    
     99 O1    s    0.848250 *  0.500000 *  0.686670 *  -3.73396    1.000000    
    100 O3    s    0.651750 *  0.500000 *  0.686670 *  -3.33043    1.000000    
    101 O1    s    0.250000 *  0.234950 *  0.285720 *  -3.73396    1.000000    
    102 O3    s    0.250000 *  0.765050 *  0.285720 *  -3.33043    1.000000    
    103 O1    s    0.750000 *  0.234950 *  0.714280 *  -3.73396    1.000000    
    104 O3    s    0.750000 *  0.765050 *  0.714280 *  -3.33043    1.000000    
    105 O1    s    0.131410 *  0.268650 *  0.127790 *  -3.73396    1.000000    
    106 O1    s    0.368590 *  0.731350 *  0.127790 *  -3.73396    1.000000    
    107 O1    s    0.868590 *  0.268650 *  0.872210 *  -3.73396    1.000000    
    108 O3    s    0.631410 *  0.731350 *  0.872210 *  -3.33043    1.000000    
    109 O1    s    0.868590 *  0.731350 *  0.872210 *  -3.73396    1.000000    
    110 O1    s    0.631410 *  0.268650 *  0.872210 *  -3.73396    1.000000    
    111 O3    s    0.131410 *  0.731350 *  0.127790 *  -3.33043    1.000000    
    112 O1    s    0.368590 *  0.268650 *  0.127790 *  -3.73396    1.000000    
    113 O1    s    0.653920 *  0.500000 *  0.058200 *  -3.73396    1.000000    
    114 O1    s    0.846080 *  0.500000 *  0.058200 *  -3.73396    1.000000    
    115 O1    s    0.346080 *  0.500000 *  0.941800 *  -3.73396    1.000000    
    116 O1    s    0.153920 *  0.500000 *  0.941800 *  -3.73396    1.000000    
    117 O1    s    0.750000 *  0.231060 *  0.027050 *  -3.73396    1.000000    
    118 O1    s    0.750000 *  0.768940 *  0.027050 *  -3.73396    1.000000    
    119 O1    s    0.250000 *  0.231060 *  0.972950 *  -3.73396    1.000000    
    120 O1    s    0.250000 *  0.768940 *  0.972950 *  -3.73396    1.000000    
--------------------------------------------------------------------------------



********************************************************************************
*  General input information                                                   *
********************************************************************************

  Species output for all configurations : 

--------------------------------------------------------------------------------
  Species    Type    Atomic    Atomic    Charge       Radii (Angs)     Library
                     Number     Mass       (e)     Cova   Ionic  VDW   Symbol
--------------------------------------------------------------------------------
    Ge       Core       32      72.61   4.000000   1.170  0.000  1.750 Ge       
    Si       Core       14      28.09   4.000000   1.200  0.000  2.100 Si       
    O1       Core        8      16.00   1.733957   0.730  0.000  1.360 O1       
    O2       Core        8      16.00   0.870733   0.730  0.000  0.000 O2       
    O3       Core        8      16.00   1.330431   0.730  0.000  1.360 O3       
    O1       Shell       8       0.00  -3.733957   0.730  0.000  0.000 O1       
    O2       Shell       8       0.00  -2.870733   0.730  0.000  0.000 O2       
    O3       Shell       8       0.00  -3.330431   0.730  0.000  0.000 O3       
--------------------------------------------------------------------------------


  Lattice summation method               =    Ewald          (3-D)
                                         =    Parry          (2-D)
                                         =    Saunders et al (1-D)
  Accuracy factor for lattice sums       =   12.000


  Analytic derivatives to be used

  Time limit = Infinity

  Maximum range for interatomic potentials =    100000.000000 Angstroms

  General interatomic potentials :

--------------------------------------------------------------------------------
Atom  Types   Potential      Parameter       Value         Units   Cutoffs(Ang)
  1     2                                                            Min /  Max 
--------------------------------------------------------------------------------
Si   c O1   s Buckingham    Buckingham A     1315.2478    eV        0.000 16.000
                            Buckingham rho  0.31775900    Ang       
                            Buckingham C     10.141118    eV*Ang^6  
--------------------------------------------------------------------------------
Si   c O2   s Buckingham    Buckingham A     1315.2478    eV        0.000 16.000
                            Buckingham rho  0.31775900    Ang       
                            Buckingham C     10.141118    eV*Ang^6  
--------------------------------------------------------------------------------
Si   c O3   s Buckingham    Buckingham A     1315.2478    eV        0.000 16.000
                            Buckingham rho  0.31775900    Ang       
                            Buckingham C     10.141118    eV*Ang^6  
--------------------------------------------------------------------------------
Ge   c O1   s Buckingham    Buckingham A     1497.3996    eV        0.000 16.000
                            Buckingham rho  0.32564600    Ang       
                            Buckingham C     16.808599    eV*Ang^6  
--------------------------------------------------------------------------------
Ge   c O2   s Buckingham    Buckingham A     1497.3996    eV        0.000 16.000
                            Buckingham rho  0.32564600    Ang       
                            Buckingham C     16.808599    eV*Ang^6  
--------------------------------------------------------------------------------
Ge   c O3   s Buckingham    Buckingham A     1497.3996    eV        0.000 16.000
                            Buckingham rho  0.32564600    Ang       
                            Buckingham C     16.808599    eV*Ang^6  
--------------------------------------------------------------------------------
O1   s O1   s Buckingham    Buckingham A     22764.000    eV        0.000 16.000
                            Buckingham rho  0.14900000    Ang       
                            Buckingham C     10.937044    eV*Ang^6  
--------------------------------------------------------------------------------
O1   s O2   s Buckingham    Buckingham A     22764.000    eV        0.000 16.000
                            Buckingham rho  0.14900000    Ang       
                            Buckingham C     10.937044    eV*Ang^6  
--------------------------------------------------------------------------------
O1   s O3   s Buckingham    Buckingham A     22764.000    eV        0.000 16.000
                            Buckingham rho  0.14900000    Ang       
                            Buckingham C     10.937044    eV*Ang^6  
--------------------------------------------------------------------------------
O2   s O2   s Buckingham    Buckingham A     22764.000    eV        0.000 16.000
                            Buckingham rho  0.14900000    Ang       
                            Buckingham C     10.937044    eV*Ang^6  
--------------------------------------------------------------------------------
O2   s O3   s Buckingham    Buckingham A     22764.000    eV        0.000 16.000
                            Buckingham rho  0.14900000    Ang       
                            Buckingham C     10.937044    eV*Ang^6  
--------------------------------------------------------------------------------
O3   s O3   s Buckingham    Buckingham A     22764.000    eV        0.000 16.000
                            Buckingham rho  0.14900000    Ang       
                            Buckingham C     10.937044    eV*Ang^6  
--------------------------------------------------------------------------------
O1   c O1   s Spring (c-s)  Spring k 2       180.31577    eV*Ang^-2 0.000  0.800
                            Spring k 4       0.0000000    eV*Ang^-4 
--------------------------------------------------------------------------------
O2   c O2   s Spring (c-s)  Spring k 2       75.969800    eV*Ang^-2 0.000  0.800
                            Spring k 4       0.0000000    eV*Ang^-4 
--------------------------------------------------------------------------------
O3   c O3   s Spring (c-s)  Spring k 2       128.14270    eV*Ang^-2 0.000  0.800
                            Spring k 4       0.0000000    eV*Ang^-4 
--------------------------------------------------------------------------------

  General Three-body potentials :

--------------------------------------------------------------------------------
  Atoms       Potential      Parameter       Value         Units   Cutoffs(Ang)
  1 / 2 / 3                                                          Min /  Max 
--------------------------------------------------------------------------------
Si    core    Harmonic      Three-body cnst  1.2614000    eV*rad^-2 0.000  1.900
O1    shel                  Three-body angl  109.47000    degrees   0.000  1.900
O1    shel                  Three-body k4    0.0000000    eV*rad^-4 0.000  3.500
                            Three-body k3    0.0000000    eV*rad^-3 
--------------------------------------------------------------------------------
Si    core    Harmonic      Three-body cnst  1.2614000    eV*rad^-2 0.000  1.900
O1    shel                  Three-body angl  109.47000    degrees   0.000  1.900
õ(1   shel                  Three-body k4    0.0000000    eV*rad^-4 0.000  3.500
                            Three-body k3    0.0000000    eV*rad^-3 
--------------------------------------------------------------------------------
Si    core    Harmonic      Three-body cnst  1.2614000    eV*rad^-2 0.000  1.900
õ(1   shel                  Three-body angl  109.47000    degrees   0.000  1.900
õ(1   shel                  Three-body k4    0.0000000    eV*rad^-4 0.000  3.500
                            Three-body k3    0.0000000    eV*rad^-3 
--------------------------------------------------------------------------------
Si    core    Harmonic      Three-body cnst  1.2614000    eV*rad^-2 0.000  1.900
O1    shel                  Three-body angl  109.47000    degrees   0.000  1.900
O2    shel                  Three-body k4    0.0000000    eV*rad^-4 0.000  3.500
                            Three-body k3    0.0000000    eV*rad^-3 
--------------------------------------------------------------------------------
Si    core    Harmonic      Three-body cnst  1.2614000    eV*rad^-2 0.000  1.900
O1    shel                  Three-body angl  109.47000    degrees   0.000  1.900
õ(2   shel                  Three-body k4    0.0000000    eV*rad^-4 0.000  3.500
                            Three-body k3    0.0000000    eV*rad^-3 
--------------------------------------------------------------------------------
Si    core    Harmonic      Three-body cnst  1.2614000    eV*rad^-2 0.000  1.900
O2    shel                  Three-body angl  109.47000    degrees   0.000  1.900
õ(1   shel                  Three-body k4    0.0000000    eV*rad^-4 0.000  3.500
                            Three-body k3    0.0000000    eV*rad^-3 
--------------------------------------------------------------------------------
Si    core    Harmonic      Three-body cnst  1.2614000    eV*rad^-2 0.000  1.900
õ(1   shel                  Three-body angl  109.47000    degrees   0.000  1.900
õ(2   shel                  Three-body k4    0.0000000    eV*rad^-4 0.000  3.500
                            Three-body k3    0.0000000    eV*rad^-3 
--------------------------------------------------------------------------------
Si    core    Harmonic      Three-body cnst  1.2614000    eV*rad^-2 0.000  1.900
O2    shel                  Three-body angl  109.47000    degrees   0.000  1.900
O2    shel                  Three-body k4    0.0000000    eV*rad^-4 0.000  3.500
                            Three-body k3    0.0000000    eV*rad^-3 
--------------------------------------------------------------------------------
Si    core    Harmonic      Three-body cnst  1.2614000    eV*rad^-2 0.000  1.900
O2    shel                  Three-body angl  109.47000    degrees   0.000  1.900
õ(2   shel                  Three-body k4    0.0000000    eV*rad^-4 0.000  3.500
                            Three-body k3    0.0000000    eV*rad^-3 
--------------------------------------------------------------------------------
Si    core    Harmonic      Three-body cnst  1.2614000    eV*rad^-2 0.000  1.900
õ(2   shel                  Three-body angl  109.47000    degrees   0.000  1.900
õ(2   shel                  Three-body k4    0.0000000    eV*rad^-4 0.000  3.500
                            Three-body k3    0.0000000    eV*rad^-3 
--------------------------------------------------------------------------------

********************************************************************************
*  Output for configuration   1 : c00020.vasp                                  *
********************************************************************************


  Components of energy : 

--------------------------------------------------------------------------------
  Interatomic potentials     =         912.66702504 eV    
  Three-body potentials      =           0.00000000 eV    
  Monopole - monopole (real) =       -2676.00317478 eV    
  Monopole - monopole (recip)=       -1115.35404472 eV    
  Monopole - monopole (total)=       -3791.35721950 eV    
--------------------------------------------------------------------------------
  Total lattice energy       =       -2878.69019446 eV    
--------------------------------------------------------------------------------
  Total lattice energy       =         -277749.5990 kJ/(mole unit cells)
--------------------------------------------------------------------------------


  Number of variables =      363

  Maximum number of calculations  =          1000
  Maximum Hessian update interval =            10
  Maximum step size               =   0.100000000
  Maximum parameter tolerance     =   0.000010000
  Maximum function  tolerance     =   0.000010000
  Maximum gradient  tolerance     =   0.001000000
  Maximum gradient  component     =   0.010000000

  Symmetry not applied to optimisation

  Cell parameters to be optimised using strains

  Newton-Raphson optimiser to be used

  BFGS hessian update to be used

  Lower half triangular hessian to be used

  Minimiser to switch to RFO
  When gradient norm is less than     0.050000

  Dumpfile to be written after every cycle

  Start of bulk optimisation :

  Cycle:      0 Energy:     -2878.690194  Gnorm:      5.964234  CPU:    0.090
  ** Hessian calculated **
  Cycle:      1 Energy:     -2924.574127  Gnorm:      1.437875  CPU:    0.207
  ** Hessian calculated **
  Cycle:      2 Energy:     -2928.674555  Gnorm:      0.947469  CPU:    0.398
  ** Hessian calculated **
  Cycle:      3 Energy:     -2930.822009  Gnorm:      0.428521  CPU:    0.557
  Cycle:      4 Energy:     -2931.205822  Gnorm:      0.200491  CPU:    0.636
  Cycle:      5 Energy:     -2931.348624  Gnorm:      0.167162  CPU:    0.730
  Cycle:      6 Energy:     -2931.526667  Gnorm:      0.138358  CPU:    0.824
  Cycle:      7 Energy:     -2931.705780  Gnorm:      0.127919  CPU:    0.918
  Cycle:      8 Energy:     -2931.791925  Gnorm:      0.087171  CPU:    0.997
  Cycle:      9 Energy:     -2931.830648  Gnorm:      0.070423  CPU:    1.076
  Cycle:     10 Energy:     -2931.859145  Gnorm:      0.059822  CPU:    1.170
  Cycle:     11 Energy:     -2931.881578  Gnorm:      0.057373  CPU:    1.265
  Cycle:     12 Energy:     -2931.904490  Gnorm:      0.061113  CPU:    1.359
  ** Hessian calculated **
  Cycle:     13 Energy:     -2931.919321  Gnorm:      0.060387  CPU:    1.533
  Cycle:     14 Energy:     -2931.943547  Gnorm:      0.059155  CPU:    1.642
  Cycle:     15 Energy:     -2931.977237  Gnorm:      0.057295  CPU:    1.751
  Cycle:     16 Energy:     -2932.011021  Gnorm:      0.055208  CPU:    1.846
  Cycle:     17 Energy:     -2932.047688  Gnorm:      0.052756  CPU:    1.955
  Cycle:     18 Energy:     -2932.057601  Gnorm:      0.053747  CPU:    2.049
  ** Hessian calculated **
  Cycle:     19 Energy:     -2932.138084  Gnorm:      0.053130  CPU:    2.225
  Cycle:     20 Energy:     -2932.250973  Gnorm:      0.063237  CPU:    2.320
  ** Hessian calculated **
  Cycle:     21 Energy:     -2932.433539  Gnorm:      0.049401  CPU:    2.481
  ** Hessian has wrong structure
  ** Imaginary eigenvectors =   4
  Cycle:     22 Energy:     -2932.456299  Gnorm:      0.085956  CPU:    2.699
  ** Hessian has wrong structure
  ** Imaginary eigenvectors =   4
  ** Hessian has wrong structure
  ** Imaginary eigenvectors =   3
  Cycle:     23 Energy:     -2932.489264  Gnorm:      0.102447  CPU:    3.111
  ** Hessian has wrong structure
  ** Imaginary eigenvectors =   2
  Cycle:     24 Energy:     -2932.583159  Gnorm:      0.125730  CPU:    3.419
  ** Hessian has required structure
  Cycle:     25 Energy:     -2932.909884  Gnorm:      0.108366  CPU:    3.623
  ** Hessian has required structure
  Cycle:     26 Energy:     -2933.111694  Gnorm:      0.049913  CPU:    3.751
  ** Hessian has required structure
  Cycle:     27 Energy:     -2933.222773  Gnorm:      0.087442  CPU:    3.896
  ** Hessian has required structure
  Cycle:     28 Energy:     -2933.284736  Gnorm:      0.059096  CPU:    4.025
  ** Hessian has required structure
  Cycle:     29 Energy:     -2933.326668  Gnorm:      0.074696  CPU:    4.169
  ** Hessian has required structure
  Cycle:     30 Energy:     -2933.359850  Gnorm:      0.077286  CPU:    4.297
  ** Hessian has required structure
  Cycle:     31 Energy:     -2933.392629  Gnorm:      0.053991  CPU:    4.427
  ** Hessian has required structure
  Cycle:     32 Energy:     -2933.410734  Gnorm:      0.037914  CPU:    4.555
  ** Hessian has required structure
  Cycle:     33 Energy:     -2933.422490  Gnorm:      0.021918  CPU:    4.684
  ** Hessian has required structure
  Cycle:     34 Energy:     -2933.427028  Gnorm:      0.022137  CPU:    4.813
  ** Hessian has required structure
  Cycle:     35 Energy:     -2933.437072  Gnorm:      0.011543  CPU:    5.029
  ** Hessian has required structure
  Cycle:     36 Energy:     -2933.439875  Gnorm:      0.006312  CPU:    5.171
  ** Hessian has required structure
  Cycle:     37 Energy:     -2933.440729  Gnorm:      0.003282  CPU:    5.314
  ** Hessian has required structure
  Cycle:     38 Energy:     -2933.440969  Gnorm:      0.001710  CPU:    5.456
  ** Hessian has required structure
  Cycle:     39 Energy:     -2933.441031  Gnorm:      0.001032  CPU:    5.583
  ** Hessian has required structure
  Cycle:     40 Energy:     -2933.441054  Gnorm:      0.000625  CPU:    5.712
  ** Hessian has required structure
  Cycle:     41 Energy:     -2933.441063  Gnorm:      0.000375  CPU:    5.840
  ** Hessian has required structure
  Cycle:     42 Energy:     -2933.441065  Gnorm:      0.000263  CPU:    5.953
  ** Hessian has required structure
  Cycle:     43 Energy:     -2933.366714  Gnorm:      0.118080  CPU:    6.110
  ** Hessian has required structure
  Cycle:     44 Energy:     -2933.375748  Gnorm:      0.110686  CPU:    6.327
  ** Hessian has required structure
  Cycle:     45 Energy:     -2933.389785  Gnorm:      0.098095  CPU:    6.485
  ** Hessian has required structure
  Cycle:     46 Energy:     -2933.405474  Gnorm:      0.081732  CPU:    6.627
  ** Hessian has required structure
  Cycle:     47 Energy:     -2933.422924  Gnorm:      0.058365  CPU:    6.770
  ** Hessian has required structure
  Cycle:     48 Energy:     -2933.436552  Gnorm:      0.029101  CPU:    6.913
  ** Hessian has required structure
  Cycle:     49 Energy:     -2933.439941  Gnorm:      0.014513  CPU:    7.055
  ** Hessian has required structure
  Cycle:     50 Energy:     -2933.440789  Gnorm:      0.007246  CPU:    7.197
  ** Hessian has required structure
  Cycle:     51 Energy:     -2933.440966  Gnorm:      0.004346  CPU:    7.326
  ** Hessian has required structure
  Cycle:     52 Energy:     -2933.441042  Gnorm:      0.002172  CPU:    7.469
  ** Hessian has required structure
  Cycle:     53 Energy:     -2933.441063  Gnorm:      0.001086  CPU:    7.611
  ** Hessian has required structure
  Cycle:     54 Energy:     -2933.441066  Gnorm:      0.000760  CPU:    7.799
  ** Hessian has required structure
  Cycle:     55 Energy:     -2933.441067  Gnorm:      0.000532  CPU:    7.914
  ** Hessian has required structure
  Cycle:     56 Energy:     -2933.441068  Gnorm:      0.000372  CPU:    8.028
  ** Hessian has required structure
  Cycle:     57 Energy:     -2933.441069  Gnorm:      0.000331  CPU:    8.186
  ** Hessian has required structure
  Cycle:     58 Energy:     -2933.441069  Gnorm:      0.000232  CPU:    8.376
  ** Hessian has required structure
  Cycle:     59 Energy:     -2933.441069  Gnorm:      0.000162  CPU:    8.489
  ** Hessian has required structure
  Cycle:     60 Energy:     -2933.441069  Gnorm:      0.000007  CPU:    8.647
  ** Hessian has required structure


  **** Optimisation achieved ****


  Final energy =   -2933.44106863 eV      
  Final Gnorm  =       0.00000485

  Components of energy : 

--------------------------------------------------------------------------------
  Interatomic potentials     =         774.10800001 eV    
  Three-body potentials      =           0.00000000 eV    
  Monopole - monopole (real) =       -1481.70203408 eV    
  Monopole - monopole (recip)=       -2225.84703455 eV    
  Monopole - monopole (total)=       -3707.54906863 eV    
--------------------------------------------------------------------------------
  Total lattice energy       =       -2933.44106863 eV    
--------------------------------------------------------------------------------
  Total lattice energy       =         -283032.2214 kJ/(mole unit cells)
--------------------------------------------------------------------------------

  Final fractional coordinates of atoms :

--------------------------------------------------------------------------------
   No.  Atomic        x           y          z          Radius
        Label       (Frac)      (Frac)     (Frac)       (Angs) 
--------------------------------------------------------------------------------
     1  Ge    c     0.052090    0.000000    0.372270    0.000000
     2  Ge    c     0.440619    0.050836    0.375960    0.000000
     3  Ge    c     0.942703    0.046984    0.617443    0.000000
     4  Ge    c     0.549328    0.994834    0.624732    0.000000
     5  Ge    c     0.547126    0.998774    0.125937    0.000000
     6  Ge    c     0.938892    0.053812    0.131396    0.000000
     7  Ge    c     0.443651    0.055177    0.874597    0.000000
     8  Ge    c     0.042176    0.990793    0.877129    0.000000
     9  Ge    c     0.167770    0.295716    0.263414    0.000000
    10  Ge    c     0.320207    0.766921    0.259557    0.000000
    11  Ge    c     0.847496    0.364195    0.687834    0.000000
    12  Ge    c     0.820851    0.764309    0.692565    0.000000
    13  Ge    c     0.667053    0.289614    0.691524    0.000000
    14  Ge    c     0.349189    0.367813    0.260943    0.000000
    15  Ge    c     0.667156    0.283326    0.009304    0.000000
    16  Ge    c     0.818340    0.769562    0.012262    0.000000
    17  Ge    c     0.343978    0.364403    0.940646    0.000000
    18  Ge    c     0.143491    0.681777    0.939218    0.000000
    19  Ge    c     0.320423    0.767249    0.940507    0.000000
    20  Ge    c     0.165777    0.277831    0.946935    0.000000
    21  Ge    c     0.639786    0.686695    0.003447    0.000000
    22  Ge    c     0.847146    0.365422    0.007732    0.000000
    23  Si    c     0.645146    0.683533    0.690722    0.000000
    24  Si    c     0.143849    0.689849    0.252940    0.000000
    25  O1    c     0.121138    0.154397    0.363426    0.000000
    26  O1    c     0.361918    0.924193    0.351269    0.000000
    27  O1    c     0.910134    0.249533    0.596140    0.000000
    28  O3    c     0.587126    0.793499    0.606188    0.000000
    29  O1    c     0.867251    0.907466    0.595210    0.000000
    30  O1    c     0.616454    0.150942    0.593749    0.000000
    31  O3    c     0.082590    0.799357    0.330054    0.000000
    32  O1    c     0.415882    0.257571    0.346065    0.000000
    33  O1    c     0.021920    0.995889    0.533826    0.000000
    34  O1    c     0.469060    0.025236    0.536603    0.000000
    35  O1    c     0.970407    0.049516    0.291108    0.000000
    36  O1    c     0.518507    0.993539    0.287141    0.000000
    37  O1    c     0.966264    0.031066    0.782712    0.000000
    38  O1    c     0.522443    0.013403    0.787226    0.000000
    39  O1    c     0.622833    0.136360    0.107341    0.000000
    40  O1    c     0.862976    0.917077    0.109949    0.000000
    41  O1    c     0.406215    0.252781    0.847157    0.000000
    42  O1    c     0.076820    0.788832    0.853758    0.000000
    43  O1    c     0.373375    0.904033    0.847886    0.000000
    44  O1    c     0.114718    0.137457    0.853205    0.000000
    45  O1    c     0.570184    0.794244    0.080822    0.000000
    46  O1    c     0.912920    0.258754    0.096317    0.000000
    47  O1    c     0.470125    0.060748    0.038108    0.000000
    48  O1    c     0.014795    0.995926    0.039358    0.000000
    49  O3    c     0.153582    0.504282    0.316606    0.000000
    50  O1    c     0.340759    0.570760    0.322882    0.000000
    51  O1    c     0.838381    0.565321    0.628763    0.000000
    52  O3    c     0.655944    0.496472    0.631766    0.000000
    53  O1    c     0.262935    0.262563    0.268291    0.000000
    54  O3    c     0.223272    0.793613    0.256930    0.000000
    55  O1    c     0.761905    0.254019    0.688052    0.000000
    56  O3    c     0.724020    0.790586    0.694805    0.000000
    57  O1    c     0.134109    0.264256    0.107005    0.000000
    58  O1    c     0.351824    0.782282    0.100567    0.000000
    59  O1    c     0.877488    0.382463    0.848108    0.000000
    60  O3    c     0.616045    0.659367    0.839196    0.000000
    61  O1    c     0.850803    0.782807    0.853158    0.000000
    62  O1    c     0.635041    0.266112    0.849924    0.000000
    63  O3    c     0.118332    0.659386    0.103554    0.000000
    64  O1    c     0.375433    0.389099    0.099856    0.000000
    65  O1    c     0.649902    0.486456    0.066308    0.000000
    66  O1    c     0.834167    0.566375    0.068828    0.000000
    67  O1    c     0.330203    0.562775    0.879615    0.000000
    68  O1    c     0.154042    0.479840    0.882701    0.000000
    69  O1    c     0.762666    0.252748    0.009745    0.000000
    70  O1    c     0.722834    0.802258    0.015916    0.000000
    71  O1    c     0.260991    0.244578    0.947237    0.000000
    72  O1    c     0.225468    0.803764    0.934057    0.000000
    73  O1    s     0.119382    0.153322    0.356386    0.000000
    74  O1    s     0.364626    0.921422    0.345894    0.000000
    75  O1    s     0.907953    0.243019    0.604395    0.000000
    76  O3    s     0.589760    0.798363    0.615599    0.000000
    77  O1    s     0.869133    0.906501    0.604347    0.000000
    78  O1    s     0.615333    0.149946    0.603336    0.000000
    79  O3    s     0.086170    0.804644    0.325866    0.000000
    80  O1    s     0.412705    0.250449    0.341900    0.000000
    81  O1    s     0.017878    0.000165    0.528860    0.000000
    82  O1    s     0.473212    0.024791    0.531744    0.000000
    83  O1    s     0.974076    0.046182    0.285413    0.000000
    84  O1    s     0.514892    0.998155    0.281869    0.000000
    85  O1    s     0.970703    0.028988    0.778813    0.000000
    86  O1    s     0.518159    0.015327    0.782522    0.000000
    87  O1    s     0.620530    0.137303    0.101183    0.000000
    88  O1    s     0.865235    0.915896    0.103950    0.000000
    89  O1    s     0.404287    0.246869    0.856072    0.000000
    90  O1    s     0.079439    0.795048    0.861925    0.000000
    91  O1    s     0.374393    0.904423    0.857045    0.000000
    92  O1    s     0.113438    0.137766    0.862217    0.000000
    93  O1    s     0.573949    0.800758    0.078040    0.000000
    94  O1    s     0.909773    0.251814    0.092085    0.000000
    95  O1    s     0.473961    0.055730    0.033155    0.000000
    96  O1    s     0.011082    0.999930    0.034578    0.000000
    97  O3    s     0.153714    0.506276    0.306632    0.000000
    98  O1    s     0.339870    0.570385    0.313674    0.000000
    99  O1    s     0.837810    0.564189    0.638006    0.000000
   100  O3    s     0.655708    0.499516    0.641909    0.000000
   101  O1    s     0.262037    0.272745    0.267384    0.000000
   102  O3    s     0.223303    0.781871    0.256752    0.000000
   103  O1    s     0.760830    0.264527    0.688316    0.000000
   104  O3    s     0.724250    0.778766    0.694282    0.000000
   105  O1    s     0.138861    0.267518    0.107155    0.000000
   106  O1    s     0.347221    0.780083    0.100692    0.000000
   107  O1    s     0.873027    0.379854    0.848129    0.000000
   108  O3    s     0.620642    0.663744    0.837754    0.000000
   109  O1    s     0.846264    0.780500    0.853065    0.000000
   110  O1    s     0.639718    0.269066    0.849924    0.000000
   111  O3    s     0.122734    0.664017    0.105577    0.000000
   112  O1    s     0.371146    0.385699    0.100278    0.000000
   113  O1    s     0.650377    0.486915    0.057490    0.000000
   114  O1    s     0.833998    0.566013    0.060156    0.000000
   115  O1    s     0.330570    0.561928    0.888712    0.000000
   116  O1    s     0.154054    0.481372    0.891682    0.000000
   117  O1    s     0.761671    0.263222    0.009554    0.000000
   118  O1    s     0.723764    0.791303    0.014716    0.000000
   119  O1    s     0.259751    0.255478    0.946772    0.000000
   120  O1    s     0.226637    0.792309    0.934931    0.000000
--------------------------------------------------------------------------------

  Final Cartesian lattice vectors (Angstroms) :

       17.715370   -0.172569   -0.014747
       -0.077608    7.849376   -0.014652
       -0.009815   -0.018849   10.179440


  Final cell parameters and derivatives :

--------------------------------------------------------------------------------
       a           17.716217 Angstrom     dE/de1(xx)    -0.000296 eV/strain
       b            7.849773 Angstrom     dE/de2(yy)    -0.000012 eV/strain
       c           10.179462 Angstrom     dE/de3(zz)    -0.000358 eV/strain
       alpha       90.212482 Degrees      dE/de4(yz)    -0.000111 eV/strain
       beta        90.101903 Degrees      dE/de5(xz)    -0.000048 eV/strain
       gamma       91.124495 Degrees      dE/de6(xy)    -0.000212 eV/strain
--------------------------------------------------------------------------------

  Primitive cell volume =          1415.355607 Angs**3

  Density of cell =      2.841141 g/cm**3

  Non-primitive cell volume =          1415.355607 Angs**3


  Final internal derivatives :

--------------------------------------------------------------------------------
   No.  Atomic          a             b             c           Radius
        Label          (eV)          (eV)          (eV)        (eV/Angs)
--------------------------------------------------------------------------------
      1 Ge    c       0.000000      0.000000      0.000000      0.000000
      2 Ge    c       0.000035     -0.000116      0.000076      0.000000
      3 Ge    c       0.000008     -0.000088      0.000160      0.000000
      4 Ge    c      -0.000064      0.000098      0.000110      0.000000
      5 Ge    c      -0.000087      0.000039      0.000044      0.000000
      6 Ge    c       0.000073     -0.000099      0.000105      0.000000
      7 Ge    c       0.000054     -0.000074      0.000156      0.000000
      8 Ge    c      -0.000083      0.000088      0.000101      0.000000
      9 Ge    c      -0.000065     -0.000020     -0.000143      0.000000
     10 Ge    c       0.000110      0.000077     -0.000081      0.000000
     11 Ge    c      -0.000056     -0.000012      0.000172      0.000000
     12 Ge    c       0.000067      0.000022      0.000152      0.000000
     13 Ge    c      -0.000153     -0.000076      0.000072      0.000000
     14 Ge    c      -0.000120      0.000037     -0.000143      0.000000
     15 Ge    c      -0.000061     -0.000007     -0.000160      0.000000
     16 Ge    c       0.000121      0.000065     -0.000084      0.000000
     17 Ge    c      -0.000042     -0.000014      0.000170      0.000000
     18 Ge    c       0.000126     -0.000027      0.000134      0.000000
     19 Ge    c       0.000078      0.000016      0.000141      0.000000
     20 Ge    c      -0.000147     -0.000070      0.000079      0.000000
     21 Ge    c       0.000117      0.000009     -0.000160      0.000000
     22 Ge    c      -0.000126      0.000035     -0.000145      0.000000
     23 Si    c       0.000095     -0.000030      0.000129      0.000000
     24 Si    c       0.000099     -0.000009     -0.000163      0.000000
     25 O1    c      -0.000189     -0.000074      0.000071      0.000000
     26 O1    c       0.000116     -0.000010     -0.000048      0.000000
     27 O1    c       0.000021      0.000079      0.000012      0.000000
     28 O3    c      -0.000094     -0.000016     -0.000058      0.000000
     29 O1    c       0.000229      0.000079      0.000012      0.000000
     30 O1    c       0.000040      0.000035      0.000143      0.000000
     31 O3    c      -0.000089     -0.000004      0.000032      0.000000
     32 O1    c       0.000110      0.000065      0.000093      0.000000
     33 O1    c       0.000235     -0.000007      0.000039      0.000000
     34 O1    c      -0.000134      0.000028      0.000001      0.000000
     35 O1    c      -0.000199     -0.000002     -0.000031      0.000000
     36 O1    c       0.000224     -0.000014      0.000027      0.000000
     37 O1    c      -0.000103      0.000003     -0.000055      0.000000
     38 O1    c       0.000203     -0.000033      0.000010      0.000000
     39 O1    c      -0.000173     -0.000061      0.000076      0.000000
     40 O1    c       0.000076     -0.000020     -0.000035      0.000000
     41 O1    c      -0.000012      0.000083      0.000008      0.000000
     42 O1    c      -0.000123     -0.000021     -0.000051      0.000000
     43 O1    c       0.000218      0.000081      0.000039      0.000000
     44 O1    c       0.000004      0.000027      0.000142      0.000000
     45 O1    c      -0.000108     -0.000021      0.000036      0.000000
     46 O1    c       0.000113      0.000080      0.000103      0.000000
     47 O1    c      -0.000185     -0.000027     -0.000082      0.000000
     48 O1    c       0.000266     -0.000020     -0.000011      0.000000
     49 O3    c       0.000031     -0.000078     -0.000021      0.000000
     50 O1    c       0.000047     -0.000093     -0.000046      0.000000
     51 O1    c      -0.000027      0.000094      0.000045      0.000000
     52 O3    c      -0.000007      0.000047      0.000048      0.000000
     53 O1    c       0.000157      0.000042     -0.000033      0.000000
     54 O3    c      -0.000128     -0.000046     -0.000009      0.000000
     55 O1    c       0.000138      0.000047      0.000011      0.000000
     56 O3    c      -0.000121     -0.000037      0.000012      0.000000
     57 O1    c       0.000304      0.000065      0.000066      0.000000
     58 O1    c      -0.000289     -0.000048     -0.000069      0.000000
     59 O1    c      -0.000259     -0.000050     -0.000073      0.000000
     60 O3    c       0.000197      0.000051      0.000078      0.000000
     61 O1    c      -0.000285     -0.000047     -0.000063      0.000000
     62 O1    c       0.000285      0.000058      0.000088      0.000000
     63 O3    c       0.000180      0.000071      0.000055      0.000000
     64 O1    c      -0.000279     -0.000055     -0.000071      0.000000
     65 O1    c       0.000025     -0.000079     -0.000035      0.000000
     66 O1    c       0.000034     -0.000093     -0.000056      0.000000
     67 O1    c      -0.000053      0.000098      0.000048      0.000000
     68 O1    c      -0.000013      0.000073      0.000052      0.000000
     69 O1    c       0.000171      0.000043     -0.000019      0.000000
     70 O1    c      -0.000177     -0.000056     -0.000028      0.000000
     71 O1    c       0.000132      0.000056     -0.000001      0.000000
     72 O1    c      -0.000146     -0.000045      0.000031      0.000000
     73 O1    s       0.000086      0.000038     -0.000051      0.000000
     74 O1    s      -0.000041      0.000009      0.000027      0.000000
     75 O1    s      -0.000025     -0.000059     -0.000053      0.000000
     76 O3    s       0.000061      0.000021      0.000003      0.000000
     77 O1    s      -0.000113     -0.000045     -0.000032      0.000000
     78 O1    s      -0.000038     -0.000017     -0.000119      0.000000
     79 O3    s       0.000049      0.000019      0.000003      0.000000
     80 O1    s      -0.000090     -0.000058     -0.000058      0.000000
     81 O1    s      -0.000172      0.000008     -0.000121      0.000000
     82 O1    s       0.000109     -0.000016     -0.000093      0.000000
     83 O1    s       0.000132     -0.000010     -0.000058      0.000000
     84 O1    s      -0.000151      0.000016     -0.000102      0.000000
     85 O1    s       0.000100      0.000001     -0.000043      0.000000
     86 O1    s      -0.000168      0.000017     -0.000091      0.000000
     87 O1    s       0.000076      0.000031     -0.000050      0.000000
     88 O1    s      -0.000032      0.000012      0.000021      0.000000
     89 O1    s       0.000003     -0.000063     -0.000051      0.000000
     90 O1    s       0.000099      0.000031      0.000007      0.000000
     91 O1    s      -0.000110     -0.000047     -0.000055      0.000000
     92 O1    s      -0.000009     -0.000013     -0.000119      0.000000
     93 O1    s       0.000089      0.000030     -0.000011      0.000000
     94 O1    s      -0.000098     -0.000056     -0.000057      0.000000
     95 O1    s       0.000107      0.000014     -0.000017      0.000000
     96 O1    s      -0.000166      0.000015     -0.000071      0.000000
     97 O3    s      -0.000023      0.000041      0.000044      0.000000
     98 O1    s      -0.000017      0.000038      0.000077      0.000000
     99 O1    s       0.000019     -0.000053     -0.000068      0.000000
    100 O3    s      -0.000008     -0.000011     -0.000071      0.000000
    101 O1    s      -0.000067     -0.000027      0.000037      0.000000
    102 O3    s       0.000027      0.000036      0.000011      0.000000
    103 O1    s      -0.000043     -0.000044     -0.000017      0.000000
    104 O3    s       0.000045      0.000020     -0.000023      0.000000
    105 O1    s      -0.000117     -0.000043     -0.000030      0.000000
    106 O1    s       0.000097      0.000029      0.000024      0.000000
    107 O1    s       0.000064      0.000019      0.000029      0.000000
    108 O3    s      -0.000027     -0.000014     -0.000012      0.000000
    109 O1    s       0.000094      0.000027     -0.000001      0.000000
    110 O1    s      -0.000100     -0.000039     -0.000051      0.000000
    111 O3    s      -0.000006     -0.000031     -0.000038      0.000000
    112 O1    s       0.000075      0.000023      0.000044      0.000000
    113 O1    s      -0.000020      0.000050      0.000057      0.000000
    114 O1    s      -0.000009      0.000039      0.000080      0.000000
    115 O1    s       0.000045     -0.000053     -0.000072      0.000000
    116 O1    s      -0.000012     -0.000024     -0.000075      0.000000
    117 O1    s      -0.000070     -0.000026      0.000025      0.000000
    118 O1    s       0.000048      0.000045      0.000026      0.000000
    119 O1    s      -0.000032     -0.000051     -0.000003      0.000000
    120 O1    s       0.000050      0.000028     -0.000039      0.000000
--------------------------------------------------------------------------------
  Maximum abs         0.000304      0.000116      0.000172      0.000000
--------------------------------------------------------------------------------


  Born effective charge tensors : 

-------------------------------------------------------------------------------
  Atom             x           y             z
-------------------------------------------------------------------------------
    1 Ge    x       4.1679     -0.1755     -0.4540
            y       0.1670      3.9209      0.1277
            z      -0.2388     -0.0409      4.3717
-------------------------------------------------------------------------------
    2 Ge    x       4.1969     -0.3048      0.4807
            y       0.1695      3.9074     -0.0956
            z       0.2579     -0.0752      4.4634
-------------------------------------------------------------------------------
    3 Ge    x       4.1962     -0.2667      0.0743
            y       0.1004      3.9165     -0.0110
            z      -0.8147      0.1784      4.1682
-------------------------------------------------------------------------------
    4 Ge    x       4.1406     -0.2015     -0.1158
            y       0.0934      3.9114     -0.0418
            z       0.7777     -0.1545      4.1179
-------------------------------------------------------------------------------
    5 Ge    x       4.2389     -0.2049     -0.4113
            y       0.1842      3.9301      0.1087
            z      -0.3224     -0.0081      4.0118
-------------------------------------------------------------------------------
    6 Ge    x       4.2918     -0.2241      0.4131
            y       0.1428      3.9396     -0.0911
            z       0.3399     -0.0101      3.9572
-------------------------------------------------------------------------------
    7 Ge    x       4.3323     -0.1717      0.0633
            y       0.0531      3.9345      0.0173
            z      -0.6476      0.1754      3.6341
-------------------------------------------------------------------------------
    8 Ge    x       4.2849     -0.2001     -0.0266
            y       0.0959      3.9318     -0.0100
            z       0.6665     -0.1678      3.7097
-------------------------------------------------------------------------------
    9 Ge    x       3.9647      0.2488     -0.2395
            y       0.2833      4.1715     -0.1338
            z       0.0182     -0.2238      3.5658
-------------------------------------------------------------------------------
   10 Ge    x       3.8691      0.2831      0.2723
            y       0.2524      4.1975      0.0518
            z       0.0151      0.1849      3.6104
-------------------------------------------------------------------------------
   11 Ge    x       3.9248     -0.1158     -0.2127
            y      -0.4574      4.2160      0.1068
            z      -0.0791      0.1912      3.5777
-------------------------------------------------------------------------------
   12 Ge    x       3.9073      0.2962     -0.3101
            y       0.3165      4.1376     -0.0479
            z      -0.0463     -0.1220      3.5873
-------------------------------------------------------------------------------
   13 Ge    x       3.9896      0.2670      0.2396
            y       0.3293      4.1400      0.0942
            z      -0.0156      0.1766      3.5128
-------------------------------------------------------------------------------
   14 Ge    x       3.9685     -0.0976      0.1815
            y      -0.4694      4.1918     -0.1031
            z       0.1066     -0.2220      3.6088
-------------------------------------------------------------------------------
   15 Ge    x       4.0167      0.2300     -0.3185
            y       0.2141      4.2107     -0.1213
            z      -0.0211     -0.2113      3.5446
-------------------------------------------------------------------------------
   16 Ge    x       4.0333      0.2261      0.3320
            y       0.2256      4.1897      0.1097
            z       0.0490      0.1902      3.5568
-------------------------------------------------------------------------------
   17 Ge    x       3.9762     -0.0979     -0.3130
            y      -0.4404      4.2011      0.0996
            z      -0.1031      0.1862      3.4602
-------------------------------------------------------------------------------
   18 Ge    x       3.9613     -0.0746      0.3306
            y      -0.4368      4.1984     -0.0823
            z       0.1449     -0.1943      3.4010
-------------------------------------------------------------------------------
   19 Ge    x       4.0907      0.2574     -0.3212
            y       0.3364      4.1346     -0.0657
            z      -0.0690     -0.1326      3.4758
-------------------------------------------------------------------------------
   20 Ge    x       4.0644      0.2690      0.3232
            y       0.3104      4.1674      0.0690
            z       0.0383      0.1507      3.4730
-------------------------------------------------------------------------------
   21 Ge    x       3.9950     -0.0736     -0.2943
            y      -0.4463      4.1870      0.0469
            z      -0.1729      0.2058      3.4382
-------------------------------------------------------------------------------
   22 Ge    x       4.0192     -0.0755      0.2831
            y      -0.4469      4.1829     -0.0989
            z       0.1340     -0.1966      3.5252
-------------------------------------------------------------------------------
   23 Si    x       3.6128     -0.0738      0.2144
            y      -0.4208      3.9284     -0.1071
            z       0.0455     -0.2185      3.2822
-------------------------------------------------------------------------------
   24 Si    x       3.6631     -0.0719     -0.1860
            y      -0.4331      3.9247      0.0889
            z      -0.0846      0.2500      3.3241
-------------------------------------------------------------------------------
   25 O1    x      -2.1024     -0.9117      0.4826
            y      -0.9627     -2.4209      0.4933
            z       0.4518      0.5351     -1.6643
-------------------------------------------------------------------------------
   26 O1    x      -2.2263     -0.8904     -0.5306
            y      -0.9405     -2.3118     -0.5264
            z      -0.4853     -0.5455     -1.6586
-------------------------------------------------------------------------------
   27 O1    x      -1.9394      0.8635      0.3418
            y       0.8270     -2.5455     -0.2974
            z       0.4261     -0.3326     -1.5919
-------------------------------------------------------------------------------
   28 O3    x      -1.8993      0.8643     -0.3741
            y       0.8220     -2.3284      0.3455
            z      -0.4405      0.3987     -1.5003
-------------------------------------------------------------------------------
   29 O1    x      -2.2096     -0.8925      0.3112
            y      -0.9649     -2.2748      0.3691
            z       0.3855      0.3710     -1.6117
-------------------------------------------------------------------------------
   30 O1    x      -2.0934     -0.8938     -0.2706
            y      -0.9688     -2.3921     -0.3162
            z      -0.3639     -0.3413     -1.6022
-------------------------------------------------------------------------------
   31 O3    x      -1.9160      0.8617      0.5414
            y       0.7977     -2.3457     -0.5616
            z       0.4808     -0.5642     -1.5683
-------------------------------------------------------------------------------
   32 O1    x      -1.9450      0.8310     -0.5048
            y       0.7748     -2.5689      0.5350
            z      -0.4650      0.5277     -1.6418
-------------------------------------------------------------------------------
   33 O1    x      -2.1470      0.2439      0.9204
            y       0.1090     -1.2896     -0.1106
            z       1.1680     -0.1996     -3.0127
-------------------------------------------------------------------------------
   34 O1    x      -2.1471      0.2497     -0.9258
            y       0.0986     -1.2870      0.1590
            z      -1.1681      0.2839     -3.0314
-------------------------------------------------------------------------------
   35 O1    x      -2.1783      0.2519     -0.7842
            y       0.1434     -1.3151      0.1393
            z      -0.8095      0.1667     -2.6797
-------------------------------------------------------------------------------
   36 O1    x      -2.0842      0.2313      0.7813
            y       0.1119     -1.3099     -0.1276
            z       0.8106     -0.1494     -2.7655
-------------------------------------------------------------------------------
   37 O1    x      -2.1311      0.2178     -0.8197
            y       0.0964     -1.3412      0.1592
            z      -0.7990      0.2035     -2.6185
-------------------------------------------------------------------------------
   38 O1    x      -2.1947      0.2355      0.8331
            y       0.1276     -1.3479     -0.1714
            z       0.8156     -0.2157     -2.5337
-------------------------------------------------------------------------------
   39 O1    x      -2.2198     -0.8930      0.5307
            y      -0.9187     -2.2969      0.5196
            z       0.4665      0.5207     -1.6083
-------------------------------------------------------------------------------
   40 O1    x      -2.2412     -0.9011     -0.5485
            y      -0.9178     -2.2853     -0.5246
            z      -0.4782     -0.5214     -1.6084
-------------------------------------------------------------------------------
   41 O1    x      -2.0468      0.8729      0.3484
            y       0.8437     -2.4831     -0.2620
            z       0.3906     -0.2897     -1.4852
-------------------------------------------------------------------------------
   42 O1    x      -2.0817      0.8793     -0.3598
            y       0.8391     -2.4771      0.2533
            z      -0.4186      0.3078     -1.4784
-------------------------------------------------------------------------------
   43 O1    x      -2.2399     -0.9197      0.3129
            y      -0.9662     -2.2837      0.3139
            z       0.3864      0.3389     -1.5000
-------------------------------------------------------------------------------
   44 O1    x      -2.2304     -0.9056     -0.3128
            y      -0.9627     -2.2948     -0.3341
            z      -0.3743     -0.3462     -1.5058
-------------------------------------------------------------------------------
   45 O1    x      -2.0479      0.8392      0.5508
            y       0.7577     -2.5115     -0.5705
            z       0.4905     -0.5616     -1.5731
-------------------------------------------------------------------------------
   46 O1    x      -2.0135      0.8273     -0.5578
            y       0.7562     -2.5290      0.5717
            z      -0.4876      0.5410     -1.5771
-------------------------------------------------------------------------------
   47 O1    x      -2.1521      0.2426     -0.6822
            y       0.1559     -1.3797      0.1472
            z      -0.4742      0.1130     -2.2819
-------------------------------------------------------------------------------
   48 O1    x      -2.1432      0.2398      0.7065
            y       0.1428     -1.3716     -0.1671
            z       0.4927     -0.1439     -2.3048
-------------------------------------------------------------------------------
   49 O3    x      -1.2670      0.1628      0.0449
            y       0.2620     -3.0023      0.1641
            z      -0.0002      0.1641     -1.3201
-------------------------------------------------------------------------------
   50 O1    x      -1.3755      0.2232     -0.0936
            y       0.3251     -3.1202      0.0023
            z      -0.0538     -0.0006     -1.4029
-------------------------------------------------------------------------------
   51 O1    x      -1.3669      0.2185      0.0918
            y       0.3031     -3.1275     -0.0128
            z       0.0464      0.0086     -1.3858
-------------------------------------------------------------------------------
   52 O3    x      -1.2607      0.1648     -0.0479
            y       0.2442     -2.9914     -0.0969
            z       0.0031     -0.1336     -1.3058
-------------------------------------------------------------------------------
   53 O1    x      -3.0650     -0.2383      0.0132
            y      -0.1430     -1.5749      0.0275
            z      -0.0188      0.0606     -1.2182
-------------------------------------------------------------------------------
   54 O3    x      -2.8394     -0.3430     -0.0286
            y      -0.2836     -1.5103     -0.0220
            z      -0.0135     -0.0579     -1.1574
-------------------------------------------------------------------------------
   55 O1    x      -3.0450     -0.2378      0.0187
            y      -0.1262     -1.5941     -0.0055
            z       0.0519     -0.0418     -1.2072
-------------------------------------------------------------------------------
   56 O3    x      -2.8204     -0.3517     -0.0090
            y      -0.2704     -1.5197      0.0033
            z      -0.0156      0.0376     -1.1495
-------------------------------------------------------------------------------
   57 O1    x      -1.4808     -0.1239     -0.0349
            y      -0.1380     -1.4553     -0.0880
            z      -0.0440     -0.0748     -2.6930
-------------------------------------------------------------------------------
   58 O1    x      -1.5081     -0.1113      0.0713
            y      -0.1238     -1.4166      0.0323
            z       0.0514      0.0113     -2.7291
-------------------------------------------------------------------------------
   59 O1    x      -1.4560      0.0213     -0.0362
            y       0.0882     -1.4285      0.0084
            z      -0.0202     -0.0103     -2.7512
-------------------------------------------------------------------------------
   60 O3    x      -1.3514      0.0084      0.1612
            y       0.0783     -1.3691      0.0264
            z       0.1270      0.0324     -2.5877
-------------------------------------------------------------------------------
   61 O1    x      -1.5099     -0.1094     -0.0367
            y      -0.1242     -1.4148     -0.0156
            z      -0.0045     -0.0189     -2.7359
-------------------------------------------------------------------------------
   62 O1    x      -1.4753     -0.1209      0.0112
            y      -0.1323     -1.4511      0.0295
            z       0.0142      0.0363     -2.7039
-------------------------------------------------------------------------------
   63 O3    x      -1.3413      0.0051     -0.1233
            y       0.0759     -1.3698     -0.0631
            z      -0.0943     -0.0588     -2.6067
-------------------------------------------------------------------------------
   64 O1    x      -1.4487      0.0178      0.0167
            y       0.0847     -1.4377     -0.0124
            z       0.0015     -0.0138     -2.7414
-------------------------------------------------------------------------------
   65 O1    x      -1.3749      0.1918      0.0855
            y       0.3028     -3.1641      0.0690
            z       0.0303      0.0625     -1.3803
-------------------------------------------------------------------------------
   66 O1    x      -1.3909      0.2180     -0.0831
            y       0.3170     -3.1646     -0.0330
            z      -0.0382     -0.0114     -1.3539
-------------------------------------------------------------------------------
   67 O1    x      -1.3830      0.1980      0.0749
            y       0.2586     -3.1349      0.0186
            z       0.0230      0.0270     -1.3530
-------------------------------------------------------------------------------
   68 O1    x      -1.3677      0.1705     -0.0858
            y       0.2486     -3.1556      0.0107
            z      -0.0235     -0.0340     -1.3740
-------------------------------------------------------------------------------
   69 O1    x      -3.0651     -0.2886      0.0027
            y      -0.2043     -1.5842      0.0253
            z      -0.0274      0.0500     -1.2030
-------------------------------------------------------------------------------
   70 O1    x      -3.0392     -0.2892     -0.0493
            y      -0.2041     -1.5824     -0.0439
            z      -0.0399     -0.0769     -1.2188
-------------------------------------------------------------------------------
   71 O1    x      -3.0332     -0.2897      0.0372
            y      -0.1839     -1.6093      0.0023
            z       0.0564     -0.0311     -1.1894
-------------------------------------------------------------------------------
   72 O1    x      -3.0101     -0.2880      0.0039
            y      -0.1796     -1.6018      0.0252
            z       0.0088      0.0648     -1.2063
-------------------------------------------------------------------------------




  Elastic Constant Matrix: (Units=GPa)

-------------------------------------------------------------------------------
  Indices      1         2         3         4         5         6    
-------------------------------------------------------------------------------
       1     29.0895   12.9291    8.5065   -0.1488   -0.4241   -6.4050
       2     12.9291   34.5753    6.8078   -0.5649   -0.0114   -6.2775
       3      8.5065    6.8078   12.5094   -0.4923   -0.0831   -1.4598
       4     -0.1488   -0.5649   -0.4923    7.9435   -1.7936   -0.0683
       5     -0.4241   -0.0114   -0.0831   -1.7936   15.8306   -0.6925
       6     -6.4050   -6.2775   -1.4598   -0.0683   -0.6925   19.5320
-------------------------------------------------------------------------------


  Elastic Compliance Matrix: (Units=1/GPa)

-------------------------------------------------------------------------------
  Indices      1         2         3         4         5         6    
-------------------------------------------------------------------------------
       1    0.049483 -0.011425 -0.026221 -0.001075  0.001524  0.010645
       2   -0.011425  0.036768 -0.011324  0.001802  0.000182  0.007237
       3   -0.026221 -0.011324  0.103615  0.005136  0.000220 -0.004468
       4   -0.001075  0.001802  0.005136  0.129662  0.014759  0.001587
       5    0.001524  0.000182  0.000220  0.014759  0.065011  0.002931
       6    0.010645  0.007237 -0.004468  0.001587  0.002931  0.056790
-------------------------------------------------------------------------------

  Mechanical properties :

-------------------------------------------------------------------------------
  Convention :                    Reuss         Voigt         Hill
-------------------------------------------------------------------------------
  Bulk  Modulus (GPa)     =      10.87831      14.74009      12.80920
  Shear Modulus (GPa)     =       8.77330      11.85661      10.31495
-------------------------------------------------------------------------------
  Velocity S-wave (km/s)  =       1.75726       2.04284       1.90540
  Velocity P-wave (km/s)  =       2.81889       3.27908       3.05765
-------------------------------------------------------------------------------
  Compressibility (1/GPa) =    0.09192608
-------------------------------------------------------------------------------
  Stress axis :                     x             y             z
-------------------------------------------------------------------------------
  Youngs Moduli (GPa)     =      20.20895      27.19775       9.65111
-------------------------------------------------------------------------------
  Poissons Ratio (x)      =                     0.31074       0.25306
  Poissons Ratio (y)      =       0.23089                     0.10929
  Poissons Ratio (z)      =       0.52990       0.30798
-------------------------------------------------------------------------------


  Piezoelectric Strain Matrix: (Units=C/m**2)

-------------------------------------------------------------------------------
  Indices      1         2         3         4         5         6    
-------------------------------------------------------------------------------
       x    -0.32289  -0.18200  -0.15364  -0.22148  -0.40214  -0.14368
       y    -0.30384  -0.24150  -0.31205  -1.01982   0.44363   0.01053
       z    -0.30982   0.26263   1.25274  -0.24835  -0.08183   0.31477
-------------------------------------------------------------------------------


  Piezoelectric Stress Matrix: (Units=10**-11 C/N)

-------------------------------------------------------------------------------
  Indices      1         2         3         4         5         6    
-------------------------------------------------------------------------------
       x    -1.17737  -0.27750  -0.59763  -3.56504  -3.03923  -1.37578
       y    -0.22093  -0.35555  -2.68182 -12.73787   1.32443  -0.33080
       z    -4.76864   0.08260  13.22522  -2.56690  -0.82115   1.02468
-------------------------------------------------------------------------------


  Static dielectric constant tensor : 

-------------------------------------------------------------------------------
              x         y         z
-------------------------------------------------------------------------------
       x     5.36847   0.04293   0.01089
       y     0.04293   6.52402  -0.03454
       z     0.01089  -0.03454   4.28229
--------------------------------------------------------------------------------

  High frequency dielectric constant tensor : 

-------------------------------------------------------------------------------
              x         y         z
-------------------------------------------------------------------------------
       x     1.53811  -0.00335  -0.00011
       y    -0.00335   1.54473  -0.00022
       z    -0.00011  -0.00022   1.49963
-------------------------------------------------------------------------------

  Static refractive indices : 

-------------------------------------------------------------------------------
    1 =    2.06921      2 =    2.31668      3 =    2.55463
-------------------------------------------------------------------------------

  High frequency refractive indices : 

-------------------------------------------------------------------------------
    1 =    1.22459      2 =    1.23964      3 =    1.24343
-------------------------------------------------------------------------------


  Time to end of optimisation =       8.9945 seconds


  Peak dynamic memory used =       5.01 MB 


  Timing analysis for GULP :

--------------------------------------------------------------------------------
  Task / Subroutine                                          Time (Seconds)
--------------------------------------------------------------------------------
  Calculation of reciprocal space energy and derivatives          0.6044
  Calculation of real space energy and derivatives                6.2801
  Calculation of three-body energy and derivatives                0.0481
  Calculation and manipulation of Hessian matrix                  2.2566
  Calculation of matrix inversion                                 0.0389
  Global summation overhead                                       0.0001
--------------------------------------------------------------------------------
  Total CPU time                                                  8.9945
--------------------------------------------------------------------------------


  Dump file written as c00020.vasp.grs
  CIF file written as c00020.vasp.cif


  Job Finished at 18:37.17 30th October    2025                               

