********************************************************************************
*                       GENERAL UTILITY LATTICE PROGRAM                        *
*                                 Julian Gale                                  *
*                       Curtin Institute for Computation                       *
*                    School of Molecular and Life Sciences                     *
*                    Curtin University, Western Australia                      *
********************************************************************************
* Version = 6.1.2 * Last modified =   3rd November 2022                        *
********************************************************************************
*  optimise     - perform optimisation run                                     *
*  conp         - constant pressure calculation                                *
*  property     - calculate properties for final geometry                      *
********************************************************************************

  Job Started  at 11:00.52 11th October    2025                               

  Number of CPUs =     1


  Total number of configurations input =      1

********************************************************************************
*  Input for Configuration =   1 : c00007.vasp                                 *
********************************************************************************

  Formula = Ge10Si2O24                                                  

  Number of irreducible atoms/shells =      60


  Total number atoms/shells =      60

  Dimensionality = 3               :  Bulk   



  Cartesian lattice vectors (Angstroms) :

        9.086940    0.000000    0.000000
        0.000000    7.554810    0.000000
       -3.295144    0.000000    9.944380

  Cell parameters (Angstroms/Degrees):

  a =       9.0869    alpha =  90.0000
  b =       7.5548    beta  = 108.3330
  c =      10.4761    gamma =  90.0000

  Initial cell volume =         682.682735 Angs**3

  Temperature of configuration =   0.00     K 

  Pressure of configuration =         0.000 GPa 

  Fractional coordinates of asymmetric unit :

--------------------------------------------------------------------------------
   No.  Atomic       x           y          z         Charge      Occupancy
        Label      (Frac)      (Frac)     (Frac)        (e)         (Frac)  
--------------------------------------------------------------------------------
      1 Ge    c    0.313820    0.296860    0.309830     4.00000    1.000000    
      2 Ge    c    0.686180 *  0.296860 *  0.690170 *   4.00000    1.000000    
      3 Ge    c    0.686180 *  0.703140 *  0.690170 *   4.00000    1.000000    
      4 Ge    c    0.313820 *  0.703140 *  0.309830 *   4.00000    1.000000    
      5 Ge    c    0.331050 *  0.296920 *  0.607380 *   4.00000    1.000000    
      6 Ge    c    0.668950 *  0.296920 *  0.392620 *   4.00000    1.000000    
      7 Ge    c    0.668950 *  0.703080 *  0.392620 *   4.00000    1.000000    
      8 Ge    c    0.879680 *  0.000000 *  0.350160 *   4.00000    1.000000    
      9 Ge    c    0.093070 *  0.000000 *  0.158230 *   4.00000    1.000000    
     10 Ge    c    0.906930 *  0.000000 *  0.841770 *   4.00000    1.000000    
     11 Si    c    0.331050 *  0.703080 *  0.607380 *   4.00000    1.000000    
     12 Si    c    0.120320 *  0.000000 *  0.649840 *   4.00000    1.000000    
     13 O1    c    0.268740 *  0.279030 *  0.446100 *   1.73396    1.000000    
     14 O1    c    0.731260 *  0.279030 *  0.553900 *   1.73396    1.000000    
     15 O1    c    0.731260 *  0.720970 *  0.553900 *   1.73396    1.000000    
     16 O3    c    0.268740 *  0.720970 *  0.446100 *   1.33043    1.000000    
     17 O1    c    0.295480 *  0.500000 *  0.260860 *   1.73396    1.000000    
     18 O1    c    0.704520 *  0.500000 *  0.739140 *   1.73396    1.000000    
     19 O1    c    0.490600 *  0.234690 *  0.337530 *   1.73396    1.000000    
     20 O1    c    0.509400 *  0.234690 *  0.662470 *   1.73396    1.000000    
     21 O3    c    0.509400 *  0.765310 *  0.662470 *   1.33043    1.000000    
     22 O1    c    0.490600 *  0.765310 *  0.337530 *   1.73396    1.000000    
     23 O1    c    0.200440 *  0.174000 *  0.194980 *   1.73396    1.000000    
     24 O1    c    0.799560 *  0.174000 *  0.805020 *   1.73396    1.000000    
     25 O1    c    0.799560 *  0.826000 *  0.805020 *   1.73396    1.000000    
     26 O1    c    0.200440 *  0.826000 *  0.194980 *   1.73396    1.000000    
     27 O3    c    0.317860 *  0.500000 *  0.649090 *   1.33043    1.000000    
     28 O1    c    0.682140 *  0.500000 *  0.350910 *   1.73396    1.000000    
     29 O3    c    0.227920 *  0.173870 *  0.671620 *   1.33043    1.000000    
     30 O1    c    0.772080 *  0.173870 *  0.328380 *   1.73396    1.000000    
     31 O1    c    0.772080 *  0.826130 *  0.328380 *   1.73396    1.000000    
     32 O2    c    0.227920 *  0.826130 *  0.671620 *   0.87073    1.000000    
     33 O3    c    0.000000 *  0.000000 *  0.500000 *   1.33043    1.000000    
     34 O1    c    0.971960 *  0.000000 *  0.241930 *   1.73396    1.000000    
     35 O3    c    0.028040 *  0.000000 *  0.758070 *   1.33043    1.000000    
     36 O1    c    0.000000 *  0.000000 *  0.000000 *   1.73396    1.000000    
     37 O1    s    0.268740 *  0.279030 *  0.446100 *  -3.73396    1.000000    
     38 O1    s    0.731260 *  0.279030 *  0.553900 *  -3.73396    1.000000    
     39 O1    s    0.731260 *  0.720970 *  0.553900 *  -3.73396    1.000000    
     40 O3    s    0.268740 *  0.720970 *  0.446100 *  -3.33043    1.000000    
     41 O1    s    0.295480 *  0.500000 *  0.260860 *  -3.73396    1.000000    
     42 O1    s    0.704520 *  0.500000 *  0.739140 *  -3.73396    1.000000    
     43 O1    s    0.490600 *  0.234690 *  0.337530 *  -3.73396    1.000000    
     44 O1    s    0.509400 *  0.234690 *  0.662470 *  -3.73396    1.000000    
     45 O3    s    0.509400 *  0.765310 *  0.662470 *  -3.33043    1.000000    
     46 O1    s    0.490600 *  0.765310 *  0.337530 *  -3.73396    1.000000    
     47 O1    s    0.200440 *  0.174000 *  0.194980 *  -3.73396    1.000000    
     48 O1    s    0.799560 *  0.174000 *  0.805020 *  -3.73396    1.000000    
     49 O1    s    0.799560 *  0.826000 *  0.805020 *  -3.73396    1.000000    
     50 O1    s    0.200440 *  0.826000 *  0.194980 *  -3.73396    1.000000    
     51 O3    s    0.317860 *  0.500000 *  0.649090 *  -3.33043    1.000000    
     52 O1    s    0.682140 *  0.500000 *  0.350910 *  -3.73396    1.000000    
     53 O3    s    0.227920 *  0.173870 *  0.671620 *  -3.33043    1.000000    
     54 O1    s    0.772080 *  0.173870 *  0.328380 *  -3.73396    1.000000    
     55 O1    s    0.772080 *  0.826130 *  0.328380 *  -3.73396    1.000000    
     56 O2    s    0.227920 *  0.826130 *  0.671620 *  -2.87073    1.000000    
     57 O3    s    0.000000 *  0.000000 *  0.500000 *  -3.33043    1.000000    
     58 O1    s    0.971960 *  0.000000 *  0.241930 *  -3.73396    1.000000    
     59 O3    s    0.028040 *  0.000000 *  0.758070 *  -3.33043    1.000000    
     60 O1    s    0.000000 *  0.000000 *  0.000000 *  -3.73396    1.000000    
--------------------------------------------------------------------------------



********************************************************************************
*  General input information                                                   *
********************************************************************************

  Species output for all configurations : 

--------------------------------------------------------------------------------
  Species    Type    Atomic    Atomic    Charge       Radii (Angs)     Library
                     Number     Mass       (e)     Cova   Ionic  VDW   Symbol
--------------------------------------------------------------------------------
    Ge       Core       32      72.61   4.000000   1.170  0.000  1.750 Ge       
    Si       Core       14      28.09   4.000000   1.200  0.000  2.100 Si       
    O1       Core        8      16.00   1.733957   0.730  0.000  1.360 O1       
    O2       Core        8      16.00   0.870733   0.730  0.000  1.360 O2       
    O3       Core        8      16.00   1.330431   0.730  0.000  1.360 O3       
    O1       Shell       8       0.00  -3.733957   0.730  0.000  0.000 O1       
    O2       Shell       8       0.00  -2.870733   0.730  0.000  0.000 O2       
    O3       Shell       8       0.00  -3.330431   0.730  0.000  0.000 O3       
--------------------------------------------------------------------------------


  Lattice summation method               =    Ewald          (3-D)
                                         =    Parry          (2-D)
                                         =    Saunders et al (1-D)
  Accuracy factor for lattice sums       =   12.000


  Analytic derivatives to be used

  Time limit = Infinity

  Maximum range for interatomic potentials =    100000.000000 Angstroms

  General interatomic potentials :

--------------------------------------------------------------------------------
Atom  Types   Potential      Parameter       Value         Units   Cutoffs(Ang)
  1     2                                                            Min /  Max 
--------------------------------------------------------------------------------
Si   c O1   s Buckingham    Buckingham A     1315.2478    eV        0.000 16.000
                            Buckingham rho  0.31775900    Ang       
                            Buckingham C     10.141118    eV*Ang^6  
--------------------------------------------------------------------------------
Si   c O2   s Buckingham    Buckingham A     1315.2478    eV        0.000 16.000
                            Buckingham rho  0.31775900    Ang       
                            Buckingham C     10.141118    eV*Ang^6  
--------------------------------------------------------------------------------
Si   c O3   s Buckingham    Buckingham A     1315.2478    eV        0.000 16.000
                            Buckingham rho  0.31775900    Ang       
                            Buckingham C     10.141118    eV*Ang^6  
--------------------------------------------------------------------------------
Ge   c O1   s Buckingham    Buckingham A     1497.3996    eV        0.000 16.000
                            Buckingham rho  0.32564600    Ang       
                            Buckingham C     16.808599    eV*Ang^6  
--------------------------------------------------------------------------------
Ge   c O2   s Buckingham    Buckingham A     1497.3996    eV        0.000 16.000
                            Buckingham rho  0.32564600    Ang       
                            Buckingham C     16.808599    eV*Ang^6  
--------------------------------------------------------------------------------
Ge   c O3   s Buckingham    Buckingham A     1497.3996    eV        0.000 16.000
                            Buckingham rho  0.32564600    Ang       
                            Buckingham C     16.808599    eV*Ang^6  
--------------------------------------------------------------------------------
O1   s O1   s Buckingham    Buckingham A     22764.000    eV        0.000 16.000
                            Buckingham rho  0.14900000    Ang       
                            Buckingham C     10.937044    eV*Ang^6  
--------------------------------------------------------------------------------
O1   s O2   s Buckingham    Buckingham A     22764.000    eV        0.000 16.000
                            Buckingham rho  0.14900000    Ang       
                            Buckingham C     10.937044    eV*Ang^6  
--------------------------------------------------------------------------------
O1   s O3   s Buckingham    Buckingham A     22764.000    eV        0.000 16.000
                            Buckingham rho  0.14900000    Ang       
                            Buckingham C     10.937044    eV*Ang^6  
--------------------------------------------------------------------------------
O2   s O2   s Buckingham    Buckingham A     22764.000    eV        0.000 16.000
                            Buckingham rho  0.14900000    Ang       
                            Buckingham C     10.937044    eV*Ang^6  
--------------------------------------------------------------------------------
O2   s O3   s Buckingham    Buckingham A     22764.000    eV        0.000 16.000
                            Buckingham rho  0.14900000    Ang       
                            Buckingham C     10.937044    eV*Ang^6  
--------------------------------------------------------------------------------
O3   s O3   s Buckingham    Buckingham A     22764.000    eV        0.000 16.000
                            Buckingham rho  0.14900000    Ang       
                            Buckingham C     10.937044    eV*Ang^6  
--------------------------------------------------------------------------------
O1   c O1   s Spring (c-s)  Spring k 2       180.31577    eV*Ang^-2 0.000  0.800
                            Spring k 4       0.0000000    eV*Ang^-4 
--------------------------------------------------------------------------------
O2   c O2   s Spring (c-s)  Spring k 2       75.969800    eV*Ang^-2 0.000  0.800
                            Spring k 4       0.0000000    eV*Ang^-4 
--------------------------------------------------------------------------------
O3   c O3   s Spring (c-s)  Spring k 2       128.14270    eV*Ang^-2 0.000  0.800
                            Spring k 4       0.0000000    eV*Ang^-4 
--------------------------------------------------------------------------------

  General Three-body potentials :

--------------------------------------------------------------------------------
  Atoms       Potential      Parameter       Value         Units   Cutoffs(Ang)
  1 / 2 / 3                                                          Min /  Max 
--------------------------------------------------------------------------------
Si    core    Harmonic      Three-body cnst  1.2614000    eV*rad^-2 0.000  1.900
O1    shel                  Three-body angl  109.47000    degrees   0.000  1.900
O1    shel                  Three-body k4    0.0000000    eV*rad^-4 0.000  3.500
                            Three-body k3    0.0000000    eV*rad^-3 
--------------------------------------------------------------------------------
Si    core    Harmonic      Three-body cnst  1.2614000    eV*rad^-2 0.000  1.900
O1    shel                  Three-body angl  109.47000    degrees   0.000  1.900
õ(1   shel                  Three-body k4    0.0000000    eV*rad^-4 0.000  3.500
                            Three-body k3    0.0000000    eV*rad^-3 
--------------------------------------------------------------------------------
Si    core    Harmonic      Three-body cnst  1.2614000    eV*rad^-2 0.000  1.900
õ(1   shel                  Three-body angl  109.47000    degrees   0.000  1.900
õ(1   shel                  Three-body k4    0.0000000    eV*rad^-4 0.000  3.500
                            Three-body k3    0.0000000    eV*rad^-3 
--------------------------------------------------------------------------------
Si    core    Harmonic      Three-body cnst  1.2614000    eV*rad^-2 0.000  1.900
O1    shel                  Three-body angl  109.47000    degrees   0.000  1.900
O2    shel                  Three-body k4    0.0000000    eV*rad^-4 0.000  3.500
                            Three-body k3    0.0000000    eV*rad^-3 
--------------------------------------------------------------------------------
Si    core    Harmonic      Three-body cnst  1.2614000    eV*rad^-2 0.000  1.900
O1    shel                  Three-body angl  109.47000    degrees   0.000  1.900
õ(2   shel                  Three-body k4    0.0000000    eV*rad^-4 0.000  3.500
                            Three-body k3    0.0000000    eV*rad^-3 
--------------------------------------------------------------------------------
Si    core    Harmonic      Three-body cnst  1.2614000    eV*rad^-2 0.000  1.900
O2    shel                  Three-body angl  109.47000    degrees   0.000  1.900
õ(1   shel                  Three-body k4    0.0000000    eV*rad^-4 0.000  3.500
                            Three-body k3    0.0000000    eV*rad^-3 
--------------------------------------------------------------------------------
Si    core    Harmonic      Three-body cnst  1.2614000    eV*rad^-2 0.000  1.900
õ(1   shel                  Three-body angl  109.47000    degrees   0.000  1.900
õ(2   shel                  Three-body k4    0.0000000    eV*rad^-4 0.000  3.500
                            Three-body k3    0.0000000    eV*rad^-3 
--------------------------------------------------------------------------------
Si    core    Harmonic      Three-body cnst  1.2614000    eV*rad^-2 0.000  1.900
O2    shel                  Three-body angl  109.47000    degrees   0.000  1.900
O2    shel                  Three-body k4    0.0000000    eV*rad^-4 0.000  3.500
                            Three-body k3    0.0000000    eV*rad^-3 
--------------------------------------------------------------------------------
Si    core    Harmonic      Three-body cnst  1.2614000    eV*rad^-2 0.000  1.900
O2    shel                  Three-body angl  109.47000    degrees   0.000  1.900
õ(2   shel                  Three-body k4    0.0000000    eV*rad^-4 0.000  3.500
                            Three-body k3    0.0000000    eV*rad^-3 
--------------------------------------------------------------------------------
Si    core    Harmonic      Three-body cnst  1.2614000    eV*rad^-2 0.000  1.900
õ(2   shel                  Three-body angl  109.47000    degrees   0.000  1.900
õ(2   shel                  Three-body k4    0.0000000    eV*rad^-4 0.000  3.500
                            Three-body k3    0.0000000    eV*rad^-3 
--------------------------------------------------------------------------------

********************************************************************************
*  Output for configuration   1 : c00007.vasp                                  *
********************************************************************************


  Components of energy : 

--------------------------------------------------------------------------------
  Interatomic potentials     =         448.39904000 eV    
  Three-body potentials      =           0.00000000 eV    
  Monopole - monopole (real) =       -1236.99964305 eV    
  Monopole - monopole (recip)=        -659.26603192 eV    
  Monopole - monopole (total)=       -1896.26567496 eV    
--------------------------------------------------------------------------------
  Total lattice energy       =       -1447.86663496 eV    
--------------------------------------------------------------------------------
  Total lattice energy       =         -139696.9976 kJ/(mole unit cells)
--------------------------------------------------------------------------------


  Number of variables =      183

  Maximum number of calculations  =          1000
  Maximum Hessian update interval =            10
  Maximum step size               =   0.100000000
  Maximum parameter tolerance     =   0.000010000
  Maximum function  tolerance     =   0.000010000
  Maximum gradient  tolerance     =   0.001000000
  Maximum gradient  component     =   0.010000000

  Symmetry not applied to optimisation

  Cell parameters to be optimised using strains

  Newton-Raphson optimiser to be used

  BFGS hessian update to be used

  Lower half triangular hessian to be used

  Minimiser to switch to RFO
  When gradient norm is less than     0.050000

  Dumpfile to be written after every cycle

  Start of bulk optimisation :

  Cycle:      0 Energy:     -1447.866635  Gnorm:      6.658959  CPU:    0.041
  ** Hessian calculated **
  Cycle:      1 Energy:     -1468.669868  Gnorm:      1.853135  CPU:    0.083
  ** Hessian calculated **
  Cycle:      2 Energy:     -1471.820738  Gnorm:      1.003287  CPU:    0.156
  ** Hessian calculated **
  Cycle:      3 Energy:     -1472.550564  Gnorm:      0.494198  CPU:    0.222
  Cycle:      4 Energy:     -1472.740213  Gnorm:      0.216855  CPU:    0.262
  Cycle:      5 Energy:     -1472.816293  Gnorm:      0.177035  CPU:    0.309
  Cycle:      6 Energy:     -1472.906110  Gnorm:      0.157212  CPU:    0.355
  Cycle:      7 Energy:     -1473.003379  Gnorm:      0.155236  CPU:    0.402
  Cycle:      8 Energy:     -1473.053373  Gnorm:      0.126499  CPU:    0.442
  Cycle:      9 Energy:     -1473.081273  Gnorm:      0.097422  CPU:    0.481
  Cycle:     10 Energy:     -1473.099217  Gnorm:      0.088959  CPU:    0.520
  Cycle:     11 Energy:     -1473.115001  Gnorm:      0.074832  CPU:    0.562
  Cycle:     12 Energy:     -1473.131760  Gnorm:      0.074877  CPU:    0.609
  ** Hessian calculated **
  Cycle:     13 Energy:     -1473.137743  Gnorm:      0.074419  CPU:    0.682
  Cycle:     14 Energy:     -1473.148148  Gnorm:      0.073594  CPU:    0.735
  Cycle:     15 Energy:     -1473.166400  Gnorm:      0.071957  CPU:    0.789
  Cycle:     16 Energy:     -1473.193688  Gnorm:      0.068952  CPU:    0.835
  Cycle:     17 Energy:     -1473.235420  Gnorm:      0.063493  CPU:    0.889
  Cycle:     18 Energy:     -1473.252221  Gnorm:      0.062315  CPU:    0.935
  ** Hessian calculated **
  Cycle:     19 Energy:     -1473.290210  Gnorm:      0.062785  CPU:    1.007
  Cycle:     20 Energy:     -1473.381922  Gnorm:      0.059333  CPU:    1.054
  Cycle:     21 Energy:     -1473.459420  Gnorm:      0.051825  CPU:    1.093
  Cycle:     22 Energy:     -1473.483341  Gnorm:      0.065020  CPU:    1.132
  Cycle:     23 Energy:     -1473.499645  Gnorm:      0.066696  CPU:    1.172
  Cycle:     24 Energy:     -1473.512847  Gnorm:      0.047343  CPU:    1.219
  ** Hessian has wrong structure
  ** Imaginary eigenvectors =   1
  Cycle:     25 Energy:     -1473.520622  Gnorm:      0.098730  CPU:    1.323
  ** Hessian has wrong structure
  ** Imaginary eigenvectors =   2
  ** Hessian has wrong structure
  ** Imaginary eigenvectors =   1
  Cycle:     26 Energy:     -1473.577886  Gnorm:      0.108067  CPU:    1.493
  ** Hessian has required structure
  ** Hessian has required structure
  Cycle:     27 Energy:     -1473.673181  Gnorm:      0.094354  CPU:    1.578
  ** Hessian has required structure
  Cycle:     28 Energy:     -1473.764031  Gnorm:      0.079848  CPU:    1.632
  ** Hessian has required structure
  Cycle:     29 Energy:     -1473.813674  Gnorm:      0.040749  CPU:    1.678
  ** Hessian has required structure
  Cycle:     30 Energy:     -1473.832690  Gnorm:      0.043748  CPU:    1.732
  ** Hessian has required structure
  Cycle:     31 Energy:     -1473.847255  Gnorm:      0.056215  CPU:    1.771
  ** Hessian has required structure
  Cycle:     32 Energy:     -1473.859319  Gnorm:      0.039153  CPU:    1.817
  ** Hessian has required structure
  Cycle:     33 Energy:     -1473.863278  Gnorm:      0.031717  CPU:    1.864
  ** Hessian has required structure
  Cycle:     34 Energy:     -1473.865883  Gnorm:      0.019336  CPU:    1.916
  ** Hessian has required structure
  Cycle:     35 Energy:     -1473.866984  Gnorm:      0.016327  CPU:    1.961
  ** Hessian has required structure
  Cycle:     36 Energy:     -1473.867675  Gnorm:      0.010633  CPU:    2.006
  ** Hessian has required structure
  Cycle:     37 Energy:     -1473.868307  Gnorm:      0.005437  CPU:    2.083
  ** Hessian has required structure
  Cycle:     38 Energy:     -1473.868476  Gnorm:      0.002827  CPU:    2.136
  ** Hessian has required structure
  Cycle:     39 Energy:     -1473.868520  Gnorm:      0.001442  CPU:    2.189
  ** Hessian has required structure
  Cycle:     40 Energy:     -1473.868531  Gnorm:      0.000775  CPU:    2.242
  ** Hessian has required structure
  Cycle:     41 Energy:     -1473.868533  Gnorm:      0.000581  CPU:    2.281
  ** Hessian has required structure
  Cycle:     42 Energy:     -1473.868535  Gnorm:      0.000484  CPU:    2.320
  ** Hessian has required structure
  Cycle:     43 Energy:     -1473.868535  Gnorm:      0.000387  CPU:    2.358
  ** Hessian has required structure
  Cycle:     44 Energy:     -1473.868536  Gnorm:      0.000339  CPU:    2.395
  ** Hessian has required structure
  Cycle:     45 Energy:     -1473.868538  Gnorm:      0.000296  CPU:    2.431
  ** Hessian has required structure
  Cycle:     46 Energy:     -1473.868538  Gnorm:      0.000246  CPU:    2.467
  ** Hessian has required structure
  Cycle:     47 Energy:     -1473.868539  Gnorm:      0.000172  CPU:    2.526
  ** Hessian has required structure
  Cycle:     48 Energy:     -1473.868539  Gnorm:      0.000120  CPU:    2.562
  ** Hessian has required structure


  **** Optimisation achieved ****


  Final energy =   -1473.86853872 eV      
  Final Gnorm  =       0.00008434

  Components of energy : 

--------------------------------------------------------------------------------
  Interatomic potentials     =         390.01426260 eV    
  Three-body potentials      =           0.00000000 eV    
  Monopole - monopole (real) =        -573.72845749 eV    
  Monopole - monopole (recip)=       -1290.15434383 eV    
  Monopole - monopole (total)=       -1863.88280132 eV    
--------------------------------------------------------------------------------
  Total lattice energy       =       -1473.86853872 eV    
--------------------------------------------------------------------------------
  Total lattice energy       =         -142205.7838 kJ/(mole unit cells)
--------------------------------------------------------------------------------

  Final fractional coordinates of atoms :

--------------------------------------------------------------------------------
   No.  Atomic        x           y          z          Radius
        Label       (Frac)      (Frac)     (Frac)       (Angs) 
--------------------------------------------------------------------------------
     1  Ge    c     0.313820    0.296860    0.309830    0.000000
     2  Ge    c     0.668472    0.385532    0.715356    0.000000
     3  Ge    c     0.617185    0.782593    0.698536    0.000000
     4  Ge    c     0.265973    0.704466    0.294385    0.000000
     5  Ge    c     0.302165    0.312645    0.624764    0.000000
     6  Ge    c     0.671368    0.385449    0.395138    0.000000
     7  Ge    c     0.623684    0.788032    0.384448    0.000000
     8  Ge    c     0.878217    0.073370    0.382754    0.000000
     9  Ge    c     0.074560    0.014188    0.165987    0.000000
    10  Ge    c     0.857250    0.068086    0.866083    0.000000
    11  Si    c     0.257271    0.710994    0.601358    0.000000
    12  Si    c     0.077172    0.018725    0.679189    0.000000
    13  O1    c     0.246119    0.283830    0.453125    0.000000
    14  O1    c     0.720310    0.414323    0.567674    0.000000
    15  O1    c     0.686035    0.801352    0.558075    0.000000
    16  O3    c     0.200825    0.688349    0.440328    0.000000
    17  O1    c     0.292265    0.502340    0.246024    0.000000
    18  O1    c     0.653769    0.588301    0.775845    0.000000
    19  O1    c     0.505669    0.261958    0.356902    0.000000
    20  O1    c     0.493689    0.281126    0.683906    0.000000
    21  O3    c     0.421685    0.804158    0.641424    0.000000
    22  O1    c     0.432116    0.825910    0.333494    0.000000
    23  O1    c     0.220265    0.163083    0.181927    0.000000
    24  O1    c     0.805779    0.274321    0.826579    0.000000
    25  O1    c     0.698546    0.940631    0.810690    0.000000
    26  O1    c     0.140392    0.809859    0.168204    0.000000
    27  O3    c     0.266000    0.522874    0.665624    0.000000
    28  O1    c     0.645626    0.584078    0.326433    0.000000
    29  O3    c     0.206125    0.167204    0.700969    0.000000
    30  O1    c     0.807662    0.275318    0.344302    0.000000
    31  O1    c     0.731887    0.928457    0.320379    0.000000
    32  O2    c     0.140340    0.832845    0.651916    0.000000
    33  O3    c     0.933219    0.066229    0.558635    0.000000
    34  O1    c     0.028421    0.037307    0.319524    0.000000
    35  O3    c     0.015342    0.005080    0.812673    0.000000
    36  O1    c     0.918031    0.052112    0.039318    0.000000
    37  O1    s     0.255161    0.286926    0.455793    0.000000
    38  O1    s     0.712629    0.409984    0.566190    0.000000
    39  O1    s     0.676311    0.798991    0.556001    0.000000
    40  O3    s     0.211112    0.691730    0.444844    0.000000
    41  O1    s     0.291723    0.503821    0.254484    0.000000
    42  O1    s     0.652146    0.587840    0.765687    0.000000
    43  O1    s     0.503098    0.273273    0.356139    0.000000
    44  O1    s     0.491950    0.291122    0.681720    0.000000
    45  O3    s     0.421067    0.793440    0.642010    0.000000
    46  O1    s     0.434321    0.814412    0.334461    0.000000
    47  O1    s     0.216652    0.162291    0.190421    0.000000
    48  O1    s     0.799260    0.266927    0.821150    0.000000
    49  O1    s     0.704494    0.938201    0.806232    0.000000
    50  O1    s     0.144792    0.817241    0.177365    0.000000
    51  O3    s     0.267795    0.525235    0.656548    0.000000
    52  O1    s     0.646042    0.583221    0.335832    0.000000
    53  O3    s     0.201389    0.164603    0.692741    0.000000
    54  O1    s     0.802336    0.269189    0.350918    0.000000
    55  O1    s     0.734222    0.928152    0.329949    0.000000
    56  O2    s     0.146056    0.839170    0.649445    0.000000
    57  O3    s     0.942806    0.062246    0.557057    0.000000
    58  O1    s     0.019246    0.038637    0.313906    0.000000
    59  O3    s     0.009220    0.011188    0.804035    0.000000
    60  O1    s     0.926096    0.050259    0.036681    0.000000
--------------------------------------------------------------------------------

  Final Cartesian lattice vectors (Angstroms) :

        9.068570   -0.080088    0.311227
       -0.070255    7.818986   -0.038628
       -2.938684   -0.022107    9.796229


  Final cell parameters and derivatives :

--------------------------------------------------------------------------------
       a            9.074263 Angstrom     dE/de1(xx)    -0.000372 eV/strain
       b            7.819397 Angstrom     dE/de2(yy)    -0.000836 eV/strain
       c           10.227535 Angstrom     dE/de3(zz)    -0.000115 eV/strain
       alpha       90.247036 Degrees      dE/de4(yz)     0.000036 eV/strain
       beta       104.730921 Degrees      dE/de5(xz)     0.000339 eV/strain
       gamma       91.029883 Degrees      dE/de6(xy)    -0.000156 eV/strain
--------------------------------------------------------------------------------

  Primitive cell volume =           701.701234 Angs**3

  Density of cell =      2.759984 g/cm**3

  Non-primitive cell volume =           701.701234 Angs**3


  Final internal derivatives :

--------------------------------------------------------------------------------
   No.  Atomic          a             b             c           Radius
        Label          (eV)          (eV)          (eV)        (eV/Angs)
--------------------------------------------------------------------------------
      1 Ge    c       0.000000      0.000000      0.000000      0.000000
      2 Ge    c      -0.000518      0.000408      0.000185      0.000000
      3 Ge    c       0.000230      0.000047      0.000266      0.000000
      4 Ge    c       0.000311     -0.000143     -0.000426      0.000000
      5 Ge    c      -0.000067      0.000173     -0.000225      0.000000
      6 Ge    c      -0.001128      0.000885      0.000416      0.000000
      7 Ge    c      -0.000265     -0.000349      0.000176      0.000000
      8 Ge    c       0.000054      0.000368      0.000896      0.000000
      9 Ge    c       0.000250     -0.000894      0.005448      0.000000
     10 Ge    c      -0.000721     -0.000038     -0.000355      0.000000
     11 Si    c       0.000000     -0.000303     -0.000414      0.000000
     12 Si    c       0.000188     -0.000558      0.000179      0.000000
     13 O1    c       0.000399     -0.000131     -0.000669      0.000000
     14 O1    c       0.000760      0.000059     -0.000202      0.000000
     15 O1    c      -0.000086      0.000094     -0.000283      0.000000
     16 O3    c      -0.000040     -0.000007      0.000947      0.000000
     17 O1    c       0.000096      0.000129      0.000338      0.000000
     18 O1    c       0.000127     -0.000063     -0.000267      0.000000
     19 O1    c      -0.000481      0.000020      0.000054      0.000000
     20 O1    c       0.000310     -0.000196      0.000053      0.000000
     21 O3    c       0.000290      0.000125      0.000022      0.000000
     22 O1    c      -0.000086     -0.000300      0.000008      0.000000
     23 O1    c      -0.000526     -0.000251      0.000488      0.000000
     24 O1    c       0.000786     -0.000687      0.000409      0.000000
     25 O1    c       0.000148      0.000069     -0.000592      0.000000
     26 O1    c      -0.000415      0.000836      0.000183      0.000000
     27 O3    c       0.000146     -0.000013     -0.000183      0.000000
     28 O1    c      -0.000199     -0.000139      0.000272      0.000000
     29 O3    c       0.000158      0.000041     -0.000095      0.000000
     30 O1    c       0.002143     -0.001597     -0.001934      0.000000
     31 O1    c       0.000005      0.000134      0.000230      0.000000
     32 O2    c      -0.000771      0.001040      0.000598      0.000000
     33 O3    c      -0.000498     -0.000178     -0.001180      0.000000
     34 O1    c       0.004972      0.000173     -0.007265      0.000000
     35 O3    c       0.001181     -0.000066     -0.000773      0.000000
     36 O1    c      -0.003645      0.000708     -0.006129      0.000000
     37 O1    s      -0.000039      0.000465      0.000627      0.000000
     38 O1    s       0.000118     -0.000083      0.000072      0.000000
     39 O1    s      -0.000148     -0.000267      0.000147      0.000000
     40 O3    s      -0.000025      0.000161     -0.000727      0.000000
     41 O1    s      -0.000370     -0.000115     -0.000039      0.000000
     42 O1    s      -0.000209      0.000301     -0.000096      0.000000
     43 O1    s      -0.000194      0.000029     -0.000041      0.000000
     44 O1    s      -0.000443      0.000195      0.000012      0.000000
     45 O3    s       0.000050     -0.000236     -0.000154      0.000000
     46 O1    s      -0.000004      0.000102      0.000115      0.000000
     47 O1    s       0.000147     -0.000071     -0.000280      0.000000
     48 O1    s      -0.000320      0.000278      0.000238      0.000000
     49 O1    s      -0.000010     -0.000140      0.000258      0.000000
     50 O1    s      -0.000178     -0.000018      0.000741      0.000000
     51 O3    s      -0.000064     -0.000041     -0.000192      0.000000
     52 O1    s       0.000031      0.000409      0.000091      0.000000
     53 O3    s      -0.000323     -0.000172     -0.000062      0.000000
     54 O1    s      -0.000774      0.000694      0.000893      0.000000
     55 O1    s       0.000476     -0.000094     -0.000320      0.000000
     56 O2    s      -0.000051     -0.000161     -0.000094      0.000000
     57 O3    s       0.000495      0.000184      0.000507      0.000000
     58 O1    s      -0.002849     -0.000491      0.004012      0.000000
     59 O3    s      -0.000691     -0.000051      0.000027      0.000000
     60 O1    s       0.002172     -0.000323      0.003638      0.000000
--------------------------------------------------------------------------------
  Maximum abs         0.004972      0.001597      0.007265      0.000000
--------------------------------------------------------------------------------


  Born effective charge tensors : 

-------------------------------------------------------------------------------
  Atom             x           y             z
-------------------------------------------------------------------------------
    1 Ge    x       3.9092      0.1782      0.3496
            y       0.2398      4.1687      0.1883
            z       0.0889      0.2406      3.7365
-------------------------------------------------------------------------------
    2 Ge    x       3.9491     -0.0209      0.2702
            y      -0.4036      4.2035     -0.2324
            z       0.2059     -0.2495      3.6514
-------------------------------------------------------------------------------
    3 Ge    x       3.8346      0.2618      0.3713
            y       0.2458      4.1859      0.0988
            z       0.0596      0.2286      3.6780
-------------------------------------------------------------------------------
    4 Ge    x       3.7204      0.0062      0.3256
            y      -0.3903      4.2061     -0.2250
            z       0.1479     -0.2024      3.6972
-------------------------------------------------------------------------------
    5 Ge    x       4.0139      0.2663     -0.0516
            y       0.2584      4.1876     -0.0341
            z       0.2018     -0.0911      3.4253
-------------------------------------------------------------------------------
    6 Ge    x       4.0988     -0.1519     -0.0942
            y      -0.4604      4.2061     -0.0648
            z       0.0869      0.1505      3.3581
-------------------------------------------------------------------------------
    7 Ge    x       4.1685      0.2960     -0.1070
            y       0.3230      4.1398      0.0529
            z       0.1764     -0.0400      3.3942
-------------------------------------------------------------------------------
    8 Ge    x       4.4139     -0.2126      0.3350
            y       0.0866      3.9270      0.0178
            z      -0.3899      0.0700      3.4947
-------------------------------------------------------------------------------
    9 Ge    x       3.8379     -0.1851     -0.1218
            y       0.0893      3.9286      0.0210
            z       0.7561     -0.2148      4.5287
-------------------------------------------------------------------------------
   10 Ge    x       3.9872     -0.2597      0.3204
            y       0.2137      3.8884     -0.0305
            z       0.1021     -0.0863      4.6176
-------------------------------------------------------------------------------
   11 Si    x       3.5574     -0.0003     -0.0171
            y      -0.2345      3.8768     -0.1153
            z       0.1432      0.1290      3.1206
-------------------------------------------------------------------------------
   12 Si    x       4.0359      0.0262     -0.2170
            y       0.1950      3.5111      0.1315
            z      -0.1803     -0.1251      3.4746
-------------------------------------------------------------------------------
   13 O1    x      -1.6261     -0.0950      0.4373
            y      -0.1132     -1.4587     -0.0940
            z       0.4030     -0.0950     -2.5732
-------------------------------------------------------------------------------
   14 O1    x      -1.5813      0.0166      0.4224
            y       0.0782     -1.4569      0.0241
            z       0.3996      0.0092     -2.5921
-------------------------------------------------------------------------------
   15 O1    x      -1.6946     -0.1293      0.4235
            y      -0.1344     -1.4163      0.0002
            z       0.3696     -0.0098     -2.5307
-------------------------------------------------------------------------------
   16 O3    x      -1.4600      0.0311      0.3281
            y       0.1052     -1.3640     -0.0434
            z       0.3329     -0.0448     -2.5001
-------------------------------------------------------------------------------
   17 O1    x      -1.3281      0.1759     -0.0385
            y       0.2626     -3.1990      0.0769
            z       0.0143      0.0182     -1.4097
-------------------------------------------------------------------------------
   18 O1    x      -1.3425      0.1899     -0.0758
            y       0.2665     -3.1004      0.1059
            z      -0.0220      0.0652     -1.4496
-------------------------------------------------------------------------------
   19 O1    x      -2.8720     -0.2685     -0.5189
            y      -0.1792     -1.6224     -0.0609
            z      -0.5005     -0.1288     -1.3501
-------------------------------------------------------------------------------
   20 O1    x      -2.9622     -0.2678     -0.5639
            y      -0.1842     -1.5781     -0.0170
            z      -0.5714     -0.0129     -1.3857
-------------------------------------------------------------------------------
   21 O3    x      -2.7956     -0.2976     -0.5547
            y      -0.2217     -1.4701     -0.0910
            z      -0.5026     -0.1401     -1.3008
-------------------------------------------------------------------------------
   22 O1    x      -2.8436     -0.2789     -0.5170
            y      -0.1697     -1.6042     -0.0342
            z      -0.5188     -0.0297     -1.3815
-------------------------------------------------------------------------------
   23 O1    x      -1.8810     -0.7059     -0.4005
            y      -0.7577     -2.2508     -0.6539
            z      -0.4597     -0.6167     -1.9398
-------------------------------------------------------------------------------
   24 O1    x      -1.7102      0.6920     -0.5059
            y       0.6306     -2.5753      0.7116
            z      -0.4673      0.7168     -1.8767
-------------------------------------------------------------------------------
   25 O1    x      -1.9439     -0.7031     -0.5900
            y      -0.7500     -2.2985     -0.7594
            z      -0.5124     -0.7516     -1.9410
-------------------------------------------------------------------------------
   26 O1    x      -1.6529      0.6879     -0.3959
            y       0.6561     -2.4769      0.5718
            z      -0.4648      0.6172     -1.9382
-------------------------------------------------------------------------------
   27 O3    x      -1.3193      0.0751      0.0636
            y       0.1847     -3.1278      0.2464
            z       0.0089      0.2008     -1.2308
-------------------------------------------------------------------------------
   28 O1    x      -1.4156      0.1763      0.0603
            y       0.2428     -3.1214      0.0936
            z       0.0074      0.0802     -1.3366
-------------------------------------------------------------------------------
   29 O3    x      -2.2159     -0.9941      0.1868
            y      -1.0011     -2.3425      0.1307
            z       0.1286      0.1392     -1.2612
-------------------------------------------------------------------------------
   30 O1    x      -2.2573      0.9481      0.0624
            y       0.8899     -2.5045      0.0365
            z       0.1274      0.0098     -1.2958
-------------------------------------------------------------------------------
   31 O1    x      -2.4077     -0.9895     -0.0096
            y      -1.0117     -2.2579     -0.0095
            z       0.0672      0.0289     -1.3838
-------------------------------------------------------------------------------
   32 O2    x      -1.7929      0.7136      0.2317
            y       0.6560     -2.0323     -0.2324
            z       0.1701     -0.1932     -1.1285
-------------------------------------------------------------------------------
   33 O3    x      -1.7809      0.1940     -0.6283
            y       0.1028     -1.3157      0.2068
            z      -0.3827      0.2138     -2.4250
-------------------------------------------------------------------------------
   34 O1    x      -2.5817      0.2615      0.8321
            y       0.1313     -1.3466     -0.1314
            z       0.8063     -0.1483     -2.1541
-------------------------------------------------------------------------------
   35 O3    x      -2.4631      0.2069      0.8563
            y       0.1004     -1.2415     -0.0634
            z       0.8987     -0.0530     -2.1537
-------------------------------------------------------------------------------
   36 O1    x      -1.5986      0.1568     -0.4688
            y       0.0530     -1.2676      0.1776
            z      -0.7302      0.3151     -3.6384
-------------------------------------------------------------------------------




  Elastic Constant Matrix: (Units=GPa)

-------------------------------------------------------------------------------
  Indices      1         2         3         4         5         6    
-------------------------------------------------------------------------------
       1     26.7348   12.1963    5.3937   -1.7778    0.9140   -5.5924
       2     12.1963   33.6821    7.9043   -0.0069    3.4395   -5.7922
       3      5.3937    7.9043   24.6917   -3.1989   11.1618   -0.9062
       4     -1.7778   -0.0069   -3.1989    8.7961   -1.6209    3.4444
       5      0.9140    3.4395   11.1618   -1.6209   11.6280   -2.1479
       6     -5.5924   -5.7922   -0.9062    3.4444   -2.1479   16.9639
-------------------------------------------------------------------------------


  Elastic Compliance Matrix: (Units=1/GPa)

-------------------------------------------------------------------------------
  Indices      1         2         3         4         5         6    
-------------------------------------------------------------------------------
       1    0.048407 -0.014300 -0.011448  0.003699  0.014052  0.011492
       2   -0.014300  0.039058 -0.010336 -0.010638 -0.000103  0.010217
       3   -0.011448 -0.010336  0.082394  0.020236 -0.075371 -0.016554
       4    0.003699 -0.010638  0.020236  0.132373 -0.003407 -0.028641
       5    0.014052 -0.000103 -0.075371 -0.003407  0.160793  0.021622
       6    0.011492  0.010217 -0.016554 -0.028641  0.021622  0.073894
-------------------------------------------------------------------------------

  Mechanical properties :

-------------------------------------------------------------------------------
  Convention :                    Reuss         Voigt         Hill
-------------------------------------------------------------------------------
  Bulk  Modulus (GPa)     =      10.23629      15.12191      12.67910
  Shear Modulus (GPa)     =       7.79238      11.45187       9.62213
-------------------------------------------------------------------------------
  Velocity S-wave (km/s)  =       1.68028       2.03697       1.86716
  Velocity P-wave (km/s)  =       2.73373       3.31833       3.04012
-------------------------------------------------------------------------------
  Compressibility (1/GPa) =    0.09769165
-------------------------------------------------------------------------------
  Stress axis :                     x             y             z
-------------------------------------------------------------------------------
  Youngs Moduli (GPa)     =      20.65818      25.60282      12.13678
-------------------------------------------------------------------------------
  Poissons Ratio (x)      =                     0.36611       0.13894
  Poissons Ratio (y)      =       0.29540                     0.12545
  Poissons Ratio (z)      =       0.23649       0.26464
-------------------------------------------------------------------------------


  Piezoelectric Strain Matrix: (Units=C/m**2)

-------------------------------------------------------------------------------
  Indices      1         2         3         4         5         6    
-------------------------------------------------------------------------------
       x     0.03416  -0.07503  -0.09991  -0.41854  -0.00238  -0.51942
       y    -0.25917   1.86631   1.77061  -1.65270   0.95347  -0.88390
       z    -0.11792   0.57668   0.95232  -0.09371  -0.73455   0.04602
-------------------------------------------------------------------------------


  Piezoelectric Stress Matrix: (Units=10**-11 C/N)

-------------------------------------------------------------------------------
  Indices      1         2         3         4         5         6    
-------------------------------------------------------------------------------
       x    -0.36804  -0.32406  -0.75392  -4.16152  -0.21694  -2.51666
       y    -6.23751   6.67523   3.88882 -18.16891   0.25451  -1.05849
       z    -3.49961   1.59094  12.65604   0.14803 -19.02898  -2.10255
-------------------------------------------------------------------------------


  Static dielectric constant tensor : 

-------------------------------------------------------------------------------
              x         y         z
-------------------------------------------------------------------------------
       x     5.18017   0.14981   0.36252
       y     0.14981   6.84207  -0.11511
       z     0.36252  -0.11511   4.26685
--------------------------------------------------------------------------------

  High frequency dielectric constant tensor : 

-------------------------------------------------------------------------------
              x         y         z
-------------------------------------------------------------------------------
       x     1.55243  -0.00215   0.00916
       y    -0.00215   1.55979  -0.00089
       z     0.00916  -0.00089   1.51418
-------------------------------------------------------------------------------

  Static refractive indices : 

-------------------------------------------------------------------------------
    1 =    2.03254      2 =    2.30211      3 =    2.61881
-------------------------------------------------------------------------------

  High frequency refractive indices : 

-------------------------------------------------------------------------------
    1 =    1.22967      2 =    1.24646      3 =    1.24926
-------------------------------------------------------------------------------


  Time to end of optimisation =       2.6467 seconds


  Peak dynamic memory used =       2.76 MB 


  Timing analysis for GULP :

--------------------------------------------------------------------------------
  Task / Subroutine                                          Time (Seconds)
--------------------------------------------------------------------------------
  Calculation of reciprocal space energy and derivatives          0.1813
  Calculation of real space energy and derivatives                2.2216
  Calculation of three-body energy and derivatives                0.0194
  Calculation and manipulation of Hessian matrix                  0.3171
  Calculation of matrix inversion                                 0.0045
--------------------------------------------------------------------------------
  Total CPU time                                                  2.6467
--------------------------------------------------------------------------------


  Dump file written as c00007.vasp.grs
  CIF file written as c00007.vasp.cif


  Job Finished at 11:00.55 11th October    2025                               

