********************************************************************************
*                       GENERAL UTILITY LATTICE PROGRAM                        *
*                                 Julian Gale                                  *
*                       Curtin Institute for Computation                       *
*                    School of Molecular and Life Sciences                     *
*                    Curtin University, Western Australia                      *
********************************************************************************
* Version = 6.1.2 * Last modified =   3rd November 2022                        *
********************************************************************************
*  optimise     - perform optimisation run                                     *
*  conp         - constant pressure calculation                                *
*  property     - calculate properties for final geometry                      *
********************************************************************************

  Job Started  at 11:01.25 11th October    2025                               

  Number of CPUs =     1


  Total number of configurations input =      1

********************************************************************************
*  Input for Configuration =   1 : c00016.vasp                                 *
********************************************************************************

  Formula = Ge10Si2O24                                                  

  Number of irreducible atoms/shells =      60


  Total number atoms/shells =      60

  Dimensionality = 3               :  Bulk   



  Cartesian lattice vectors (Angstroms) :

        9.086940    0.000000    0.000000
        0.000000    7.554810    0.000000
       -3.295144    0.000000    9.944380

  Cell parameters (Angstroms/Degrees):

  a =       9.0869    alpha =  90.0000
  b =       7.5548    beta  = 108.3330
  c =      10.4761    gamma =  90.0000

  Initial cell volume =         682.682735 Angs**3

  Temperature of configuration =   0.00     K 

  Pressure of configuration =         0.000 GPa 

  Fractional coordinates of asymmetric unit :

--------------------------------------------------------------------------------
   No.  Atomic       x           y          z         Charge      Occupancy
        Label      (Frac)      (Frac)     (Frac)        (e)         (Frac)  
--------------------------------------------------------------------------------
      1 Ge    c    0.313820    0.296860    0.309830     4.00000    1.000000    
      2 Ge    c    0.686180 *  0.296860 *  0.690170 *   4.00000    1.000000    
      3 Ge    c    0.686180 *  0.703140 *  0.690170 *   4.00000    1.000000    
      4 Ge    c    0.331050 *  0.296920 *  0.607380 *   4.00000    1.000000    
      5 Ge    c    0.668950 *  0.296920 *  0.392620 *   4.00000    1.000000    
      6 Ge    c    0.668950 *  0.703080 *  0.392620 *   4.00000    1.000000    
      7 Ge    c    0.879680 *  0.000000 *  0.350160 *   4.00000    1.000000    
      8 Ge    c    0.120320 *  0.000000 *  0.649840 *   4.00000    1.000000    
      9 Ge    c    0.093070 *  0.000000 *  0.158230 *   4.00000    1.000000    
     10 Ge    c    0.906930 *  0.000000 *  0.841770 *   4.00000    1.000000    
     11 Si    c    0.313820 *  0.703140 *  0.309830 *   4.00000    1.000000    
     12 Si    c    0.331050 *  0.703080 *  0.607380 *   4.00000    1.000000    
     13 O1    c    0.268740 *  0.279030 *  0.446100 *   1.73396    1.000000    
     14 O1    c    0.731260 *  0.279030 *  0.553900 *   1.73396    1.000000    
     15 O1    c    0.731260 *  0.720970 *  0.553900 *   1.73396    1.000000    
     16 O2    c    0.268740 *  0.720970 *  0.446100 *   0.87073    1.000000    
     17 O3    c    0.295480 *  0.500000 *  0.260860 *   1.33043    1.000000    
     18 O1    c    0.704520 *  0.500000 *  0.739140 *   1.73396    1.000000    
     19 O1    c    0.490600 *  0.234690 *  0.337530 *   1.73396    1.000000    
     20 O1    c    0.509400 *  0.234690 *  0.662470 *   1.73396    1.000000    
     21 O3    c    0.509400 *  0.765310 *  0.662470 *   1.33043    1.000000    
     22 O3    c    0.490600 *  0.765310 *  0.337530 *   1.33043    1.000000    
     23 O1    c    0.200440 *  0.174000 *  0.194980 *   1.73396    1.000000    
     24 O1    c    0.799560 *  0.174000 *  0.805020 *   1.73396    1.000000    
     25 O1    c    0.799560 *  0.826000 *  0.805020 *   1.73396    1.000000    
     26 O3    c    0.200440 *  0.826000 *  0.194980 *   1.33043    1.000000    
     27 O3    c    0.317860 *  0.500000 *  0.649090 *   1.33043    1.000000    
     28 O1    c    0.682140 *  0.500000 *  0.350910 *   1.73396    1.000000    
     29 O1    c    0.227920 *  0.173870 *  0.671620 *   1.73396    1.000000    
     30 O1    c    0.772080 *  0.173870 *  0.328380 *   1.73396    1.000000    
     31 O1    c    0.772080 *  0.826130 *  0.328380 *   1.73396    1.000000    
     32 O3    c    0.227920 *  0.826130 *  0.671620 *   1.33043    1.000000    
     33 O1    c    0.000000 *  0.000000 *  0.500000 *   1.73396    1.000000    
     34 O1    c    0.971960 *  0.000000 *  0.241930 *   1.73396    1.000000    
     35 O1    c    0.028040 *  0.000000 *  0.758070 *   1.73396    1.000000    
     36 O1    c    0.000000 *  0.000000 *  0.000000 *   1.73396    1.000000    
     37 O1    s    0.268740 *  0.279030 *  0.446100 *  -3.73396    1.000000    
     38 O1    s    0.731260 *  0.279030 *  0.553900 *  -3.73396    1.000000    
     39 O1    s    0.731260 *  0.720970 *  0.553900 *  -3.73396    1.000000    
     40 O2    s    0.268740 *  0.720970 *  0.446100 *  -2.87073    1.000000    
     41 O3    s    0.295480 *  0.500000 *  0.260860 *  -3.33043    1.000000    
     42 O1    s    0.704520 *  0.500000 *  0.739140 *  -3.73396    1.000000    
     43 O1    s    0.490600 *  0.234690 *  0.337530 *  -3.73396    1.000000    
     44 O1    s    0.509400 *  0.234690 *  0.662470 *  -3.73396    1.000000    
     45 O3    s    0.509400 *  0.765310 *  0.662470 *  -3.33043    1.000000    
     46 O3    s    0.490600 *  0.765310 *  0.337530 *  -3.33043    1.000000    
     47 O1    s    0.200440 *  0.174000 *  0.194980 *  -3.73396    1.000000    
     48 O1    s    0.799560 *  0.174000 *  0.805020 *  -3.73396    1.000000    
     49 O1    s    0.799560 *  0.826000 *  0.805020 *  -3.73396    1.000000    
     50 O3    s    0.200440 *  0.826000 *  0.194980 *  -3.33043    1.000000    
     51 O3    s    0.317860 *  0.500000 *  0.649090 *  -3.33043    1.000000    
     52 O1    s    0.682140 *  0.500000 *  0.350910 *  -3.73396    1.000000    
     53 O1    s    0.227920 *  0.173870 *  0.671620 *  -3.73396    1.000000    
     54 O1    s    0.772080 *  0.173870 *  0.328380 *  -3.73396    1.000000    
     55 O1    s    0.772080 *  0.826130 *  0.328380 *  -3.73396    1.000000    
     56 O3    s    0.227920 *  0.826130 *  0.671620 *  -3.33043    1.000000    
     57 O1    s    0.000000 *  0.000000 *  0.500000 *  -3.73396    1.000000    
     58 O1    s    0.971960 *  0.000000 *  0.241930 *  -3.73396    1.000000    
     59 O1    s    0.028040 *  0.000000 *  0.758070 *  -3.73396    1.000000    
     60 O1    s    0.000000 *  0.000000 *  0.000000 *  -3.73396    1.000000    
--------------------------------------------------------------------------------



********************************************************************************
*  General input information                                                   *
********************************************************************************

  Species output for all configurations : 

--------------------------------------------------------------------------------
  Species    Type    Atomic    Atomic    Charge       Radii (Angs)     Library
                     Number     Mass       (e)     Cova   Ionic  VDW   Symbol
--------------------------------------------------------------------------------
    Ge       Core       32      72.61   4.000000   1.170  0.000  1.750 Ge       
    Si       Core       14      28.09   4.000000   1.200  0.000  2.100 Si       
    O1       Core        8      16.00   1.733957   0.730  0.000  1.360 O1       
    O2       Core        8      16.00   0.870733   0.730  0.000  1.360 O2       
    O3       Core        8      16.00   1.330431   0.730  0.000  1.360 O3       
    O1       Shell       8       0.00  -3.733957   0.730  0.000  0.000 O1       
    O2       Shell       8       0.00  -2.870733   0.730  0.000  0.000 O2       
    O3       Shell       8       0.00  -3.330431   0.730  0.000  0.000 O3       
--------------------------------------------------------------------------------


  Lattice summation method               =    Ewald          (3-D)
                                         =    Parry          (2-D)
                                         =    Saunders et al (1-D)
  Accuracy factor for lattice sums       =   12.000


  Analytic derivatives to be used

  Time limit = Infinity

  Maximum range for interatomic potentials =    100000.000000 Angstroms

  General interatomic potentials :

--------------------------------------------------------------------------------
Atom  Types   Potential      Parameter       Value         Units   Cutoffs(Ang)
  1     2                                                            Min /  Max 
--------------------------------------------------------------------------------
Si   c O1   s Buckingham    Buckingham A     1315.2478    eV        0.000 16.000
                            Buckingham rho  0.31775900    Ang       
                            Buckingham C     10.141118    eV*Ang^6  
--------------------------------------------------------------------------------
Si   c O2   s Buckingham    Buckingham A     1315.2478    eV        0.000 16.000
                            Buckingham rho  0.31775900    Ang       
                            Buckingham C     10.141118    eV*Ang^6  
--------------------------------------------------------------------------------
Si   c O3   s Buckingham    Buckingham A     1315.2478    eV        0.000 16.000
                            Buckingham rho  0.31775900    Ang       
                            Buckingham C     10.141118    eV*Ang^6  
--------------------------------------------------------------------------------
Ge   c O1   s Buckingham    Buckingham A     1497.3996    eV        0.000 16.000
                            Buckingham rho  0.32564600    Ang       
                            Buckingham C     16.808599    eV*Ang^6  
--------------------------------------------------------------------------------
Ge   c O2   s Buckingham    Buckingham A     1497.3996    eV        0.000 16.000
                            Buckingham rho  0.32564600    Ang       
                            Buckingham C     16.808599    eV*Ang^6  
--------------------------------------------------------------------------------
Ge   c O3   s Buckingham    Buckingham A     1497.3996    eV        0.000 16.000
                            Buckingham rho  0.32564600    Ang       
                            Buckingham C     16.808599    eV*Ang^6  
--------------------------------------------------------------------------------
O1   s O1   s Buckingham    Buckingham A     22764.000    eV        0.000 16.000
                            Buckingham rho  0.14900000    Ang       
                            Buckingham C     10.937044    eV*Ang^6  
--------------------------------------------------------------------------------
O1   s O2   s Buckingham    Buckingham A     22764.000    eV        0.000 16.000
                            Buckingham rho  0.14900000    Ang       
                            Buckingham C     10.937044    eV*Ang^6  
--------------------------------------------------------------------------------
O1   s O3   s Buckingham    Buckingham A     22764.000    eV        0.000 16.000
                            Buckingham rho  0.14900000    Ang       
                            Buckingham C     10.937044    eV*Ang^6  
--------------------------------------------------------------------------------
O2   s O2   s Buckingham    Buckingham A     22764.000    eV        0.000 16.000
                            Buckingham rho  0.14900000    Ang       
                            Buckingham C     10.937044    eV*Ang^6  
--------------------------------------------------------------------------------
O2   s O3   s Buckingham    Buckingham A     22764.000    eV        0.000 16.000
                            Buckingham rho  0.14900000    Ang       
                            Buckingham C     10.937044    eV*Ang^6  
--------------------------------------------------------------------------------
O3   s O3   s Buckingham    Buckingham A     22764.000    eV        0.000 16.000
                            Buckingham rho  0.14900000    Ang       
                            Buckingham C     10.937044    eV*Ang^6  
--------------------------------------------------------------------------------
O1   c O1   s Spring (c-s)  Spring k 2       180.31577    eV*Ang^-2 0.000  0.800
                            Spring k 4       0.0000000    eV*Ang^-4 
--------------------------------------------------------------------------------
O2   c O2   s Spring (c-s)  Spring k 2       75.969800    eV*Ang^-2 0.000  0.800
                            Spring k 4       0.0000000    eV*Ang^-4 
--------------------------------------------------------------------------------
O3   c O3   s Spring (c-s)  Spring k 2       128.14270    eV*Ang^-2 0.000  0.800
                            Spring k 4       0.0000000    eV*Ang^-4 
--------------------------------------------------------------------------------

  General Three-body potentials :

--------------------------------------------------------------------------------
  Atoms       Potential      Parameter       Value         Units   Cutoffs(Ang)
  1 / 2 / 3                                                          Min /  Max 
--------------------------------------------------------------------------------
Si    core    Harmonic      Three-body cnst  1.2614000    eV*rad^-2 0.000  1.900
O1    shel                  Three-body angl  109.47000    degrees   0.000  1.900
O1    shel                  Three-body k4    0.0000000    eV*rad^-4 0.000  3.500
                            Three-body k3    0.0000000    eV*rad^-3 
--------------------------------------------------------------------------------
Si    core    Harmonic      Three-body cnst  1.2614000    eV*rad^-2 0.000  1.900
O1    shel                  Three-body angl  109.47000    degrees   0.000  1.900
õ(1   shel                  Three-body k4    0.0000000    eV*rad^-4 0.000  3.500
                            Three-body k3    0.0000000    eV*rad^-3 
--------------------------------------------------------------------------------
Si    core    Harmonic      Three-body cnst  1.2614000    eV*rad^-2 0.000  1.900
õ(1   shel                  Three-body angl  109.47000    degrees   0.000  1.900
õ(1   shel                  Three-body k4    0.0000000    eV*rad^-4 0.000  3.500
                            Three-body k3    0.0000000    eV*rad^-3 
--------------------------------------------------------------------------------
Si    core    Harmonic      Three-body cnst  1.2614000    eV*rad^-2 0.000  1.900
O1    shel                  Three-body angl  109.47000    degrees   0.000  1.900
O2    shel                  Three-body k4    0.0000000    eV*rad^-4 0.000  3.500
                            Three-body k3    0.0000000    eV*rad^-3 
--------------------------------------------------------------------------------
Si    core    Harmonic      Three-body cnst  1.2614000    eV*rad^-2 0.000  1.900
O1    shel                  Three-body angl  109.47000    degrees   0.000  1.900
õ(2   shel                  Three-body k4    0.0000000    eV*rad^-4 0.000  3.500
                            Three-body k3    0.0000000    eV*rad^-3 
--------------------------------------------------------------------------------
Si    core    Harmonic      Three-body cnst  1.2614000    eV*rad^-2 0.000  1.900
O2    shel                  Three-body angl  109.47000    degrees   0.000  1.900
õ(1   shel                  Three-body k4    0.0000000    eV*rad^-4 0.000  3.500
                            Three-body k3    0.0000000    eV*rad^-3 
--------------------------------------------------------------------------------
Si    core    Harmonic      Three-body cnst  1.2614000    eV*rad^-2 0.000  1.900
õ(1   shel                  Three-body angl  109.47000    degrees   0.000  1.900
õ(2   shel                  Three-body k4    0.0000000    eV*rad^-4 0.000  3.500
                            Three-body k3    0.0000000    eV*rad^-3 
--------------------------------------------------------------------------------
Si    core    Harmonic      Three-body cnst  1.2614000    eV*rad^-2 0.000  1.900
O2    shel                  Three-body angl  109.47000    degrees   0.000  1.900
O2    shel                  Three-body k4    0.0000000    eV*rad^-4 0.000  3.500
                            Three-body k3    0.0000000    eV*rad^-3 
--------------------------------------------------------------------------------
Si    core    Harmonic      Three-body cnst  1.2614000    eV*rad^-2 0.000  1.900
O2    shel                  Three-body angl  109.47000    degrees   0.000  1.900
õ(2   shel                  Three-body k4    0.0000000    eV*rad^-4 0.000  3.500
                            Three-body k3    0.0000000    eV*rad^-3 
--------------------------------------------------------------------------------
Si    core    Harmonic      Three-body cnst  1.2614000    eV*rad^-2 0.000  1.900
õ(2   shel                  Three-body angl  109.47000    degrees   0.000  1.900
õ(2   shel                  Three-body k4    0.0000000    eV*rad^-4 0.000  3.500
                            Three-body k3    0.0000000    eV*rad^-3 
--------------------------------------------------------------------------------

********************************************************************************
*  Output for configuration   1 : c00016.vasp                                  *
********************************************************************************


  Components of energy : 

--------------------------------------------------------------------------------
  Interatomic potentials     =         448.41689815 eV    
  Three-body potentials      =           0.00000000 eV    
  Monopole - monopole (real) =       -1236.99964305 eV    
  Monopole - monopole (recip)=        -659.26603192 eV    
  Monopole - monopole (total)=       -1896.26567496 eV    
--------------------------------------------------------------------------------
  Total lattice energy       =       -1447.84877681 eV    
--------------------------------------------------------------------------------
  Total lattice energy       =         -139695.2746 kJ/(mole unit cells)
--------------------------------------------------------------------------------


  Number of variables =      183

  Maximum number of calculations  =          1000
  Maximum Hessian update interval =            10
  Maximum step size               =   0.100000000
  Maximum parameter tolerance     =   0.000010000
  Maximum function  tolerance     =   0.000010000
  Maximum gradient  tolerance     =   0.001000000
  Maximum gradient  component     =   0.010000000

  Symmetry not applied to optimisation

  Cell parameters to be optimised using strains

  Newton-Raphson optimiser to be used

  BFGS hessian update to be used

  Lower half triangular hessian to be used

  Minimiser to switch to RFO
  When gradient norm is less than     0.050000

  Dumpfile to be written after every cycle

  Start of bulk optimisation :

  Cycle:      0 Energy:     -1447.848777  Gnorm:      6.621263  CPU:    0.034
  ** Hessian calculated **
  Cycle:      1 Energy:     -1468.686217  Gnorm:      1.800308  CPU:    0.074
  ** Hessian calculated **
  Cycle:      2 Energy:     -1471.310027  Gnorm:      0.878062  CPU:    0.141
  Cycle:      3 Energy:     -1471.971541  Gnorm:      0.374941  CPU:    0.181
  Cycle:      4 Energy:     -1472.224426  Gnorm:      0.309207  CPU:    0.230
  Cycle:      5 Energy:     -1472.548299  Gnorm:      0.273650  CPU:    0.278
  Cycle:      6 Energy:     -1472.912528  Gnorm:      0.273459  CPU:    0.326
  Cycle:      7 Energy:     -1473.129765  Gnorm:      0.248082  CPU:    0.367
  Cycle:      8 Energy:     -1473.221670  Gnorm:      0.149411  CPU:    0.408
  Cycle:      9 Energy:     -1473.265975  Gnorm:      0.131336  CPU:    0.449
  Cycle:     10 Energy:     -1473.298189  Gnorm:      0.103644  CPU:    0.489
  Cycle:     11 Energy:     -1473.322695  Gnorm:      0.088264  CPU:    0.530
  ** Hessian calculated **
  Cycle:     12 Energy:     -1473.338129  Gnorm:      0.086075  CPU:    0.604
  Cycle:     13 Energy:     -1473.363321  Gnorm:      0.082344  CPU:    0.660
  Cycle:     14 Energy:     -1473.392826  Gnorm:      0.077550  CPU:    0.708
  Cycle:     15 Energy:     -1473.436204  Gnorm:      0.069656  CPU:    0.763
  Cycle:     16 Energy:     -1473.479690  Gnorm:      0.060308  CPU:    0.812
  Cycle:     17 Energy:     -1473.518322  Gnorm:      0.049994  CPU:    0.861
  ** Hessian has wrong structure
  ** Imaginary eigenvectors =   3
  Cycle:     18 Energy:     -1473.568485  Gnorm:      0.128909  CPU:    0.963
  ** Hessian has wrong structure
  ** Imaginary eigenvectors =   2
  ** Hessian has wrong structure
  ** Imaginary eigenvectors =   2
  Cycle:     19 Energy:     -1473.657422  Gnorm:      0.142610  CPU:    1.133
  ** Hessian has wrong structure
  ** Imaginary eigenvectors =   1
  ** Hessian has required structure
  Cycle:     20 Energy:     -1473.886180  Gnorm:      0.091034  CPU:    1.268
  ** Hessian has required structure
  Cycle:     21 Energy:     -1473.976720  Gnorm:      0.070402  CPU:    1.323
  ** Hessian has required structure
  Cycle:     22 Energy:     -1474.033047  Gnorm:      0.031340  CPU:    1.379
  ** Hessian has required structure
  Cycle:     23 Energy:     -1474.055536  Gnorm:      0.050550  CPU:    1.434
  ** Hessian has required structure
  Cycle:     24 Energy:     -1474.075438  Gnorm:      0.036726  CPU:    1.490
  ** Hessian has required structure
  Cycle:     25 Energy:     -1474.084422  Gnorm:      0.031106  CPU:    1.538
  ** Hessian has required structure
  Cycle:     26 Energy:     -1474.092908  Gnorm:      0.018425  CPU:    1.586
  ** Hessian has required structure
  Cycle:     27 Energy:     -1474.097421  Gnorm:      0.017951  CPU:    1.642
  ** Hessian has required structure
  Cycle:     28 Energy:     -1474.101682  Gnorm:      0.018606  CPU:    1.690
  ** Hessian has required structure
  Cycle:     29 Energy:     -1474.105811  Gnorm:      0.026832  CPU:    1.738
  ** Hessian has required structure
  Cycle:     30 Energy:     -1474.116776  Gnorm:      0.023133  CPU:    1.822
  ** Hessian has required structure
  Cycle:     31 Energy:     -1474.127483  Gnorm:      0.026193  CPU:    1.879
  ** Hessian has required structure
  Cycle:     32 Energy:     -1474.132969  Gnorm:      0.021316  CPU:    1.928
  ** Hessian has required structure
  Cycle:     33 Energy:     -1474.136927  Gnorm:      0.019561  CPU:    1.977
  ** Hessian has required structure
  Cycle:     34 Energy:     -1474.141122  Gnorm:      0.011802  CPU:    2.026
  ** Hessian has required structure
  Cycle:     35 Energy:     -1474.144030  Gnorm:      0.014822  CPU:    2.083
  ** Hessian has required structure
  Cycle:     36 Energy:     -1474.146284  Gnorm:      0.009416  CPU:    2.133
  ** Hessian has required structure
  Cycle:     37 Energy:     -1474.148424  Gnorm:      0.012112  CPU:    2.207
  ** Hessian has required structure
  Cycle:     38 Energy:     -1474.150127  Gnorm:      0.012007  CPU:    2.289
  ** Hessian has required structure
  Cycle:     39 Energy:     -1474.152614  Gnorm:      0.009484  CPU:    2.372
  ** Hessian has wrong structure
  ** Imaginary eigenvectors =   1
  Cycle:     40 Energy:     -1474.159237  Gnorm:      0.026137  CPU:    2.545
  ** Hessian has required structure
  Cycle:     41 Energy:     -1474.174963  Gnorm:      0.035428  CPU:    2.645
  ** Hessian has required structure
  Cycle:     42 Energy:     -1474.189439  Gnorm:      0.034546  CPU:    2.728
  ** Hessian has required structure
  Cycle:     43 Energy:     -1474.206973  Gnorm:      0.015486  CPU:    2.799
  ** Hessian has required structure
  Cycle:     44 Energy:     -1474.217361  Gnorm:      0.024890  CPU:    2.882
  ** Hessian has required structure
  Cycle:     45 Energy:     -1474.225734  Gnorm:      0.024698  CPU:    2.953
  ** Hessian has required structure
  Cycle:     46 Energy:     -1474.232515  Gnorm:      0.022735  CPU:    3.024
  ** Hessian has required structure
  Cycle:     47 Energy:     -1474.239222  Gnorm:      0.019517  CPU:    3.096
  ** Hessian has required structure
  Cycle:     48 Energy:     -1474.241841  Gnorm:      0.012352  CPU:    3.167
  ** Hessian has required structure
  Cycle:     49 Energy:     -1474.243446  Gnorm:      0.011749  CPU:    3.238
  ** Hessian has required structure
  Cycle:     50 Energy:     -1474.244518  Gnorm:      0.007243  CPU:    3.310
  ** Hessian has required structure
  Cycle:     51 Energy:     -1474.245077  Gnorm:      0.006175  CPU:    3.424
  ** Hessian has required structure
  Cycle:     52 Energy:     -1474.245713  Gnorm:      0.004629  CPU:    3.508
  ** Hessian has required structure
  Cycle:     53 Energy:     -1474.246282  Gnorm:      0.002506  CPU:    3.590
  ** Hessian has required structure
  Cycle:     54 Energy:     -1474.246410  Gnorm:      0.001550  CPU:    3.660
  ** Hessian has required structure
  Cycle:     55 Energy:     -1474.246466  Gnorm:      0.000812  CPU:    3.742
  ** Hessian has required structure
  Cycle:     56 Energy:     -1474.246480  Gnorm:      0.000382  CPU:    3.837
  ** Hessian has required structure
  Cycle:     57 Energy:     -1474.246483  Gnorm:      0.000271  CPU:    3.894
  ** Hessian has required structure


  **** Optimisation achieved ****


  Final energy =   -1474.24648489 eV      
  Final Gnorm  =       0.00021766

  Components of energy : 

--------------------------------------------------------------------------------
  Interatomic potentials     =         390.35431038 eV    
  Three-body potentials      =           0.00000000 eV    
  Monopole - monopole (real) =        -575.15292391 eV    
  Monopole - monopole (recip)=       -1289.44787136 eV    
  Monopole - monopole (total)=       -1864.60079527 eV    
--------------------------------------------------------------------------------
  Total lattice energy       =       -1474.24648489 eV    
--------------------------------------------------------------------------------
  Total lattice energy       =         -142242.2499 kJ/(mole unit cells)
--------------------------------------------------------------------------------

  Final fractional coordinates of atoms :

--------------------------------------------------------------------------------
   No.  Atomic        x           y          z          Radius
        Label       (Frac)      (Frac)     (Frac)       (Angs) 
--------------------------------------------------------------------------------
     1  Ge    c     0.313820    0.296860    0.309830    0.000000
     2  Ge    c     0.712176    0.278191    0.716259    0.000000
     3  Ge    c     0.660676    0.693009    0.724123    0.000000
     4  Ge    c     0.351158    0.225084    0.645273    0.000000
     5  Ge    c     0.677788    0.353955    0.390969    0.000000
     6  Ge    c     0.630009    0.760598    0.401339    0.000000
     7  Ge    c     0.858101    0.056991    0.328630    0.000000
     8  Ge    c     0.111150    0.929257    0.635583    0.000000
     9  Ge    c     0.091418    0.993438    0.173369    0.000000
    10  Ge    c     0.920247    0.948576    0.855898    0.000000
    11  Si    c     0.294793    0.676240    0.331874    0.000000
    12  Si    c     0.325204    0.612485    0.645481    0.000000
    13  O1    c     0.315201    0.206314    0.470917    0.000000
    14  O1    c     0.711200    0.243626    0.552735    0.000000
    15  O1    c     0.651727    0.806287    0.567092    0.000000
    16  O2    c     0.366862    0.612090    0.499538    0.000000
    17  O3    c     0.232207    0.502830    0.265167    0.000000
    18  O1    c     0.735937    0.492074    0.737340    0.000000
    19  O1    c     0.491349    0.324290    0.297569    0.000000
    20  O1    c     0.540853    0.210477    0.732350    0.000000
    21  O3    c     0.482948    0.674169    0.748031    0.000000
    22  O3    c     0.441141    0.754078    0.296730    0.000000
    23  O1    c     0.209450    0.166117    0.191629    0.000000
    24  O1    c     0.857885    0.158257    0.831380    0.000000
    25  O1    c     0.771650    0.811044    0.849531    0.000000
    26  O3    c     0.168248    0.820210    0.297280    0.000000
    27  O3    c     0.286499    0.416677    0.680268    0.000000
    28  O1    c     0.715652    0.567535    0.405479    0.000000
    29  O1    c     0.255493    0.064361    0.707930    0.000000
    30  O1    c     0.795398    0.263890    0.318523    0.000000
    31  O1    c     0.710349    0.921812    0.323474    0.000000
    32  O3    c     0.183976    0.728145    0.631819    0.000000
    33  O1    c     0.017544    0.015951    0.470286    0.000000
    34  O1    c     0.920554    0.042669    0.188983    0.000000
    35  O1    c     0.988537    0.894802    0.727444    0.000000
    36  O1    c     0.060688    0.924427    0.012836    0.000000
    37  O1    s     0.317720    0.214414    0.471683    0.000000
    38  O1    s     0.708882    0.254197    0.552940    0.000000
    39  O1    s     0.650736    0.794847    0.566014    0.000000
    40  O2    s     0.357442    0.617456    0.497562    0.000000
    41  O3    s     0.244169    0.504855    0.274901    0.000000
    42  O1    s     0.728368    0.490940    0.734716    0.000000
    43  O1    s     0.491665    0.324401    0.305533    0.000000
    44  O1    s     0.538850    0.216538    0.724480    0.000000
    45  O3    s     0.480800    0.669667    0.736538    0.000000
    46  O3    s     0.441353    0.747314    0.307719    0.000000
    47  O1    s     0.208502    0.163007    0.199473    0.000000
    48  O1    s     0.851360    0.152113    0.824437    0.000000
    49  O1    s     0.774044    0.812064    0.840456    0.000000
    50  O3    s     0.175622    0.818247    0.291720    0.000000
    51  O3    s     0.295115    0.421555    0.674241    0.000000
    52  O1    s     0.706446    0.565774    0.404076    0.000000
    53  O1    s     0.251787    0.066290    0.697749    0.000000
    54  O1    s     0.791084    0.255544    0.324753    0.000000
    55  O1    s     0.715610    0.919787    0.330000    0.000000
    56  O3    s     0.193308    0.731533    0.633525    0.000000
    57  O1    s     0.012832    0.012348    0.472421    0.000000
    58  O1    s     0.928834    0.039974    0.198016    0.000000
    59  O1    s     0.993207    0.901517    0.729629    0.000000
    60  O1    s     0.052322    0.931436    0.012935    0.000000
--------------------------------------------------------------------------------

  Final Cartesian lattice vectors (Angstroms) :

        9.327751   -0.116709    0.046129
       -0.102618    7.825645    0.386185
       -3.322757    0.555318    9.638938


  Final cell parameters and derivatives :

--------------------------------------------------------------------------------
       a            9.328595 Angstrom     dE/de1(xx)     0.008984 eV/strain
       b            7.835840 Angstrom     dE/de2(yy)     0.007323 eV/strain
       c           10.210691 Angstrom     dE/de3(zz)     0.007162 eV/strain
       alpha       83.966976 Degrees      dE/de4(yz)     0.000811 eV/strain
       beta       108.747754 Degrees      dE/de5(xz)     0.000489 eV/strain
       gamma       91.452358 Degrees      dE/de6(xy)    -0.001105 eV/strain
--------------------------------------------------------------------------------

  Primitive cell volume =           702.831463 Angs**3

  Density of cell =      2.755546 g/cm**3

  Non-primitive cell volume =           702.831463 Angs**3


  Final internal derivatives :

--------------------------------------------------------------------------------
   No.  Atomic          a             b             c           Radius
        Label          (eV)          (eV)          (eV)        (eV/Angs)
--------------------------------------------------------------------------------
      1 Ge    c       0.000000      0.000000      0.000000      0.000000
      2 Ge    c       0.001192      0.003971      0.001622      0.000000
      3 Ge    c       0.000969      0.000161     -0.003780      0.000000
      4 Ge    c      -0.005138     -0.003701      0.001570      0.000000
      5 Ge    c      -0.005211      0.003545      0.002594      0.000000
      6 Ge    c       0.000530     -0.001410      0.003562      0.000000
      7 Ge    c       0.001168     -0.002542     -0.003180      0.000000
      8 Ge    c       0.003531     -0.000150     -0.000602      0.000000
      9 Ge    c      -0.000916      0.000451      0.002795      0.000000
     10 Ge    c      -0.002023      0.000387     -0.000534      0.000000
     11 Si    c       0.005192      0.001058     -0.001573      0.000000
     12 Si    c      -0.000912      0.003446     -0.001192      0.000000
     13 O1    c      -0.004998     -0.001494     -0.000136      0.000000
     14 O1    c       0.003749      0.000847     -0.007764      0.000000
     15 O1    c       0.000066     -0.003347     -0.004463      0.000000
     16 O2    c       0.000260     -0.001271      0.001862      0.000000
     17 O3    c      -0.006109     -0.002344     -0.000994      0.000000
     18 O1    c       0.004167     -0.009133     -0.005477      0.000000
     19 O1    c       0.006508      0.000493     -0.000263      0.000000
     20 O1    c       0.008148     -0.005013      0.000406      0.000000
     21 O3    c      -0.002719      0.000136      0.001878      0.000000
     22 O3    c       0.000380     -0.001150      0.000662      0.000000
     23 O1    c       0.004867      0.006410     -0.002087      0.000000
     24 O1    c      -0.000449      0.000970      0.001374      0.000000
     25 O1    c       0.000300      0.001829      0.003958      0.000000
     26 O3    c      -0.005011      0.005213      0.006766      0.000000
     27 O3    c      -0.006205      0.003235      0.007060      0.000000
     28 O1    c      -0.001400     -0.001381      0.005620      0.000000
     29 O1    c       0.000657      0.000910      0.000206      0.000000
     30 O1    c       0.002251      0.003088     -0.004557      0.000000
     31 O1    c      -0.000923     -0.000171     -0.000760      0.000000
     32 O3    c       0.000691     -0.001966     -0.000681      0.000000
     33 O1    c       0.003674     -0.000366     -0.000825      0.000000
     34 O1    c      -0.005537      0.001398      0.003408      0.000000
     35 O1    c      -0.001428     -0.002375     -0.000136      0.000000
     36 O1    c       0.004529     -0.003427     -0.006393      0.000000
     37 O1    s       0.001283     -0.001403     -0.002049      0.000000
     38 O1    s      -0.000992      0.001265      0.002247      0.000000
     39 O1    s      -0.000554      0.000427      0.000920      0.000000
     40 O2    s       0.001918      0.000605      0.000236      0.000000
     41 O3    s       0.002389      0.000441     -0.001640      0.000000
     42 O1    s      -0.003718      0.004688      0.003655      0.000000
     43 O1    s      -0.001116      0.001322      0.000322      0.000000
     44 O1    s      -0.002183      0.002109      0.001943      0.000000
     45 O3    s       0.001266     -0.000085     -0.000101      0.000000
     46 O3    s       0.003936     -0.001008     -0.000461      0.000000
     47 O1    s      -0.001472     -0.001305      0.000561      0.000000
     48 O1    s       0.000764     -0.000158     -0.000754      0.000000
     49 O1    s      -0.000336     -0.000809     -0.002171      0.000000
     50 O3    s       0.001460     -0.002523     -0.000527      0.000000
     51 O3    s       0.001507      0.000460     -0.000264      0.000000
     52 O1    s      -0.003633     -0.000149     -0.001804      0.000000
     53 O1    s      -0.001278     -0.001659     -0.000101      0.000000
     54 O1    s      -0.000967     -0.000260      0.003125      0.000000
     55 O1    s      -0.001594     -0.000878      0.000473      0.000000
     56 O3    s       0.000730      0.000980      0.000026      0.000000
     57 O1    s      -0.001842      0.002066      0.001684      0.000000
     58 O1    s       0.000713     -0.000769     -0.002730      0.000000
     59 O1    s       0.000013      0.001678     -0.000089      0.000000
     60 O1    s      -0.002897      0.000091      0.001593      0.000000
--------------------------------------------------------------------------------
  Maximum abs         0.008148      0.009133      0.007764      0.000000
--------------------------------------------------------------------------------


  Born effective charge tensors : 

-------------------------------------------------------------------------------
  Atom             x           y             z
-------------------------------------------------------------------------------
    1 Ge    x       3.8043      0.4342      0.1134
            y       0.1666      4.2372      0.3042
            z       0.1442      0.2732      3.6436
-------------------------------------------------------------------------------
    2 Ge    x       3.9149     -0.2334      0.1259
            y      -0.3085      4.2387     -0.2787
            z       0.3241     -0.0823      3.6718
-------------------------------------------------------------------------------
    3 Ge    x       3.8315      0.3663      0.2700
            y       0.1046      4.1611      0.3180
            z       0.3755      0.1400      3.6674
-------------------------------------------------------------------------------
    4 Ge    x       3.9822      0.4197      0.0720
            y       0.2234      4.1906     -0.0058
            z       0.0817      0.0580      3.4579
-------------------------------------------------------------------------------
    5 Ge    x       4.1080     -0.2637     -0.0231
            y      -0.3704      4.2110      0.2908
            z      -0.0728     -0.0326      3.4357
-------------------------------------------------------------------------------
    6 Ge    x       4.0221      0.4251     -0.0366
            y       0.1642      4.1659     -0.1327
            z      -0.1512      0.0880      3.4312
-------------------------------------------------------------------------------
    7 Ge    x       4.6306     -0.2806     -0.1696
            y       0.0295      3.9680      0.0632
            z      -0.1991      0.0659      3.6918
-------------------------------------------------------------------------------
    8 Ge    x       4.4767     -0.1606      0.0459
            y       0.1204      3.9742      0.1711
            z      -0.3965     -0.1841      3.6546
-------------------------------------------------------------------------------
    9 Ge    x       3.9532     -0.0999      0.3830
            y       0.1628      3.9707     -0.1287
            z      -0.0854      0.4836      4.4330
-------------------------------------------------------------------------------
   10 Ge    x       3.9957     -0.2624     -0.1581
            y       0.1960      3.9340      0.1727
            z       0.5558      0.1043      4.5880
-------------------------------------------------------------------------------
   11 Si    x       3.4962     -0.1584      0.0091
            y      -0.2290      3.9288      0.0928
            z       0.4511     -0.2001      2.8925
-------------------------------------------------------------------------------
   12 Si    x       3.7231     -0.2059      0.3161
            y      -0.2694      3.8650     -0.0639
            z      -0.0469      0.1362      2.8537
-------------------------------------------------------------------------------
   13 O1    x      -1.4251     -0.1700      0.3348
            y      -0.1244     -1.5772      0.0986
            z       0.3177      0.1178     -2.6541
-------------------------------------------------------------------------------
   14 O1    x      -1.4620      0.0910      0.3582
            y       0.0914     -1.5791      0.1568
            z       0.3287      0.1878     -2.6110
-------------------------------------------------------------------------------
   15 O1    x      -1.4807     -0.1720      0.2784
            y      -0.1085     -1.5691      0.0737
            z       0.2828      0.0809     -2.5678
-------------------------------------------------------------------------------
   16 O2    x      -1.3537      0.0394      0.1868
            y       0.0776     -1.3227      0.0883
            z       0.1633      0.1096     -1.9424
-------------------------------------------------------------------------------
   17 O3    x      -1.2560      0.0428     -0.0926
            y       0.0799     -2.8605     -0.3078
            z      -0.1598     -0.2839     -1.3746
-------------------------------------------------------------------------------
   18 O1    x      -1.4209      0.2453     -0.0605
            y       0.3360     -3.2624     -0.1271
            z      -0.1040     -0.1010     -1.2904
-------------------------------------------------------------------------------
   19 O1    x      -2.9747     -0.2147     -0.3953
            y      -0.0915     -1.4455     -0.1132
            z      -0.4042     -0.0955     -1.4212
-------------------------------------------------------------------------------
   20 O1    x      -2.9486     -0.1969     -0.4121
            y      -0.1026     -1.4855      0.0618
            z      -0.4612      0.0051     -1.4127
-------------------------------------------------------------------------------
   21 O3    x      -2.5221     -0.2955     -0.4432
            y      -0.2307     -1.3700     -0.1795
            z      -0.4650     -0.2142     -1.5391
-------------------------------------------------------------------------------
   22 O3    x      -2.6604     -0.3807     -0.2373
            y      -0.2932     -1.4142      0.0447
            z      -0.2250      0.0568     -1.3560
-------------------------------------------------------------------------------
   23 O1    x      -1.7683     -0.7784     -0.4664
            y      -0.7942     -2.5441     -0.6766
            z      -0.4595     -0.7750     -1.8813
-------------------------------------------------------------------------------
   24 O1    x      -1.7718      0.7670     -0.4155
            y       0.7057     -2.5363      0.5590
            z      -0.5355      0.5867     -1.8248
-------------------------------------------------------------------------------
   25 O1    x      -2.0654     -0.7693     -0.4411
            y      -0.8330     -2.1639     -0.6109
            z      -0.5790     -0.6075     -1.9250
-------------------------------------------------------------------------------
   26 O3    x      -1.7402      0.8072     -0.3808
            y       0.7227     -2.3533      0.6011
            z      -0.3734      0.6063     -1.6086
-------------------------------------------------------------------------------
   27 O3    x      -1.3734     -0.0287      0.0746
            y       0.0204     -2.9704      0.0055
            z       0.1356      0.0259     -1.1851
-------------------------------------------------------------------------------
   28 O1    x      -1.5487      0.2131      0.0010
            y       0.2851     -3.1770     -0.1755
            z       0.0412     -0.1462     -1.1977
-------------------------------------------------------------------------------
   29 O1    x      -2.2719     -0.9743     -0.0723
            y      -1.0139     -2.4358     -0.0887
            z       0.0203     -0.0177     -1.3860
-------------------------------------------------------------------------------
   30 O1    x      -2.2426      0.9239      0.3717
            y       0.8563     -2.4949     -0.2976
            z       0.3473     -0.2231     -1.3751
-------------------------------------------------------------------------------
   31 O1    x      -2.5064     -1.0575      0.2672
            y      -1.0372     -2.3505      0.2669
            z       0.2544      0.2120     -1.3408
-------------------------------------------------------------------------------
   32 O3    x      -2.2509      1.0606     -0.0192
            y       0.9885     -2.3924     -0.0223
            z       0.1370     -0.0811     -1.1333
-------------------------------------------------------------------------------
   33 O1    x      -1.9305      0.2526     -0.7322
            y       0.1280     -1.4495      0.3242
            z      -0.5133      0.4041     -2.5583
-------------------------------------------------------------------------------
   34 O1    x      -2.7798      0.3859      0.6668
            y       0.2744     -1.3506     -0.0923
            z       0.7540     -0.2001     -2.0464
-------------------------------------------------------------------------------
   35 O1    x      -2.7339      0.1496      1.0647
            y       0.0594     -1.3706     -0.1889
            z       0.9499     -0.1339     -2.1620
-------------------------------------------------------------------------------
   36 O1    x      -1.4507      0.0790     -0.3838
            y       0.0137     -1.3697     -0.2030
            z      -0.4331     -0.3637     -3.6274
-------------------------------------------------------------------------------




  Elastic Constant Matrix: (Units=GPa)

-------------------------------------------------------------------------------
  Indices      1         2         3         4         5         6    
-------------------------------------------------------------------------------
       1     29.5092   15.0757    8.5717    1.9340    1.9545  -12.2782
       2     15.0757   51.2665    9.0590    6.2355    4.1851   -9.6622
       3      8.5717    9.0590   21.5368    6.5742    6.4886    2.3952
       4      1.9340    6.2355    6.5742    9.3088    3.5802    1.8089
       5      1.9545    4.1851    6.4886    3.5802    8.2248    4.5346
       6    -12.2782   -9.6622    2.3952    1.8089    4.5346   20.6987
-------------------------------------------------------------------------------


  Elastic Compliance Matrix: (Units=1/GPa)

-------------------------------------------------------------------------------
  Indices      1         2         3         4         5         6    
-------------------------------------------------------------------------------
       1    0.060434 -0.005720 -0.022546  0.006554 -0.018120  0.039184
       2   -0.005720  0.026656 -0.003080 -0.012614 -0.011462  0.013020
       3   -0.022546 -0.003080  0.078243 -0.033244 -0.032727 -0.013791
       4    0.006554 -0.012614 -0.033244  0.151285 -0.032408 -0.004275
       5   -0.018120 -0.011462 -0.032727 -0.032408  0.201170 -0.053551
       6    0.039184  0.013020 -0.013791 -0.004275 -0.053551  0.091335
-------------------------------------------------------------------------------

  Mechanical properties :

-------------------------------------------------------------------------------
  Convention :                    Reuss         Voigt         Hill
-------------------------------------------------------------------------------
  Bulk  Modulus (GPa)     =       9.74279      18.63615      14.18947
  Shear Modulus (GPa)     =       7.08186      12.28688       9.68437
-------------------------------------------------------------------------------
  Velocity S-wave (km/s)  =       1.60313       2.11163       1.87470
  Velocity P-wave (km/s)  =       2.63864       3.56489       3.13615
-------------------------------------------------------------------------------
  Compressibility (1/GPa) =    0.10263999
-------------------------------------------------------------------------------
  Stress axis :                     x             y             z
-------------------------------------------------------------------------------
  Youngs Moduli (GPa)     =      16.54702      37.51505      12.78071
-------------------------------------------------------------------------------
  Poissons Ratio (x)      =                     0.21460       0.28816
  Poissons Ratio (y)      =       0.09465                     0.03936
  Poissons Ratio (z)      =       0.37307       0.11554
-------------------------------------------------------------------------------


  Piezoelectric Strain Matrix: (Units=C/m**2)

-------------------------------------------------------------------------------
  Indices      1         2         3         4         5         6    
-------------------------------------------------------------------------------
       x    -1.03867  -0.42791   0.52306   0.16758  -0.01511   0.14275
       y    -0.09562   0.40918   0.28838   0.31356   0.21380   0.15087
       z    -0.72233  -0.09111  -0.58546  -1.01458   1.32381  -0.14472
-------------------------------------------------------------------------------


  Piezoelectric Stress Matrix: (Units=10**-11 C/N)

-------------------------------------------------------------------------------
  Indices      1         2         3         4         5         6    
-------------------------------------------------------------------------------
       x    -6.51504  -0.71577   5.86166   0.64335  -0.95086  -4.03533
       y    -1.05289   0.61244   0.39579   2.44888   1.23738  -0.14070
       z    -6.62397  -0.07537  -3.68407 -17.98960  34.02343 -10.11885
-------------------------------------------------------------------------------


  Static dielectric constant tensor : 

-------------------------------------------------------------------------------
              x         y         z
-------------------------------------------------------------------------------
       x     5.56131   0.00663   0.20441
       y     0.00663   5.85639   0.34926
       z     0.20441   0.34926   4.40774
--------------------------------------------------------------------------------

  High frequency dielectric constant tensor : 

-------------------------------------------------------------------------------
              x         y         z
-------------------------------------------------------------------------------
       x     1.55073  -0.00312   0.00853
       y    -0.00312   1.56110   0.00627
       z     0.00853   0.00627   1.51005
-------------------------------------------------------------------------------

  Static refractive indices : 

-------------------------------------------------------------------------------
    1 =    2.07291      2 =    2.36321      3 =    2.43798
-------------------------------------------------------------------------------

  High frequency refractive indices : 

-------------------------------------------------------------------------------
    1 =    1.22779      2 =    1.24584      3 =    1.24991
-------------------------------------------------------------------------------


  Time to end of optimisation =       4.0134 seconds


  Peak dynamic memory used =       2.76 MB 


  Timing analysis for GULP :

--------------------------------------------------------------------------------
  Task / Subroutine                                          Time (Seconds)
--------------------------------------------------------------------------------
  Calculation of reciprocal space energy and derivatives          0.2213
  Calculation of real space energy and derivatives                3.3994
  Calculation of three-body energy and derivatives                0.0300
  Calculation and manipulation of Hessian matrix                  0.5870
  Calculation of matrix inversion                                 0.0025
  Global summation overhead                                       0.0001
--------------------------------------------------------------------------------
  Total CPU time                                                  4.0134
--------------------------------------------------------------------------------


  Dump file written as c00016.vasp.grs
  CIF file written as c00016.vasp.cif


  Job Finished at 11:01.29 11th October    2025                               

