********************************************************************************
*                       GENERAL UTILITY LATTICE PROGRAM                        *
*                                 Julian Gale                                  *
*                       Curtin Institute for Computation                       *
*                    School of Molecular and Life Sciences                     *
*                    Curtin University, Western Australia                      *
********************************************************************************
* Version = 6.1.2 * Last modified =   3rd November 2022                        *
********************************************************************************
*  optimise     - perform optimisation run                                     *
*  conp         - constant pressure calculation                                *
*  property     - calculate properties for final geometry                      *
********************************************************************************

  Job Started  at 11:01.33 11th October    2025                               

  Number of CPUs =     1


  Total number of configurations input =      1

********************************************************************************
*  Input for Configuration =   1 : c00018.vasp                                 *
********************************************************************************

  Formula = Ge10Si2O24                                                  

  Number of irreducible atoms/shells =      60


  Total number atoms/shells =      60

  Dimensionality = 3               :  Bulk   



  Cartesian lattice vectors (Angstroms) :

        9.086940    0.000000    0.000000
        0.000000    7.554810    0.000000
       -3.295144    0.000000    9.944380

  Cell parameters (Angstroms/Degrees):

  a =       9.0869    alpha =  90.0000
  b =       7.5548    beta  = 108.3330
  c =      10.4761    gamma =  90.0000

  Initial cell volume =         682.682735 Angs**3

  Temperature of configuration =   0.00     K 

  Pressure of configuration =         0.000 GPa 

  Fractional coordinates of asymmetric unit :

--------------------------------------------------------------------------------
   No.  Atomic       x           y          z         Charge      Occupancy
        Label      (Frac)      (Frac)     (Frac)        (e)         (Frac)  
--------------------------------------------------------------------------------
      1 Ge    c    0.313820    0.296860    0.309830     4.00000    1.000000    
      2 Ge    c    0.686180 *  0.296860 *  0.690170 *   4.00000    1.000000    
      3 Ge    c    0.686180 *  0.703140 *  0.690170 *   4.00000    1.000000    
      4 Ge    c    0.331050 *  0.296920 *  0.607380 *   4.00000    1.000000    
      5 Ge    c    0.668950 *  0.703080 *  0.392620 *   4.00000    1.000000    
      6 Ge    c    0.331050 *  0.703080 *  0.607380 *   4.00000    1.000000    
      7 Ge    c    0.879680 *  0.000000 *  0.350160 *   4.00000    1.000000    
      8 Ge    c    0.120320 *  0.000000 *  0.649840 *   4.00000    1.000000    
      9 Ge    c    0.093070 *  0.000000 *  0.158230 *   4.00000    1.000000    
     10 Ge    c    0.906930 *  0.000000 *  0.841770 *   4.00000    1.000000    
     11 Si    c    0.313820 *  0.703140 *  0.309830 *   4.00000    1.000000    
     12 Si    c    0.668950 *  0.296920 *  0.392620 *   4.00000    1.000000    
     13 O1    c    0.268740 *  0.279030 *  0.446100 *   1.73396    1.000000    
     14 O3    c    0.731260 *  0.279030 *  0.553900 *   1.33043    1.000000    
     15 O1    c    0.731260 *  0.720970 *  0.553900 *   1.73396    1.000000    
     16 O3    c    0.268740 *  0.720970 *  0.446100 *   1.33043    1.000000    
     17 O3    c    0.295480 *  0.500000 *  0.260860 *   1.33043    1.000000    
     18 O1    c    0.704520 *  0.500000 *  0.739140 *   1.73396    1.000000    
     19 O3    c    0.490600 *  0.234690 *  0.337530 *   1.33043    1.000000    
     20 O1    c    0.509400 *  0.234690 *  0.662470 *   1.73396    1.000000    
     21 O1    c    0.509400 *  0.765310 *  0.662470 *   1.73396    1.000000    
     22 O3    c    0.490600 *  0.765310 *  0.337530 *   1.33043    1.000000    
     23 O1    c    0.200440 *  0.174000 *  0.194980 *   1.73396    1.000000    
     24 O1    c    0.799560 *  0.174000 *  0.805020 *   1.73396    1.000000    
     25 O1    c    0.799560 *  0.826000 *  0.805020 *   1.73396    1.000000    
     26 O3    c    0.200440 *  0.826000 *  0.194980 *   1.33043    1.000000    
     27 O1    c    0.317860 *  0.500000 *  0.649090 *   1.73396    1.000000    
     28 O3    c    0.682140 *  0.500000 *  0.350910 *   1.33043    1.000000    
     29 O1    c    0.227920 *  0.173870 *  0.671620 *   1.73396    1.000000    
     30 O3    c    0.772080 *  0.173870 *  0.328380 *   1.33043    1.000000    
     31 O1    c    0.772080 *  0.826130 *  0.328380 *   1.73396    1.000000    
     32 O1    c    0.227920 *  0.826130 *  0.671620 *   1.73396    1.000000    
     33 O1    c    0.000000 *  0.000000 *  0.500000 *   1.73396    1.000000    
     34 O1    c    0.971960 *  0.000000 *  0.241930 *   1.73396    1.000000    
     35 O1    c    0.028040 *  0.000000 *  0.758070 *   1.73396    1.000000    
     36 O1    c    0.000000 *  0.000000 *  0.000000 *   1.73396    1.000000    
     37 O1    s    0.268740 *  0.279030 *  0.446100 *  -3.73396    1.000000    
     38 O3    s    0.731260 *  0.279030 *  0.553900 *  -3.33043    1.000000    
     39 O1    s    0.731260 *  0.720970 *  0.553900 *  -3.73396    1.000000    
     40 O3    s    0.268740 *  0.720970 *  0.446100 *  -3.33043    1.000000    
     41 O3    s    0.295480 *  0.500000 *  0.260860 *  -3.33043    1.000000    
     42 O1    s    0.704520 *  0.500000 *  0.739140 *  -3.73396    1.000000    
     43 O3    s    0.490600 *  0.234690 *  0.337530 *  -3.33043    1.000000    
     44 O1    s    0.509400 *  0.234690 *  0.662470 *  -3.73396    1.000000    
     45 O1    s    0.509400 *  0.765310 *  0.662470 *  -3.73396    1.000000    
     46 O3    s    0.490600 *  0.765310 *  0.337530 *  -3.33043    1.000000    
     47 O1    s    0.200440 *  0.174000 *  0.194980 *  -3.73396    1.000000    
     48 O1    s    0.799560 *  0.174000 *  0.805020 *  -3.73396    1.000000    
     49 O1    s    0.799560 *  0.826000 *  0.805020 *  -3.73396    1.000000    
     50 O3    s    0.200440 *  0.826000 *  0.194980 *  -3.33043    1.000000    
     51 O1    s    0.317860 *  0.500000 *  0.649090 *  -3.73396    1.000000    
     52 O3    s    0.682140 *  0.500000 *  0.350910 *  -3.33043    1.000000    
     53 O1    s    0.227920 *  0.173870 *  0.671620 *  -3.73396    1.000000    
     54 O3    s    0.772080 *  0.173870 *  0.328380 *  -3.33043    1.000000    
     55 O1    s    0.772080 *  0.826130 *  0.328380 *  -3.73396    1.000000    
     56 O1    s    0.227920 *  0.826130 *  0.671620 *  -3.73396    1.000000    
     57 O1    s    0.000000 *  0.000000 *  0.500000 *  -3.73396    1.000000    
     58 O1    s    0.971960 *  0.000000 *  0.241930 *  -3.73396    1.000000    
     59 O1    s    0.028040 *  0.000000 *  0.758070 *  -3.73396    1.000000    
     60 O1    s    0.000000 *  0.000000 *  0.000000 *  -3.73396    1.000000    
--------------------------------------------------------------------------------



********************************************************************************
*  General input information                                                   *
********************************************************************************

  Species output for all configurations : 

--------------------------------------------------------------------------------
  Species    Type    Atomic    Atomic    Charge       Radii (Angs)     Library
                     Number     Mass       (e)     Cova   Ionic  VDW   Symbol
--------------------------------------------------------------------------------
    Ge       Core       32      72.61   4.000000   1.170  0.000  1.750 Ge       
    Si       Core       14      28.09   4.000000   1.200  0.000  2.100 Si       
    O1       Core        8      16.00   1.733957   0.730  0.000  1.360 O1       
    O2       Core        8      16.00   0.870733   0.730  0.000  0.000 O2       
    O3       Core        8      16.00   1.330431   0.730  0.000  1.360 O3       
    O1       Shell       8       0.00  -3.733957   0.730  0.000  0.000 O1       
    O2       Shell       8       0.00  -2.870733   0.730  0.000  0.000 O2       
    O3       Shell       8       0.00  -3.330431   0.730  0.000  0.000 O3       
--------------------------------------------------------------------------------


  Lattice summation method               =    Ewald          (3-D)
                                         =    Parry          (2-D)
                                         =    Saunders et al (1-D)
  Accuracy factor for lattice sums       =   12.000


  Analytic derivatives to be used

  Time limit = Infinity

  Maximum range for interatomic potentials =    100000.000000 Angstroms

  General interatomic potentials :

--------------------------------------------------------------------------------
Atom  Types   Potential      Parameter       Value         Units   Cutoffs(Ang)
  1     2                                                            Min /  Max 
--------------------------------------------------------------------------------
Si   c O1   s Buckingham    Buckingham A     1315.2478    eV        0.000 16.000
                            Buckingham rho  0.31775900    Ang       
                            Buckingham C     10.141118    eV*Ang^6  
--------------------------------------------------------------------------------
Si   c O2   s Buckingham    Buckingham A     1315.2478    eV        0.000 16.000
                            Buckingham rho  0.31775900    Ang       
                            Buckingham C     10.141118    eV*Ang^6  
--------------------------------------------------------------------------------
Si   c O3   s Buckingham    Buckingham A     1315.2478    eV        0.000 16.000
                            Buckingham rho  0.31775900    Ang       
                            Buckingham C     10.141118    eV*Ang^6  
--------------------------------------------------------------------------------
Ge   c O1   s Buckingham    Buckingham A     1497.3996    eV        0.000 16.000
                            Buckingham rho  0.32564600    Ang       
                            Buckingham C     16.808599    eV*Ang^6  
--------------------------------------------------------------------------------
Ge   c O2   s Buckingham    Buckingham A     1497.3996    eV        0.000 16.000
                            Buckingham rho  0.32564600    Ang       
                            Buckingham C     16.808599    eV*Ang^6  
--------------------------------------------------------------------------------
Ge   c O3   s Buckingham    Buckingham A     1497.3996    eV        0.000 16.000
                            Buckingham rho  0.32564600    Ang       
                            Buckingham C     16.808599    eV*Ang^6  
--------------------------------------------------------------------------------
O1   s O1   s Buckingham    Buckingham A     22764.000    eV        0.000 16.000
                            Buckingham rho  0.14900000    Ang       
                            Buckingham C     10.937044    eV*Ang^6  
--------------------------------------------------------------------------------
O1   s O2   s Buckingham    Buckingham A     22764.000    eV        0.000 16.000
                            Buckingham rho  0.14900000    Ang       
                            Buckingham C     10.937044    eV*Ang^6  
--------------------------------------------------------------------------------
O1   s O3   s Buckingham    Buckingham A     22764.000    eV        0.000 16.000
                            Buckingham rho  0.14900000    Ang       
                            Buckingham C     10.937044    eV*Ang^6  
--------------------------------------------------------------------------------
O2   s O2   s Buckingham    Buckingham A     22764.000    eV        0.000 16.000
                            Buckingham rho  0.14900000    Ang       
                            Buckingham C     10.937044    eV*Ang^6  
--------------------------------------------------------------------------------
O2   s O3   s Buckingham    Buckingham A     22764.000    eV        0.000 16.000
                            Buckingham rho  0.14900000    Ang       
                            Buckingham C     10.937044    eV*Ang^6  
--------------------------------------------------------------------------------
O3   s O3   s Buckingham    Buckingham A     22764.000    eV        0.000 16.000
                            Buckingham rho  0.14900000    Ang       
                            Buckingham C     10.937044    eV*Ang^6  
--------------------------------------------------------------------------------
O1   c O1   s Spring (c-s)  Spring k 2       180.31577    eV*Ang^-2 0.000  0.800
                            Spring k 4       0.0000000    eV*Ang^-4 
--------------------------------------------------------------------------------
O2   c O2   s Spring (c-s)  Spring k 2       75.969800    eV*Ang^-2 0.000  0.800
                            Spring k 4       0.0000000    eV*Ang^-4 
--------------------------------------------------------------------------------
O3   c O3   s Spring (c-s)  Spring k 2       128.14270    eV*Ang^-2 0.000  0.800
                            Spring k 4       0.0000000    eV*Ang^-4 
--------------------------------------------------------------------------------

  General Three-body potentials :

--------------------------------------------------------------------------------
  Atoms       Potential      Parameter       Value         Units   Cutoffs(Ang)
  1 / 2 / 3                                                          Min /  Max 
--------------------------------------------------------------------------------
Si    core    Harmonic      Three-body cnst  1.2614000    eV*rad^-2 0.000  1.900
O1    shel                  Three-body angl  109.47000    degrees   0.000  1.900
O1    shel                  Three-body k4    0.0000000    eV*rad^-4 0.000  3.500
                            Three-body k3    0.0000000    eV*rad^-3 
--------------------------------------------------------------------------------
Si    core    Harmonic      Three-body cnst  1.2614000    eV*rad^-2 0.000  1.900
O1    shel                  Three-body angl  109.47000    degrees   0.000  1.900
õ(1   shel                  Three-body k4    0.0000000    eV*rad^-4 0.000  3.500
                            Three-body k3    0.0000000    eV*rad^-3 
--------------------------------------------------------------------------------
Si    core    Harmonic      Three-body cnst  1.2614000    eV*rad^-2 0.000  1.900
õ(1   shel                  Three-body angl  109.47000    degrees   0.000  1.900
õ(1   shel                  Three-body k4    0.0000000    eV*rad^-4 0.000  3.500
                            Three-body k3    0.0000000    eV*rad^-3 
--------------------------------------------------------------------------------
Si    core    Harmonic      Three-body cnst  1.2614000    eV*rad^-2 0.000  1.900
O1    shel                  Three-body angl  109.47000    degrees   0.000  1.900
O2    shel                  Three-body k4    0.0000000    eV*rad^-4 0.000  3.500
                            Three-body k3    0.0000000    eV*rad^-3 
--------------------------------------------------------------------------------
Si    core    Harmonic      Three-body cnst  1.2614000    eV*rad^-2 0.000  1.900
O1    shel                  Three-body angl  109.47000    degrees   0.000  1.900
õ(2   shel                  Three-body k4    0.0000000    eV*rad^-4 0.000  3.500
                            Three-body k3    0.0000000    eV*rad^-3 
--------------------------------------------------------------------------------
Si    core    Harmonic      Three-body cnst  1.2614000    eV*rad^-2 0.000  1.900
O2    shel                  Three-body angl  109.47000    degrees   0.000  1.900
õ(1   shel                  Three-body k4    0.0000000    eV*rad^-4 0.000  3.500
                            Three-body k3    0.0000000    eV*rad^-3 
--------------------------------------------------------------------------------
Si    core    Harmonic      Three-body cnst  1.2614000    eV*rad^-2 0.000  1.900
õ(1   shel                  Three-body angl  109.47000    degrees   0.000  1.900
õ(2   shel                  Three-body k4    0.0000000    eV*rad^-4 0.000  3.500
                            Three-body k3    0.0000000    eV*rad^-3 
--------------------------------------------------------------------------------
Si    core    Harmonic      Three-body cnst  1.2614000    eV*rad^-2 0.000  1.900
O2    shel                  Three-body angl  109.47000    degrees   0.000  1.900
O2    shel                  Three-body k4    0.0000000    eV*rad^-4 0.000  3.500
                            Three-body k3    0.0000000    eV*rad^-3 
--------------------------------------------------------------------------------
Si    core    Harmonic      Three-body cnst  1.2614000    eV*rad^-2 0.000  1.900
O2    shel                  Three-body angl  109.47000    degrees   0.000  1.900
õ(2   shel                  Three-body k4    0.0000000    eV*rad^-4 0.000  3.500
                            Three-body k3    0.0000000    eV*rad^-3 
--------------------------------------------------------------------------------
Si    core    Harmonic      Three-body cnst  1.2614000    eV*rad^-2 0.000  1.900
õ(2   shel                  Three-body angl  109.47000    degrees   0.000  1.900
õ(2   shel                  Three-body k4    0.0000000    eV*rad^-4 0.000  3.500
                            Three-body k3    0.0000000    eV*rad^-3 
--------------------------------------------------------------------------------

********************************************************************************
*  Output for configuration   1 : c00018.vasp                                  *
********************************************************************************


  Components of energy : 

--------------------------------------------------------------------------------
  Interatomic potentials     =         448.41689815 eV    
  Three-body potentials      =           0.00000000 eV    
  Monopole - monopole (real) =       -1236.99964305 eV    
  Monopole - monopole (recip)=        -659.26603192 eV    
  Monopole - monopole (total)=       -1896.26567496 eV    
--------------------------------------------------------------------------------
  Total lattice energy       =       -1447.84877681 eV    
--------------------------------------------------------------------------------
  Total lattice energy       =         -139695.2746 kJ/(mole unit cells)
--------------------------------------------------------------------------------


  Number of variables =      183

  Maximum number of calculations  =          1000
  Maximum Hessian update interval =            10
  Maximum step size               =   0.100000000
  Maximum parameter tolerance     =   0.000010000
  Maximum function  tolerance     =   0.000010000
  Maximum gradient  tolerance     =   0.001000000
  Maximum gradient  component     =   0.010000000

  Symmetry not applied to optimisation

  Cell parameters to be optimised using strains

  Newton-Raphson optimiser to be used

  BFGS hessian update to be used

  Lower half triangular hessian to be used

  Minimiser to switch to RFO
  When gradient norm is less than     0.050000

  Dumpfile to be written after every cycle

  Start of bulk optimisation :

  Cycle:      0 Energy:     -1447.848777  Gnorm:      6.631145  CPU:    0.038
  ** Hessian calculated **
  Cycle:      1 Energy:     -1468.756768  Gnorm:      1.824610  CPU:    0.083
  ** Hessian calculated **
  Cycle:      2 Energy:     -1471.419028  Gnorm:      0.907201  CPU:    0.155
  Cycle:      3 Energy:     -1472.114298  Gnorm:      0.416783  CPU:    0.195
  Cycle:      4 Energy:     -1472.403465  Gnorm:      0.344940  CPU:    0.241
  Cycle:      5 Energy:     -1472.766734  Gnorm:      0.288555  CPU:    0.289
  Cycle:      6 Energy:     -1473.134444  Gnorm:      0.281608  CPU:    0.338
  Cycle:      7 Energy:     -1473.280020  Gnorm:      0.202388  CPU:    0.379
  Cycle:      8 Energy:     -1473.337065  Gnorm:      0.129848  CPU:    0.421
  Cycle:      9 Energy:     -1473.367772  Gnorm:      0.112631  CPU:    0.462
  Cycle:     10 Energy:     -1473.393854  Gnorm:      0.096085  CPU:    0.504
  Cycle:     11 Energy:     -1473.422462  Gnorm:      0.097405  CPU:    0.553
  ** Hessian calculated **
  Cycle:     12 Energy:     -1473.437358  Gnorm:      0.095092  CPU:    0.628
  Cycle:     13 Energy:     -1473.461733  Gnorm:      0.091126  CPU:    0.686
  Cycle:     14 Energy:     -1473.491051  Gnorm:      0.085944  CPU:    0.736
  Cycle:     15 Energy:     -1473.534599  Gnorm:      0.077217  CPU:    0.794
  Cycle:     16 Energy:     -1473.575677  Gnorm:      0.067286  CPU:    0.844
  Cycle:     17 Energy:     -1473.604576  Gnorm:      0.058706  CPU:    0.894
  ** Hessian calculated **
  Cycle:     18 Energy:     -1473.668724  Gnorm:      0.050018  CPU:    0.970
  Cycle:     19 Energy:     -1473.700269  Gnorm:      0.025952  CPU:    1.014
  ** Hessian has wrong structure
  ** Imaginary eigenvectors =   2
  Cycle:     20 Energy:     -1473.717268  Gnorm:      0.061389  CPU:    1.123
  ** Hessian has wrong structure
  ** Imaginary eigenvectors =   2
  ** Hessian has wrong structure
  ** Imaginary eigenvectors =   1
  Cycle:     21 Energy:     -1473.785962  Gnorm:      0.085301  CPU:    1.294
  ** Hessian has required structure
  ** Hessian has required structure
  Cycle:     22 Energy:     -1473.889522  Gnorm:      0.060212  CPU:    1.385
  ** Hessian has required structure
  Cycle:     23 Energy:     -1473.944058  Gnorm:      0.058574  CPU:    1.442
  ** Hessian has required structure
  Cycle:     24 Energy:     -1473.973223  Gnorm:      0.030860  CPU:    1.490
  ** Hessian has required structure
  Cycle:     25 Energy:     -1473.993909  Gnorm:      0.035234  CPU:    1.546
  ** Hessian has required structure
  Cycle:     26 Energy:     -1474.004669  Gnorm:      0.050285  CPU:    1.595
  ** Hessian has required structure
  Cycle:     27 Energy:     -1474.009255  Gnorm:      0.037731  CPU:    1.643
  ** Hessian has required structure
  Cycle:     28 Energy:     -1474.013625  Gnorm:      0.021509  CPU:    1.694
  ** Hessian has required structure
  Cycle:     29 Energy:     -1474.014960  Gnorm:      0.016011  CPU:    1.744
  ** Hessian has required structure
  Cycle:     30 Energy:     -1474.015976  Gnorm:      0.008340  CPU:    1.807
  ** Hessian has required structure
  Cycle:     31 Energy:     -1474.016389  Gnorm:      0.004643  CPU:    1.863
  ** Hessian has required structure
  Cycle:     32 Energy:     -1474.016827  Gnorm:      0.002777  CPU:    1.955
  ** Hessian has required structure
  Cycle:     33 Energy:     -1474.017011  Gnorm:      0.001464  CPU:    2.019
  ** Hessian has required structure
  Cycle:     34 Energy:     -1474.017059  Gnorm:      0.000763  CPU:    2.082
  ** Hessian has required structure
  Cycle:     35 Energy:     -1474.017071  Gnorm:      0.000317  CPU:    2.154
  ** Hessian has required structure
  Cycle:     36 Energy:     -1474.011275  Gnorm:      0.047130  CPU:    2.226
  ** Hessian has required structure
  Cycle:     37 Energy:     -1474.013554  Gnorm:      0.036726  CPU:    2.319
  ** Hessian has required structure
  Cycle:     38 Energy:     -1474.015815  Gnorm:      0.021965  CPU:    2.382
  ** Hessian has required structure
  Cycle:     39 Energy:     -1474.016763  Gnorm:      0.010975  CPU:    2.445
  ** Hessian has required structure
  Cycle:     40 Energy:     -1474.016997  Gnorm:      0.005485  CPU:    2.509
  ** Hessian has required structure
  Cycle:     41 Energy:     -1474.017056  Gnorm:      0.002742  CPU:    2.572
  ** Hessian has required structure
  Cycle:     42 Energy:     -1474.017070  Gnorm:      0.001371  CPU:    2.635
  ** Hessian has required structure
  Cycle:     43 Energy:     -1474.017073  Gnorm:      0.000959  CPU:    2.682
  ** Hessian has required structure
  Cycle:     44 Energy:     -1474.017074  Gnorm:      0.000672  CPU:    2.728
  ** Hessian has required structure
  Cycle:     45 Energy:     -1474.017075  Gnorm:      0.000470  CPU:    2.774
  ** Hessian has required structure
  Cycle:     46 Energy:     -1474.017075  Gnorm:      0.000329  CPU:    2.820
  ** Hessian has required structure


  **** Optimisation achieved ****


  Final energy =   -1474.01707507 eV      
  Final Gnorm  =       0.00023036

  Components of energy : 

--------------------------------------------------------------------------------
  Interatomic potentials     =         389.08725842 eV    
  Three-body potentials      =           0.00000000 eV    
  Monopole - monopole (real) =        -581.07184530 eV    
  Monopole - monopole (recip)=       -1282.03248819 eV    
  Monopole - monopole (total)=       -1863.10433349 eV    
--------------------------------------------------------------------------------
  Total lattice energy       =       -1474.01707507 eV    
--------------------------------------------------------------------------------
  Total lattice energy       =         -142220.1153 kJ/(mole unit cells)
--------------------------------------------------------------------------------

  Final fractional coordinates of atoms :

--------------------------------------------------------------------------------
   No.  Atomic        x           y          z          Radius
        Label       (Frac)      (Frac)     (Frac)       (Angs) 
--------------------------------------------------------------------------------
     1  Ge    c     0.313820    0.296860    0.309830    0.000000
     2  Ge    c     0.677582    0.214871    0.708508    0.000000
     3  Ge    c     0.737719    0.613345    0.726754    0.000000
     4  Ge    c     0.313662    0.293363    0.623417    0.000000
     5  Ge    c     0.717227    0.617903    0.408541    0.000000
     6  Ge    c     0.373317    0.693743    0.636880    0.000000
     7  Ge    c     0.907949    0.935029    0.396284    0.000000
     8  Ge    c     0.133585    0.983838    0.696745    0.000000
     9  Ge    c     0.120900    0.980565    0.197762    0.000000
    10  Ge    c     0.924340    0.920969    0.887956    0.000000
    11  Si    c     0.357840    0.687445    0.325625    0.000000
    12  Si    c     0.673134    0.228975    0.399197    0.000000
    13  O1    c     0.249186    0.299416    0.449187    0.000000
    14  O3    c     0.735414    0.219859    0.562767    0.000000
    15  O1    c     0.792355    0.608983    0.581308    0.000000
    16  O3    c     0.303039    0.698003    0.460615    0.000000
    17  O3    c     0.323641    0.502845    0.257366    0.000000
    18  O1    c     0.718088    0.411517    0.780255    0.000000
    19  O3    c     0.494244    0.200056    0.355655    0.000000
    20  O1    c     0.487183    0.184453    0.670457    0.000000
    21  O1    c     0.564217    0.722208    0.689756    0.000000
    22  O3    c     0.537126    0.714537    0.370700    0.000000
    23  O1    c     0.196801    0.175444    0.188980    0.000000
    24  O1    c     0.771799    0.055685    0.814355    0.000000
    25  O1    c     0.872016    0.716346    0.848577    0.000000
    26  O3    c     0.266419    0.826992    0.217203    0.000000
    27  O1    c     0.335704    0.494920    0.686459    0.000000
    28  O3    c     0.703250    0.414221    0.346253    0.000000
    29  O1    c     0.183873    0.188812    0.679655    0.000000
    30  O3    c     0.762744    0.089068    0.338098    0.000000
    31  O1    c     0.829076    0.741803    0.344678    0.000000
    32  O1    c     0.286187    0.848827    0.704506    0.000000
    33  O1    c     0.974497    0.930292    0.570624    0.000000
    34  O1    c     0.058380    0.975855    0.339710    0.000000
    35  O1    c     0.083610    0.970387    0.844333    0.000000
    36  O1    c     0.970297    0.942956    0.061524    0.000000
    37  O1    s     0.258892    0.298762    0.451521    0.000000
    38  O3    s     0.725242    0.220295    0.558702    0.000000
    39  O1    s     0.782593    0.609988    0.579072    0.000000
    40  O3    s     0.313358    0.696742    0.461424    0.000000
    41  O3    s     0.325997    0.503347    0.267831    0.000000
    42  O1    s     0.716626    0.412270    0.771058    0.000000
    43  O3    s     0.497779    0.210430    0.356397    0.000000
    44  O1    s     0.489044    0.194792    0.669913    0.000000
    45  O1    s     0.562138    0.712038    0.688366    0.000000
    46  O3    s     0.533582    0.704355    0.369261    0.000000
    47  O1    s     0.200116    0.170513    0.198733    0.000000
    48  O1    s     0.775974    0.058217    0.811429    0.000000
    49  O1    s     0.865774    0.723916    0.842298    0.000000
    50  O3    s     0.264331    0.824855    0.226509    0.000000
    51  O1    s     0.336765    0.494249    0.678128    0.000000
    52  O3    s     0.701605    0.413418    0.356035    0.000000
    53  O1    s     0.190046    0.181579    0.676624    0.000000
    54  O3    s     0.764894    0.091317    0.348663    0.000000
    55  O1    s     0.826292    0.746199    0.353171    0.000000
    56  O1    s     0.281406    0.846767    0.698471    0.000000
    57  O1    s     0.981355    0.934598    0.567247    0.000000
    58  O1    s     0.051008    0.972969    0.333825    0.000000
    59  O1    s     0.075400    0.967676    0.836765    0.000000
    60  O1    s     0.978933    0.944338    0.059665    0.000000
--------------------------------------------------------------------------------

  Final Cartesian lattice vectors (Angstroms) :

        9.207386    0.168648    0.140293
        0.140195    7.874723    0.055940
       -3.184656    0.012395    9.807002


  Final cell parameters and derivatives :

--------------------------------------------------------------------------------
       a            9.209999 Angstrom     dE/de1(xx)    -0.003597 eV/strain
       b            7.876169 Angstrom     dE/de2(yy)    -0.004773 eV/strain
       c           10.311134 Angstrom     dE/de3(zz)     0.009782 eV/strain
       alpha       89.859080 Degrees      dE/de4(yz)     0.000636 eV/strain
       beta       107.113077 Degrees      dE/de5(xz)    -0.007438 eV/strain
       gamma       87.924807 Degrees      dE/de6(xy)     0.004258 eV/strain
--------------------------------------------------------------------------------

  Primitive cell volume =           714.312910 Angs**3

  Density of cell =      2.711255 g/cm**3

  Non-primitive cell volume =           714.312910 Angs**3


  Final internal derivatives :

--------------------------------------------------------------------------------
   No.  Atomic          a             b             c           Radius
        Label          (eV)          (eV)          (eV)        (eV/Angs)
--------------------------------------------------------------------------------
      1 Ge    c       0.000000      0.000000      0.000000      0.000000
      2 Ge    c      -0.003665     -0.001182      0.006751      0.000000
      3 Ge    c      -0.006053      0.000805      0.006422      0.000000
      4 Ge    c       0.004788      0.000569      0.003511      0.000000
      5 Ge    c      -0.004389     -0.000865     -0.002912      0.000000
      6 Ge    c       0.001737      0.000745      0.004123      0.000000
      7 Ge    c      -0.005519      0.001849     -0.000026      0.000000
      8 Ge    c       0.005478     -0.001560     -0.007181      0.000000
      9 Ge    c       0.006188     -0.002026     -0.004614      0.000000
     10 Ge    c      -0.005210      0.000809     -0.003458      0.000000
     11 Si    c       0.003169      0.001142     -0.006570      0.000000
     12 Si    c      -0.000710     -0.001112     -0.004542      0.000000
     13 O1    c      -0.006634      0.000366      0.003646      0.000000
     14 O3    c       0.004730      0.000203     -0.002449      0.000000
     15 O1    c       0.006557     -0.000469     -0.004865      0.000000
     16 O3    c      -0.005059      0.000188      0.003934      0.000000
     17 O3    c      -0.000694      0.000167      0.001705      0.000000
     18 O1    c       0.000662     -0.000702     -0.001889      0.000000
     19 O3    c      -0.001513      0.002450      0.000036      0.000000
     20 O1    c      -0.002518      0.003548     -0.000850      0.000000
     21 O1    c       0.002137     -0.003540     -0.000899      0.000000
     22 O3    c       0.001181     -0.002260     -0.000193      0.000000
     23 O1    c      -0.000989      0.000075      0.001232      0.000000
     24 O1    c       0.004442     -0.001398     -0.000953      0.000000
     25 O1    c       0.000704      0.000776     -0.000539      0.000000
     26 O3    c      -0.003526      0.001442      0.003587      0.000000
     27 O1    c      -0.000264     -0.001409     -0.001463      0.000000
     28 O3    c       0.000163      0.001270      0.001155      0.000000
     29 O1    c      -0.004215     -0.002227      0.002399      0.000000
     30 O3    c       0.002977     -0.002756      0.002378      0.000000
     31 O1    c       0.004111      0.003106     -0.001627      0.000000
     32 O1    c      -0.004497      0.002522      0.000502      0.000000
     33 O1    c       0.002273      0.000550      0.007159      0.000000
     34 O1    c      -0.002224      0.000298      0.008200      0.000000
     35 O1    c      -0.003159     -0.000044      0.009472      0.000000
     36 O1    c       0.000892      0.001254      0.009171      0.000000
     37 O1    s       0.004612     -0.000734     -0.001901      0.000000
     38 O3    s      -0.002964     -0.000393      0.001249      0.000000
     39 O1    s      -0.004641      0.000739      0.002726      0.000000
     40 O3    s       0.002767      0.000156     -0.001673      0.000000
     41 O3    s       0.001712     -0.000292     -0.002999      0.000000
     42 O1    s      -0.001610      0.000800      0.003360      0.000000
     43 O3    s       0.000715     -0.000915     -0.000134      0.000000
     44 O1    s       0.000831     -0.001606      0.001245      0.000000
     45 O1    s      -0.001184      0.001727      0.001083      0.000000
     46 O3    s      -0.000127      0.000588     -0.000291      0.000000
     47 O1    s       0.002009     -0.000471     -0.002799      0.000000
     48 O1    s      -0.002737      0.000491      0.001402      0.000000
     49 O1    s      -0.001457      0.000237      0.001014      0.000000
     50 O3    s       0.002691     -0.000601     -0.004061      0.000000
     51 O1    s       0.000355      0.000354      0.002467      0.000000
     52 O3    s      -0.000226     -0.000264     -0.002277      0.000000
     53 O1    s       0.003082      0.000668     -0.000653      0.000000
     54 O3    s      -0.001066      0.001133     -0.003139      0.000000
     55 O1    s      -0.002541     -0.001311     -0.001070      0.000000
     56 O1    s       0.002203     -0.001110      0.000280      0.000000
     57 O1    s      -0.002287     -0.000399     -0.002902      0.000000
     58 O1    s       0.001285      0.000021     -0.005146      0.000000
     59 O1    s       0.002119      0.000045     -0.005329      0.000000
     60 O1    s      -0.001028     -0.001089     -0.004749      0.000000
--------------------------------------------------------------------------------
  Maximum abs         0.006634      0.003548      0.009472      0.000000
--------------------------------------------------------------------------------


  Born effective charge tensors : 

-------------------------------------------------------------------------------
  Atom             x           y             z
-------------------------------------------------------------------------------
    1 Ge    x       3.7917      0.1073      0.2728
            y       0.4175      4.1334      0.2969
            z       0.1022      0.2801      3.5845
-------------------------------------------------------------------------------
    2 Ge    x       3.8507     -0.1517      0.3686
            y      -0.1574      4.2304     -0.1592
            z       0.1102     -0.3178      3.6254
-------------------------------------------------------------------------------
    3 Ge    x       3.8304      0.0234      0.2958
            y       0.4051      4.1784      0.2305
            z       0.1745      0.2086      3.7426
-------------------------------------------------------------------------------
    4 Ge    x       4.1120      0.1390     -0.1369
            y       0.4531      4.1768      0.0373
            z       0.0229     -0.1354      3.4199
-------------------------------------------------------------------------------
    5 Ge    x       3.9788      0.2541     -0.0906
            y       0.4994      4.1307     -0.0007
            z       0.1248     -0.1598      3.3300
-------------------------------------------------------------------------------
    6 Ge    x       4.0561     -0.2809     -0.1820
            y      -0.2134      4.2122      0.0730
            z       0.1220      0.1610      3.3857
-------------------------------------------------------------------------------
    7 Ge    x       4.4495      0.2622      0.2818
            y      -0.0536      3.9664      0.0349
            z      -0.4408     -0.0529      3.5030
-------------------------------------------------------------------------------
    8 Ge    x       4.4761      0.2500     -0.2590
            y      -0.1394      3.9453     -0.0995
            z      -0.1828      0.0380      3.7941
-------------------------------------------------------------------------------
    9 Ge    x       3.9618      0.2058     -0.2116
            y      -0.0173      3.9570     -0.0250
            z       0.6575      0.2149      4.4135
-------------------------------------------------------------------------------
   10 Ge    x       3.9656      0.2617      0.3163
            y      -0.1353      3.9309     -0.0299
            z       0.0185      0.1255      4.7012
-------------------------------------------------------------------------------
   11 Si    x       3.5961     -0.2155      0.3686
            y      -0.2327      3.8900     -0.1263
            z       0.1139     -0.2179      3.3924
-------------------------------------------------------------------------------
   12 Si    x       3.7978     -0.2936     -0.1182
            y      -0.2680      3.8857     -0.0294
            z       0.1372      0.0591      3.1216
-------------------------------------------------------------------------------
   13 O1    x      -1.6421     -0.0480      0.4357
            y      -0.1227     -1.4272      0.0075
            z       0.3986     -0.0064     -2.5518
-------------------------------------------------------------------------------
   14 O3    x      -1.4654      0.0780      0.2619
            y       0.0810     -1.3578      0.0637
            z       0.3102      0.0714     -2.4740
-------------------------------------------------------------------------------
   15 O1    x      -1.5725     -0.0448      0.3052
            y      -0.0981     -1.4312     -0.0550
            z       0.3158     -0.0007     -2.6113
-------------------------------------------------------------------------------
   16 O3    x      -1.5427      0.1041      0.4269
            y       0.1068     -1.3541      0.0006
            z       0.3696     -0.0040     -2.4144
-------------------------------------------------------------------------------
   17 O3    x      -1.2426     -0.1053     -0.0862
            y      -0.2030     -2.9693     -0.1859
            z      -0.0442     -0.1432     -1.3342
-------------------------------------------------------------------------------
   18 O1    x      -1.3253     -0.2019     -0.0606
            y      -0.3205     -3.1399     -0.1156
            z      -0.0189     -0.1102     -1.4501
-------------------------------------------------------------------------------
   19 O3    x      -2.7920      0.1696     -0.4930
            y       0.0898     -1.4369      0.0222
            z      -0.5165      0.0125     -1.2766
-------------------------------------------------------------------------------
   20 O1    x      -2.9453      0.2334     -0.4640
            y       0.1762     -1.5535      0.0839
            z      -0.4590      0.1320     -1.3408
-------------------------------------------------------------------------------
   21 O1    x      -2.8989      0.2743     -0.5215
            y       0.1977     -1.5496      0.0241
            z      -0.5264      0.0174     -1.3887
-------------------------------------------------------------------------------
   22 O3    x      -2.8142      0.1593     -0.4906
            y       0.0996     -1.4375      0.0264
            z      -0.4676      0.0794     -1.2586
-------------------------------------------------------------------------------
   23 O1    x      -1.7324     -0.7732     -0.3637
            y      -0.7607     -2.6252     -0.5383
            z      -0.4422     -0.5948     -1.8149
-------------------------------------------------------------------------------
   24 O1    x      -1.8512      0.7086     -0.6113
            y       0.7460     -2.3668      0.8125
            z      -0.5561      0.8247     -2.0168
-------------------------------------------------------------------------------
   25 O1    x      -1.6375     -0.6324     -0.5256
            y      -0.5875     -2.5336     -0.7278
            z      -0.4757     -0.7488     -1.9800
-------------------------------------------------------------------------------
   26 O3    x      -1.7328      0.6963     -0.4020
            y       0.7523     -2.2624      0.6559
            z      -0.4693      0.6638     -1.7600
-------------------------------------------------------------------------------
   27 O1    x      -1.4284     -0.2333      0.0892
            y      -0.3236     -3.1532     -0.1007
            z       0.0397     -0.0356     -1.3262
-------------------------------------------------------------------------------
   28 O3    x      -1.3541     -0.1696      0.0847
            y      -0.2632     -2.9506      0.0224
            z       0.0362      0.0484     -1.2174
-------------------------------------------------------------------------------
   29 O1    x      -2.2701     -0.9460      0.3368
            y      -0.8856     -2.5397      0.2950
            z       0.2765      0.2631     -1.3139
-------------------------------------------------------------------------------
   30 O3    x      -2.1702      0.9570      0.0921
            y       0.9868     -2.2659     -0.0948
            z       0.1573     -0.1406     -1.2610
-------------------------------------------------------------------------------
   31 O1    x      -2.1785     -0.9709      0.1084
            y      -0.9209     -2.6257     -0.0062
            z       0.1603      0.0294     -1.3202
-------------------------------------------------------------------------------
   32 O1    x      -2.4678      1.0382      0.3101
            y       1.0526     -2.3390     -0.2644
            z       0.2409     -0.2724     -1.3646
-------------------------------------------------------------------------------
   33 O1    x      -1.8700     -0.1779     -0.6147
            y      -0.0682     -1.3684     -0.1457
            z      -0.3957     -0.1590     -2.5934
-------------------------------------------------------------------------------
   34 O1    x      -2.7973     -0.2337      0.8812
            y      -0.0834     -1.3410      0.0632
            z       0.8610      0.0958     -2.0376
-------------------------------------------------------------------------------
   35 O1    x      -2.5912     -0.3142      0.8185
            y      -0.1778     -1.3112      0.1374
            z       0.8415      0.1396     -2.2488
-------------------------------------------------------------------------------
   36 O1    x      -1.5441     -0.1291     -0.4229
            y      -0.0315     -1.2974     -0.1829
            z      -0.5964     -0.3653     -3.6587
-------------------------------------------------------------------------------




  Elastic Constant Matrix: (Units=GPa)

-------------------------------------------------------------------------------
  Indices      1         2         3         4         5         6    
-------------------------------------------------------------------------------
       1     26.5516   12.0971    3.5333    0.7368   -0.1653    7.3777
       2     12.0971   41.4503    8.1807    2.6672    2.9922   10.8176
       3      3.5333    8.1807   21.6663    4.9995    8.0050    3.8138
       4      0.7368    2.6672    4.9995    9.8958    2.3868    4.0232
       5     -0.1653    2.9922    8.0050    2.3868    9.3170    2.2548
       6      7.3777   10.8176    3.8138    4.0232    2.2548   19.8240
-------------------------------------------------------------------------------


  Elastic Compliance Matrix: (Units=1/GPa)

-------------------------------------------------------------------------------
  Indices      1         2         3         4         5         6    
-------------------------------------------------------------------------------
       1    0.046725 -0.010039 -0.007203  0.005230  0.012037 -0.012956
       2   -0.010039  0.031854 -0.008335  0.001524 -0.000667 -0.012276
       3   -0.007203 -0.008335  0.076768 -0.023506 -0.058322  0.003864
       4    0.005230  0.001524 -0.023506  0.122759 -0.006212 -0.022463
       5    0.012037 -0.000667 -0.058322 -0.006212  0.161890 -0.010049
       6   -0.012956 -0.012276  0.003864 -0.022463 -0.010049  0.066922
-------------------------------------------------------------------------------

  Mechanical properties :

-------------------------------------------------------------------------------
  Convention :                    Reuss         Voigt         Hill
-------------------------------------------------------------------------------
  Bulk  Modulus (GPa)     =       9.59751      15.25448      12.42599
  Shear Modulus (GPa)     =       8.43450      12.19784      10.31617
-------------------------------------------------------------------------------
  Velocity S-wave (km/s)  =       1.76378       2.12108       1.95063
  Velocity P-wave (km/s)  =       2.77268       3.40954       3.10747
-------------------------------------------------------------------------------
  Compressibility (1/GPa) =    0.10419369
-------------------------------------------------------------------------------
  Stress axis :                     x             y             z
-------------------------------------------------------------------------------
  Youngs Moduli (GPa)     =      21.40199      31.39339      13.02623
-------------------------------------------------------------------------------
  Poissons Ratio (x)      =                     0.31516       0.09382
  Poissons Ratio (y)      =       0.21486                     0.10857
  Poissons Ratio (z)      =       0.15415       0.26165
-------------------------------------------------------------------------------


  Piezoelectric Strain Matrix: (Units=C/m**2)

-------------------------------------------------------------------------------
  Indices      1         2         3         4         5         6    
-------------------------------------------------------------------------------
       x     0.21173  -0.11774  -0.41057   0.25368  -0.34465  -0.03835
       y    -0.03110  -0.23076  -0.33824  -0.39042  -0.31003  -0.05415
       z     0.62516   0.34921   0.08282   0.15408  -0.86535   0.12713
-------------------------------------------------------------------------------


  Piezoelectric Stress Matrix: (Units=10**-11 C/N)

-------------------------------------------------------------------------------
  Indices      1         2         3         4         5         6    
-------------------------------------------------------------------------------
       x     1.17075  -0.13671  -1.80729   4.47233  -3.04135  -0.76859
       y    -0.17724  -0.39430   0.32310  -3.73490  -2.77156   1.01905
       z     1.38508   0.34083   4.62835   2.32904 -13.98654   0.16762
-------------------------------------------------------------------------------


  Static dielectric constant tensor : 

-------------------------------------------------------------------------------
              x         y         z
-------------------------------------------------------------------------------
       x     5.16189   0.07840   0.14903
       y     0.07840   6.21866   0.05915
       z     0.14903   0.05915   4.41169
--------------------------------------------------------------------------------

  High frequency dielectric constant tensor : 

-------------------------------------------------------------------------------
              x         y         z
-------------------------------------------------------------------------------
       x     1.53953   0.00125   0.00882
       y     0.00125   1.54920   0.00067
       z     0.00882   0.00067   1.50164
-------------------------------------------------------------------------------

  Static refractive indices : 

-------------------------------------------------------------------------------
    1 =    2.09336      2 =    2.27660      3 =    2.49543
-------------------------------------------------------------------------------

  High frequency refractive indices : 

-------------------------------------------------------------------------------
    1 =    1.22462      2 =    1.24147      3 =    1.24476
-------------------------------------------------------------------------------


  Time to end of optimisation =       2.9554 seconds


  Peak dynamic memory used =       2.76 MB 


  Timing analysis for GULP :

--------------------------------------------------------------------------------
  Task / Subroutine                                          Time (Seconds)
--------------------------------------------------------------------------------
  Calculation of reciprocal space energy and derivatives          0.1949
  Calculation of real space energy and derivatives                2.4753
  Calculation of three-body energy and derivatives                0.0194
  Calculation and manipulation of Hessian matrix                  0.3481
  Calculation of matrix inversion                                 0.0036
  Global summation overhead                                       0.0001
--------------------------------------------------------------------------------
  Total CPU time                                                  2.9554
--------------------------------------------------------------------------------


  Dump file written as c00018.vasp.grs
  CIF file written as c00018.vasp.cif


  Job Finished at 11:01.36 11th October    2025                               

