|===============================================================================
|
|  DFTB+ release 24.1
|
|  Copyright (C) 2006 - 2024  DFTB+ developers group
|
|===============================================================================
|
|  When publishing results obtained with DFTB+, please cite the following
|  reference:
|
|  * DFTB+, a software package for efficient approximate density functional
|    theory based atomistic simulations, J. Chem. Phys. 152, 124101 (2020).
|    [doi: 10.1063/1.5143190]
|
|  You should also cite additional publications crediting the parametrization
|  data you use. Please consult the documentation of the SK-files for the
|  references.
|
|===============================================================================

Reading input file 'dftb_in.hsd'
Parser version: 14

--------------------------------------------------------------------------------
Reading SK-files:
./SKFiles/Ge-Ge.skf
./SKFiles/Ge-Si.skf
./SKFiles/Ge-O.skf
./SKFiles/Si-Si.skf
./SKFiles/Si-O.skf
./SKFiles/O-O.skf
Done.


Processed input in HSD format written to 'dftb_pin.hsd'

Starting initialization...
--------------------------------------------------------------------------------
WARNING!
-> Dipole printed for extended system : value printed is not well defined
MPI processes:               1
OpenMP threads:              8
BLACS orbital grid size:     1 x 1
BLACS atom grid size:        1 x 1
Chosen random seed:          147979274
Current stacksize:           unlimited
Mode:                        Static calculation
Self consistent charges:     Yes
SCC-tolerance:                 0.100000E-07
Max. scc iterations:                    500
Shell resolved Hubbard:      No
Spin polarisation:           No
Nr. of up electrons:           192.000000
Nr. of down electrons:         192.000000
Periodic boundaries:         Yes
Electronic solver:           Relatively robust
Mixer:                       Broyden mixer
Mixing parameter:                  0.200000
Maximal SCC-cycles:                     500
Nr. of chrg. vec. in memory:            500
Electronic temperature:              0.100000E-07 H      0.272114E-06 eV
Initial charges:             Set automatically (system chrg:   0.000E+00)
Included shells:            Ge:  s, p, d
                            Si:  s, p, d
                             O:  s, p
K-points and weights:           1:  0.500000  0.500000  0.500000     1.000000

K-points in absolute space:     1:  0.025319  0.017606  0.037774

Extra options:
                             Mulliken analysis
Force type                   original

--------------------------------------------------------------------------------

***  Geometry step: 0

 iSCC Total electronic   Diff electronic      SCC error    
    1    0.00000000E+00    0.00000000E+00    0.14596900E+01
    2   -0.19479948E+03   -0.19479948E+03    0.99392499E+00
    3   -0.19516633E+03   -0.36684354E+00    0.57582276E-01
    4   -0.19548227E+03   -0.31594312E+00    0.28342382E-01
    5   -0.19548438E+03   -0.21101375E-02    0.77415333E-02
    6   -0.19548453E+03   -0.15261399E-03    0.16699484E-02
    7   -0.19548454E+03   -0.48520266E-05    0.42411572E-03
    8   -0.19548454E+03   -0.12684391E-05    0.48027178E-04
    9   -0.19548454E+03   -0.73213783E-07    0.26929157E-04
   10   -0.19548454E+03   -0.70713213E-10    0.18017672E-05
   11   -0.19548454E+03   -0.16612489E-09    0.31283990E-06
   12   -0.19548454E+03   -0.38369308E-11    0.81785235E-07
   13   -0.19548454E+03    0.00000000E+00    0.24726655E-07
   14   -0.19548454E+03   -0.85265128E-13    0.16155344E-08

Total Energy:                     -191.8767305753 H        -5221.2315 eV
Extrapolated to 0K:               -191.8767305753 H        -5221.2315 eV
Total Mermin free energy:         -191.8767305753 H        -5221.2315 eV
Force related energy:             -191.8767305753 H        -5221.2315 eV

Volume:                              0.913789E+04 au^3   0.135410E+04 A^3
Pressure:                            0.714059E-03 au     0.210083E+11 Pa
>> Charges saved for restart in charges.bin

total energy  -1.9187673E+02 H       energy change -1.9187673E+02 H
gradient norm  7.1272778E-01 H/a0    max. gradient  2.9021629E-01 H/a0
step length    0.0000000E+00 a0      max. step      0.0000000E+00 a0

--------------------------------------------------------------------------------

***  Geometry step: 1

 iSCC Total electronic   Diff electronic      SCC error    
    1   -0.19548454E+03    0.00000000E+00    0.73368058E-01
    2   -0.19518281E+03    0.30173141E+00    0.35046088E-01
    3   -0.19518731E+03   -0.45001257E-02    0.10619556E-01
    4   -0.19518837E+03   -0.10613627E-02    0.11394689E-02
    5   -0.19518838E+03   -0.13407533E-04    0.27154446E-03
    6   -0.19518838E+03   -0.59216154E-06    0.62980474E-04
    7   -0.19518838E+03   -0.40624087E-07    0.15124926E-04
    8   -0.19518838E+03   -0.31024001E-08    0.14336375E-05
    9   -0.19518838E+03   -0.77761797E-10    0.33748554E-06
   10   -0.19518838E+03   -0.57127636E-11    0.14633271E-06
   11   -0.19518838E+03   -0.22737368E-12    0.45265154E-07
   12   -0.19518838E+03    0.28421709E-13    0.42806487E-08

Total Energy:                     -192.0321193451 H        -5225.4598 eV
Extrapolated to 0K:               -192.0321193451 H        -5225.4598 eV
Total Mermin free energy:         -192.0321193451 H        -5225.4598 eV
Force related energy:             -192.0321193451 H        -5225.4598 eV

Volume:                              0.937716E+04 au^3   0.138955E+04 A^3
Pressure:                            0.501488E-03 au     0.147543E+11 Pa
>> Charges saved for restart in charges.bin

total energy  -1.9203212E+02 H       energy change -1.5538877E-01 H
gradient norm  5.2497368E-01 H/a0    max. gradient  1.6824317E-01 H/a0
step length    5.2000355E-01 a0      max. step      2.1174073E-01 a0

--------------------------------------------------------------------------------

***  Geometry step: 2

 iSCC Total electronic   Diff electronic      SCC error    
    1   -0.19518838E+03    0.00000000E+00    0.59336019E-01
    2   -0.19507055E+03    0.11782854E+00    0.33880597E-01
    3   -0.19507268E+03   -0.21272443E-02    0.78901781E-02
    4   -0.19507321E+03   -0.52905839E-03    0.74309065E-03
    5   -0.19507322E+03   -0.65338450E-05    0.16763620E-03
    6   -0.19507322E+03   -0.37547744E-06    0.53403895E-04
    7   -0.19507322E+03   -0.80138136E-08    0.97533005E-05
    8   -0.19507322E+03   -0.11869190E-08    0.11125940E-05
    9   -0.19507322E+03   -0.49482196E-10    0.35796749E-06
   10   -0.19507322E+03   -0.17053026E-11    0.15497445E-06
   11   -0.19507322E+03   -0.17053026E-12    0.29107339E-07
   12   -0.19507322E+03    0.17053026E-12    0.26595872E-08

Total Energy:                     -192.1734789404 H        -5229.3064 eV
Extrapolated to 0K:               -192.1734789404 H        -5229.3064 eV
Total Mermin free energy:         -192.1734789404 H        -5229.3064 eV
Force related energy:             -192.1734789404 H        -5229.3064 eV

Volume:                              0.939689E+04 au^3   0.139248E+04 A^3
Pressure:                            0.404514E-03 au     0.119012E+11 Pa
>> Charges saved for restart in charges.bin

total energy  -1.9217348E+02 H       energy change -1.4135960E-01 H
gradient norm  2.8036406E-01 H/a0    max. gradient  5.4887248E-02 H/a0
step length    4.3879464E-01 a0      max. step      1.4922011E-01 a0

--------------------------------------------------------------------------------

***  Geometry step: 3

 iSCC Total electronic   Diff electronic      SCC error    
    1   -0.19507322E+03    0.00000000E+00    0.72652037E-01
    2   -0.19485192E+03    0.22130139E+00    0.43287293E-01
    3   -0.19485365E+03   -0.17392847E-02    0.76303743E-02
    4   -0.19485414E+03   -0.48881876E-03    0.78739987E-03
    5   -0.19485415E+03   -0.10716308E-04    0.20209391E-03
    6   -0.19485415E+03   -0.37904479E-06    0.90219549E-04
    7   -0.19485415E+03   -0.11105897E-07    0.11673385E-04
    8   -0.19485415E+03   -0.15778596E-08    0.16746369E-05
    9   -0.19485415E+03   -0.13122303E-09    0.61583769E-06
   10   -0.19485415E+03   -0.21884716E-11    0.18819871E-06
   11   -0.19485415E+03   -0.85265128E-13    0.32292712E-07
   12   -0.19485415E+03   -0.28421709E-13    0.47710218E-08

Total Energy:                     -192.2636280729 H        -5231.7595 eV
Extrapolated to 0K:               -192.2636280729 H        -5231.7595 eV
Total Mermin free energy:         -192.2636280729 H        -5231.7595 eV
Force related energy:             -192.2636280729 H        -5231.7595 eV

Volume:                              0.947863E+04 au^3   0.140459E+04 A^3
Pressure:                            0.280213E-03 au     0.824416E+10 Pa
>> Charges saved for restart in charges.bin

total energy  -1.9226363E+02 H       energy change -9.0149133E-02 H
gradient norm  2.0694910E-01 H/a0    max. gradient  1.0944674E-01 H/a0
step length    5.3973363E-01 a0      max. step      1.4857121E-01 a0

--------------------------------------------------------------------------------

***  Geometry step: 4

 iSCC Total electronic   Diff electronic      SCC error    
    1   -0.19485415E+03    0.00000000E+00    0.54643820E-01
    2   -0.19461867E+03    0.23548690E+00    0.30879322E-01
    3   -0.19461987E+03   -0.11996301E-02    0.50659851E-02
    4   -0.19462017E+03   -0.30571950E-03    0.61204502E-03
    5   -0.19462018E+03   -0.56033338E-05    0.20388902E-03
    6   -0.19462018E+03   -0.33557643E-06    0.10252303E-03
    7   -0.19462018E+03   -0.83589384E-08    0.87883930E-05
    8   -0.19462018E+03   -0.11384884E-08    0.19867975E-05
    9   -0.19462018E+03   -0.76312290E-10    0.51683154E-06
   10   -0.19462018E+03   -0.11368684E-11    0.10834581E-06
   11   -0.19462018E+03    0.00000000E+00    0.21477322E-07
   12   -0.19462018E+03   -0.28421709E-13    0.42024939E-08

Total Energy:                     -192.3052859375 H        -5232.8931 eV
Extrapolated to 0K:               -192.3052859375 H        -5232.8931 eV
Total Mermin free energy:         -192.3052859375 H        -5232.8931 eV
Force related energy:             -192.3052859375 H        -5232.8931 eV

Volume:                              0.958533E+04 au^3   0.142040E+04 A^3
Pressure:                            0.169285E-03 au     0.498054E+10 Pa
>> Charges saved for restart in charges.bin

total energy  -1.9230529E+02 H       energy change -4.1657865E-02 H
gradient norm  2.1818125E-01 H/a0    max. gradient  1.2749937E-01 H/a0
step length    4.8845826E-01 a0      max. step      1.0972880E-01 a0

--------------------------------------------------------------------------------

***  Geometry step: 5

 iSCC Total electronic   Diff electronic      SCC error    
    1   -0.19462018E+03    0.00000000E+00    0.24723951E-01
    2   -0.19446720E+03    0.15298176E+00    0.13633776E-01
    3   -0.19446759E+03   -0.39246389E-03    0.22200412E-02
    4   -0.19446769E+03   -0.99716803E-04    0.28612556E-03
    5   -0.19446769E+03   -0.14439725E-05    0.88016462E-04
    6   -0.19446769E+03   -0.69911351E-07    0.45071595E-04
    7   -0.19446769E+03   -0.14444481E-08    0.38188927E-05
    8   -0.19446769E+03   -0.25201530E-09    0.10451002E-05
    9   -0.19446769E+03   -0.13869794E-10    0.32058294E-06
   10   -0.19446769E+03   -0.31263880E-12    0.35424558E-07
   11   -0.19446769E+03   -0.28421709E-13    0.88124548E-08

Total Energy:                     -192.3284438385 H        -5233.5232 eV
Extrapolated to 0K:               -192.3284438385 H        -5233.5232 eV
Total Mermin free energy:         -192.3284438385 H        -5233.5232 eV
Force related energy:             -192.3284438385 H        -5233.5232 eV

Volume:                              0.966178E+04 au^3   0.143173E+04 A^3
Pressure:                            0.100637E-03 au     0.296084E+10 Pa
>> Charges saved for restart in charges.bin

total energy  -1.9232844E+02 H       energy change -2.3157901E-02 H
gradient norm  9.7772634E-02 H/a0    max. gradient  1.9524133E-02 H/a0
step length    3.1111772E-01 a0      max. step      6.0031301E-02 a0

--------------------------------------------------------------------------------

***  Geometry step: 6

 iSCC Total electronic   Diff electronic      SCC error    
    1   -0.19446769E+03    0.00000000E+00    0.25847841E-01
    2   -0.19439259E+03    0.75099175E-01    0.86305405E-02
    3   -0.19439288E+03   -0.28955086E-03    0.20830711E-02
    4   -0.19439294E+03   -0.62399792E-04    0.52644106E-03
    5   -0.19439294E+03   -0.10846944E-05    0.58208726E-04
    6   -0.19439295E+03   -0.13518948E-06    0.15265055E-04
    7   -0.19439295E+03   -0.28409772E-08    0.48012919E-05
    8   -0.19439295E+03   -0.21771029E-09    0.90027893E-06
    9   -0.19439295E+03   -0.91517904E-11    0.11349039E-06
   10   -0.19439295E+03   -0.59685590E-12    0.30966993E-07
   11   -0.19439295E+03    0.28421709E-13    0.11395314E-07
   12   -0.19439295E+03    0.00000000E+00    0.13087393E-08

Total Energy:                     -192.3404644915 H        -5233.8503 eV
Extrapolated to 0K:               -192.3404644915 H        -5233.8503 eV
Total Mermin free energy:         -192.3404644915 H        -5233.8503 eV
Force related energy:             -192.3404644915 H        -5233.8503 eV

Volume:                              0.968552E+04 au^3   0.143525E+04 A^3
Pressure:                            0.649119E-04 au     0.190977E+10 Pa
>> Charges saved for restart in charges.bin

total energy  -1.9234046E+02 H       energy change -1.2020653E-02 H
gradient norm  9.1197650E-02 H/a0    max. gradient  3.3680731E-02 H/a0
step length    2.6628233E-01 a0      max. step      5.6023462E-02 a0

--------------------------------------------------------------------------------

***  Geometry step: 7

 iSCC Total electronic   Diff electronic      SCC error    
    1   -0.19439295E+03    0.00000000E+00    0.12984500E-01
    2   -0.19433413E+03    0.58819488E-01    0.75917143E-02
    3   -0.19433431E+03   -0.18159960E-03    0.18671113E-02
    4   -0.19433435E+03   -0.40867245E-04    0.33206095E-03
    5   -0.19433435E+03   -0.76012628E-06    0.84711931E-04
    6   -0.19433435E+03   -0.60938419E-07    0.25730688E-04
    7   -0.19433435E+03   -0.18806645E-08    0.49414515E-05
    8   -0.19433435E+03   -0.78728135E-10    0.77202255E-06
    9   -0.19433435E+03   -0.12988721E-10    0.17570337E-06
   10   -0.19433435E+03   -0.59685590E-12    0.22356620E-07
   11   -0.19433435E+03    0.00000000E+00    0.34476901E-08

Total Energy:                     -192.3491672609 H        -5234.0871 eV
Extrapolated to 0K:               -192.3491672609 H        -5234.0871 eV
Total Mermin free energy:         -192.3491672609 H        -5234.0871 eV
Force related energy:             -192.3491672609 H        -5234.0871 eV

Volume:                              0.972269E+04 au^3   0.144075E+04 A^3
Pressure:                            0.378792E-04 au     0.111444E+10 Pa
>> Charges saved for restart in charges.bin

total energy  -1.9234917E+02 H       energy change -8.7027694E-03 H
gradient norm  6.7897724E-02 H/a0    max. gradient  2.2576195E-02 H/a0
step length    2.3459290E-01 a0      max. step      5.3681377E-02 a0

--------------------------------------------------------------------------------

***  Geometry step: 8

 iSCC Total electronic   Diff electronic      SCC error    
    1   -0.19433435E+03    0.00000000E+00    0.19912905E-01
    2   -0.19433943E+03   -0.50819227E-02    0.12046120E-01
    3   -0.19433959E+03   -0.15811143E-03    0.20406439E-02
    4   -0.19433963E+03   -0.40288976E-04    0.36261291E-03
    5   -0.19433963E+03   -0.13518354E-05    0.73128429E-04
    6   -0.19433963E+03   -0.81619760E-07    0.22631767E-04
    7   -0.19433963E+03   -0.15870398E-08    0.45929152E-05
    8   -0.19433963E+03   -0.10649615E-09    0.68735544E-06
    9   -0.19433963E+03   -0.17507773E-10    0.16215249E-06
   10   -0.19433963E+03   -0.28421709E-12    0.32748567E-07
   11   -0.19433963E+03    0.56843419E-13    0.57247496E-08

Total Energy:                     -192.3541319060 H        -5234.2222 eV
Extrapolated to 0K:               -192.3541319060 H        -5234.2222 eV
Total Mermin free energy:         -192.3541319060 H        -5234.2222 eV
Force related energy:             -192.3541319060 H        -5234.2222 eV

Volume:                              0.972286E+04 au^3   0.144078E+04 A^3
Pressure:                            0.377693E-04 au     0.111121E+10 Pa
>> Charges saved for restart in charges.bin

total energy  -1.9235413E+02 H       energy change -4.9646451E-03 H
gradient norm  5.5517024E-02 H/a0    max. gradient  1.7105049E-02 H/a0
step length    1.8324568E-01 a0      max. step      3.4942234E-02 a0

--------------------------------------------------------------------------------

***  Geometry step: 9

 iSCC Total electronic   Diff electronic      SCC error    
    1   -0.19433963E+03    0.00000000E+00    0.11468926E-01
    2   -0.19435493E+03   -0.15302687E-01    0.70604571E-02
    3   -0.19435499E+03   -0.53308706E-04    0.92535554E-03
    4   -0.19435500E+03   -0.15415282E-04    0.14440514E-03
    5   -0.19435500E+03   -0.69701102E-06    0.47913485E-04
    6   -0.19435500E+03   -0.21425365E-07    0.11158519E-04
    7   -0.19435500E+03   -0.71099748E-09    0.36691924E-05
    8   -0.19435500E+03   -0.41694648E-10    0.34127551E-06
    9   -0.19435500E+03   -0.59401373E-11    0.84005257E-07
   10   -0.19435500E+03   -0.14210855E-12    0.12129438E-07
   11   -0.19435500E+03    0.00000000E+00    0.22748052E-08

Total Energy:                     -192.3573822623 H        -5234.3107 eV
Extrapolated to 0K:               -192.3573822623 H        -5234.3107 eV
Total Mermin free energy:         -192.3573822623 H        -5234.3107 eV
Force related energy:             -192.3573822623 H        -5234.3107 eV

Volume:                              0.971925E+04 au^3   0.144025E+04 A^3
Pressure:                            0.412159E-04 au     0.121261E+10 Pa
>> Charges saved for restart in charges.bin

total energy  -1.9235738E+02 H       energy change -3.2503563E-03 H
gradient norm  4.3121162E-02 H/a0    max. gradient  1.0940224E-02 H/a0
step length    1.4011537E-01 a0      max. step      2.6309594E-02 a0

--------------------------------------------------------------------------------

***  Geometry step: 10

 iSCC Total electronic   Diff electronic      SCC error    
    1   -0.19435500E+03    0.00000000E+00    0.11928903E-01
    2   -0.19436642E+03   -0.11412432E-01    0.52314544E-02
    3   -0.19436649E+03   -0.71848408E-04    0.12477708E-02
    4   -0.19436650E+03   -0.17664842E-04    0.15112398E-03
    5   -0.19436651E+03   -0.82825238E-06    0.40298601E-04
    6   -0.19436651E+03   -0.22629592E-07    0.13433406E-04
    7   -0.19436651E+03   -0.57238481E-09    0.18520464E-05
    8   -0.19436651E+03   -0.68553163E-10    0.34358424E-06
    9   -0.19436651E+03   -0.21032065E-11    0.71709543E-07
   10   -0.19436651E+03   -0.34106051E-12    0.17839670E-07
   11   -0.19436651E+03    0.85265128E-13    0.24368867E-08

Total Energy:                     -192.3605899103 H        -5234.3980 eV
Extrapolated to 0K:               -192.3605899103 H        -5234.3980 eV
Total Mermin free energy:         -192.3605899103 H        -5234.3980 eV
Force related energy:             -192.3605899103 H        -5234.3980 eV

Volume:                              0.972102E+04 au^3   0.144051E+04 A^3
Pressure:                            0.412636E-04 au     0.121402E+10 Pa
>> Charges saved for restart in charges.bin

total energy  -1.9236059E+02 H       energy change -3.2076480E-03 H
gradient norm  3.9698627E-02 H/a0    max. gradient  1.2287421E-02 H/a0
step length    1.6697868E-01 a0      max. step      3.4023765E-02 a0

--------------------------------------------------------------------------------

***  Geometry step: 11

 iSCC Total electronic   Diff electronic      SCC error    
    1   -0.19436651E+03    0.00000000E+00    0.84534843E-02
    2   -0.19436918E+03   -0.26779443E-02    0.53245501E-02
    3   -0.19436924E+03   -0.60948640E-04    0.14391882E-02
    4   -0.19436926E+03   -0.14003214E-04    0.12416147E-03
    5   -0.19436926E+03   -0.54503252E-06    0.17916308E-04
    6   -0.19436926E+03   -0.19779691E-07    0.62317669E-05
    7   -0.19436926E+03   -0.35444714E-09    0.17797096E-05
    8   -0.19436926E+03   -0.43627324E-10    0.26005087E-06
    9   -0.19436926E+03   -0.12505552E-11    0.43627805E-07
   10   -0.19436926E+03   -0.28421709E-13    0.93023829E-08

Total Energy:                     -192.3631372841 H        -5234.4673 eV
Extrapolated to 0K:               -192.3631372841 H        -5234.4673 eV
Total Mermin free energy:         -192.3631372841 H        -5234.4673 eV
Force related energy:             -192.3631372841 H        -5234.4673 eV

Volume:                              0.972996E+04 au^3   0.144183E+04 A^3
Pressure:                            0.393008E-04 au     0.115627E+10 Pa
>> Charges saved for restart in charges.bin

total energy  -1.9236314E+02 H       energy change -2.5473739E-03 H
gradient norm  3.8531308E-02 H/a0    max. gradient  1.4284306E-02 H/a0
step length    1.5667059E-01 a0      max. step      3.1141329E-02 a0

--------------------------------------------------------------------------------

***  Geometry step: 12

 iSCC Total electronic   Diff electronic      SCC error    
    1   -0.19436926E+03    0.00000000E+00    0.74612271E-02
    2   -0.19435647E+03    0.12784076E-01    0.46927341E-02
    3   -0.19435651E+03   -0.37854020E-04    0.12584899E-02
    4   -0.19435652E+03   -0.87739787E-05    0.13273484E-03
    5   -0.19435652E+03   -0.33773637E-06    0.28553443E-04
    6   -0.19435652E+03   -0.14784575E-07    0.11009277E-04
    7   -0.19435652E+03   -0.18263790E-09    0.16234868E-05
    8   -0.19435652E+03   -0.15660362E-10    0.26439357E-06
    9   -0.19435652E+03   -0.17621460E-11    0.76141158E-07
   10   -0.19435652E+03   -0.28421709E-13    0.88223207E-08

Total Energy:                     -192.3652820899 H        -5234.5257 eV
Extrapolated to 0K:               -192.3652820899 H        -5234.5257 eV
Total Mermin free energy:         -192.3652820899 H        -5234.5257 eV
Force related energy:             -192.3652820899 H        -5234.5257 eV

Volume:                              0.974984E+04 au^3   0.144478E+04 A^3
Pressure:                            0.320300E-04 au     0.942353E+09 Pa
>> Charges saved for restart in charges.bin

total energy  -1.9236528E+02 H       energy change -2.1448058E-03 H
gradient norm  3.5908528E-02 H/a0    max. gradient  1.1338615E-02 H/a0
step length    1.6524814E-01 a0      max. step      3.0322158E-02 a0

--------------------------------------------------------------------------------

***  Geometry step: 13

 iSCC Total electronic   Diff electronic      SCC error    
    1   -0.19435652E+03    0.00000000E+00    0.48573761E-02
    2   -0.19433744E+03    0.19078037E-01    0.30297625E-02
    3   -0.19433747E+03   -0.26056517E-04    0.87672251E-03
    4   -0.19433748E+03   -0.59115518E-05    0.10764987E-03
    5   -0.19433748E+03   -0.17795790E-06    0.25202704E-04
    6   -0.19433748E+03   -0.11958292E-07    0.98368221E-05
    7   -0.19433748E+03   -0.14273382E-09    0.13345409E-05
    8   -0.19433748E+03   -0.14779289E-10    0.19262986E-06
    9   -0.19433748E+03   -0.11368684E-11    0.53773486E-07
   10   -0.19433748E+03   -0.56843419E-13    0.82747924E-08

Total Energy:                     -192.3669356658 H        -5234.5707 eV
Extrapolated to 0K:               -192.3669356658 H        -5234.5707 eV
Total Mermin free energy:         -192.3669356658 H        -5234.5707 eV
Force related energy:             -192.3669356658 H        -5234.5707 eV

Volume:                              0.977531E+04 au^3   0.144855E+04 A^3
Pressure:                            0.220173E-04 au     0.647772E+09 Pa
>> Charges saved for restart in charges.bin

total energy  -1.9236694E+02 H       energy change -1.6535759E-03 H
gradient norm  2.8193875E-02 H/a0    max. gradient  6.7259969E-03 H/a0
step length    1.5073620E-01 a0      max. step      2.7334690E-02 a0

--------------------------------------------------------------------------------

***  Geometry step: 14

 iSCC Total electronic   Diff electronic      SCC error    
    1   -0.19433748E+03    0.00000000E+00    0.46079591E-02
    2   -0.19432883E+03    0.86496327E-02    0.23479648E-02
    3   -0.19432885E+03   -0.23255804E-04    0.75783689E-03
    4   -0.19432885E+03   -0.46517255E-05    0.12833926E-03
    5   -0.19432885E+03   -0.10257054E-06    0.11959090E-04
    6   -0.19432885E+03   -0.81017220E-08    0.45412324E-05
    7   -0.19432885E+03   -0.14753709E-09    0.88142899E-06
    8   -0.19432885E+03   -0.15546675E-10    0.19848048E-06
    9   -0.19432885E+03   -0.51159077E-12    0.42047730E-07
   10   -0.19432885E+03   -0.28421709E-13    0.73675417E-08

Total Energy:                     -192.3680860792 H        -5234.6020 eV
Extrapolated to 0K:               -192.3680860792 H        -5234.6020 eV
Total Mermin free energy:         -192.3680860792 H        -5234.6020 eV
Force related energy:             -192.3680860792 H        -5234.6020 eV

Volume:                              0.979499E+04 au^3   0.145147E+04 A^3
Pressure:                            0.170143E-04 au     0.500577E+09 Pa
>> Charges saved for restart in charges.bin

total energy  -1.9236809E+02 H       energy change -1.1504134E-03 H
gradient norm  2.3922122E-02 H/a0    max. gradient  5.8065386E-03 H/a0
step length    1.0998650E-01 a0      max. step      2.2800854E-02 a0

--------------------------------------------------------------------------------

***  Geometry step: 15

 iSCC Total electronic   Diff electronic      SCC error    
    1   -0.19432885E+03    0.00000000E+00    0.61175115E-02
    2   -0.19432602E+03    0.28312424E-02    0.33180058E-02
    3   -0.19432605E+03   -0.24545162E-04    0.74104590E-03
    4   -0.19432605E+03   -0.53272149E-05    0.13410533E-03
    5   -0.19432605E+03   -0.11452136E-06    0.29343531E-04
    6   -0.19432605E+03   -0.77202458E-08    0.86476070E-05
    7   -0.19432605E+03   -0.18687274E-09    0.18656963E-05
    8   -0.19432605E+03   -0.11198154E-10    0.28886012E-06
    9   -0.19432605E+03   -0.13642421E-11    0.75601164E-07
   10   -0.19432605E+03   -0.56843419E-13    0.75527438E-08

Total Energy:                     -192.3691232274 H        -5234.6302 eV
Extrapolated to 0K:               -192.3691232274 H        -5234.6302 eV
Total Mermin free energy:         -192.3691232274 H        -5234.6302 eV
Force related energy:             -192.3691232274 H        -5234.6302 eV

Volume:                              0.981437E+04 au^3   0.145434E+04 A^3
Pressure:                            0.142451E-04 au     0.419106E+09 Pa
>> Charges saved for restart in charges.bin

total energy  -1.9236912E+02 H       energy change -1.0371482E-03 H
gradient norm  2.4793772E-02 H/a0    max. gradient  6.6338305E-03 H/a0
step length    1.0873588E-01 a0      max. step      2.3381941E-02 a0

--------------------------------------------------------------------------------

***  Geometry step: 16

 iSCC Total electronic   Diff electronic      SCC error    
    1   -0.19432605E+03    0.00000000E+00    0.67629066E-02
    2   -0.19433010E+03   -0.40456617E-02    0.37688599E-02
    3   -0.19433011E+03   -0.13868211E-04    0.64320511E-03
    4   -0.19433012E+03   -0.32096295E-05    0.91260161E-04
    5   -0.19433012E+03   -0.94630849E-07    0.28298071E-04
    6   -0.19433012E+03   -0.66845587E-08    0.57591480E-05
    7   -0.19433012E+03   -0.17604407E-09    0.12156229E-05
    8   -0.19433012E+03   -0.84128260E-11    0.25006948E-06
    9   -0.19433012E+03   -0.13926638E-11    0.62309657E-07
   10   -0.19433012E+03   -0.56843419E-13    0.72871038E-08

Total Energy:                     -192.3699431720 H        -5234.6525 eV
Extrapolated to 0K:               -192.3699431720 H        -5234.6525 eV
Total Mermin free energy:         -192.3699431720 H        -5234.6525 eV
Force related energy:             -192.3699431720 H        -5234.6525 eV

Volume:                              0.982744E+04 au^3   0.145628E+04 A^3
Pressure:                            0.147239E-04 au     0.433191E+09 Pa
>> Charges saved for restart in charges.bin

total energy  -1.9236994E+02 H       energy change -8.1994467E-04 H
gradient norm  2.3249625E-02 H/a0    max. gradient  5.8930193E-03 H/a0
step length    9.7480574E-02 a0      max. step      1.9699617E-02 a0

--------------------------------------------------------------------------------

***  Geometry step: 17

 iSCC Total electronic   Diff electronic      SCC error    
    1   -0.19433012E+03    0.00000000E+00    0.52877120E-02
    2   -0.19433349E+03   -0.33705123E-02    0.29662709E-02
    3   -0.19433350E+03   -0.12392538E-04    0.61866707E-03
    4   -0.19433350E+03   -0.24983292E-05    0.94818663E-04
    5   -0.19433350E+03   -0.72065774E-07    0.25421093E-04
    6   -0.19433350E+03   -0.60755951E-08    0.51691596E-05
    7   -0.19433350E+03   -0.13048407E-09    0.13097939E-05
    8   -0.19433350E+03   -0.67643668E-11    0.16979422E-06
    9   -0.19433350E+03   -0.12505552E-11    0.39580406E-07
   10   -0.19433350E+03   -0.85265128E-13    0.47635886E-08

Total Energy:                     -192.3707020808 H        -5234.6731 eV
Extrapolated to 0K:               -192.3707020808 H        -5234.6731 eV
Total Mermin free energy:         -192.3707020808 H        -5234.6731 eV
Force related energy:             -192.3707020808 H        -5234.6731 eV

Volume:                              0.984205E+04 au^3   0.145844E+04 A^3
Pressure:                            0.152398E-04 au     0.448370E+09 Pa
>> Charges saved for restart in charges.bin

total energy  -1.9237070E+02 H       energy change -7.5890874E-04 H
gradient norm  2.0898542E-02 H/a0    max. gradient  4.9247799E-03 H/a0
step length    1.0625570E-01 a0      max. step      1.9734535E-02 a0

--------------------------------------------------------------------------------

***  Geometry step: 18

 iSCC Total electronic   Diff electronic      SCC error    
    1   -0.19433350E+03    0.00000000E+00    0.69474887E-02
    2   -0.19433425E+03   -0.74619615E-03    0.24315280E-02
    3   -0.19433426E+03   -0.16243027E-04    0.63412021E-03
    4   -0.19433427E+03   -0.28999081E-05    0.11968567E-03
    5   -0.19433427E+03   -0.61387425E-07    0.17281693E-04
    6   -0.19433427E+03   -0.74991817E-08    0.49794103E-05
    7   -0.19433427E+03   -0.13460522E-09    0.16179385E-05
    8   -0.19433427E+03   -0.34674486E-11    0.19391851E-06
    9   -0.19433427E+03   -0.59685590E-12    0.43449000E-07
   10   -0.19433427E+03   -0.85265128E-13    0.65650232E-08

Total Energy:                     -192.3714519786 H        -5234.6935 eV
Extrapolated to 0K:               -192.3714519786 H        -5234.6935 eV
Total Mermin free energy:         -192.3714519786 H        -5234.6935 eV
Force related energy:             -192.3714519786 H        -5234.6935 eV

Volume:                              0.985837E+04 au^3   0.146086E+04 A^3
Pressure:                            0.144829E-04 au     0.426103E+09 Pa
>> Charges saved for restart in charges.bin

total energy  -1.9237145E+02 H       energy change -7.4989779E-04 H
gradient norm  1.9813897E-02 H/a0    max. gradient  4.0648530E-03 H/a0
step length    1.1580964E-01 a0      max. step      1.9843550E-02 a0

--------------------------------------------------------------------------------

***  Geometry step: 19

 iSCC Total electronic   Diff electronic      SCC error    
    1   -0.19433427E+03    0.00000000E+00    0.65391879E-02
    2   -0.19433089E+03    0.33762630E-02    0.20115115E-02
    3   -0.19433091E+03   -0.18508933E-04    0.61849847E-03
    4   -0.19433091E+03   -0.34377154E-05    0.11618666E-03
    5   -0.19433091E+03   -0.74827142E-07    0.13279187E-04
    6   -0.19433091E+03   -0.79186577E-08    0.52222848E-05
    7   -0.19433091E+03   -0.18380319E-09    0.17319729E-05
    8   -0.19433091E+03   -0.57411853E-11    0.22526081E-06
    9   -0.19433091E+03   -0.65369932E-12    0.53297745E-07
   10   -0.19433091E+03   -0.11368684E-12    0.65415495E-08

Total Energy:                     -192.3721525117 H        -5234.7126 eV
Extrapolated to 0K:               -192.3721525117 H        -5234.7126 eV
Total Mermin free energy:         -192.3721525117 H        -5234.7126 eV
Force related energy:             -192.3721525117 H        -5234.7126 eV

Volume:                              0.987778E+04 au^3   0.146374E+04 A^3
Pressure:                            0.117629E-04 au     0.346077E+09 Pa
>> Charges saved for restart in charges.bin

total energy  -1.9237215E+02 H       energy change -7.0053316E-04 H
gradient norm  2.0158139E-02 H/a0    max. gradient  6.6164328E-03 H/a0
step length    1.2371284E-01 a0      max. step      2.2273564E-02 a0

--------------------------------------------------------------------------------

***  Geometry step: 20

 iSCC Total electronic   Diff electronic      SCC error    
    1   -0.19433091E+03    0.00000000E+00    0.30241403E-02
    2   -0.19432676E+03    0.41540355E-02    0.17328464E-02
    3   -0.19432677E+03   -0.84962445E-05    0.51958203E-03
    4   -0.19432677E+03   -0.17313419E-05    0.74958241E-04
    5   -0.19432677E+03   -0.59930386E-07    0.23398899E-04
    6   -0.19432677E+03   -0.52519340E-08    0.46993032E-05
    7   -0.19432677E+03   -0.84014573E-10    0.65925040E-06
    8   -0.19432677E+03   -0.27853275E-11    0.14830967E-06
    9   -0.19432677E+03   -0.59685590E-12    0.37912040E-07
   10   -0.19432677E+03    0.00000000E+00    0.41104071E-08

Total Energy:                     -192.3726781381 H        -5234.7269 eV
Extrapolated to 0K:               -192.3726781381 H        -5234.7269 eV
Total Mermin free energy:         -192.3726781381 H        -5234.7269 eV
Force related energy:             -192.3726781381 H        -5234.7269 eV

Volume:                              0.989359E+04 au^3   0.146608E+04 A^3
Pressure:                            0.899259E-05 au     0.264571E+09 Pa
>> Charges saved for restart in charges.bin

total energy  -1.9237268E+02 H       energy change -5.2562638E-04 H
gradient norm  1.8424814E-02 H/a0    max. gradient  5.6085009E-03 H/a0
step length    9.9185297E-02 a0      max. step      1.9038925E-02 a0

--------------------------------------------------------------------------------

***  Geometry step: 21

 iSCC Total electronic   Diff electronic      SCC error    
    1   -0.19432677E+03    0.00000000E+00    0.27316146E-02
    2   -0.19432199E+03    0.47764994E-02    0.16544152E-02
    3   -0.19432200E+03   -0.60300014E-05    0.48134529E-03
    4   -0.19432200E+03   -0.14168649E-05    0.61065260E-04
    5   -0.19432200E+03   -0.49018695E-07    0.20487193E-04
    6   -0.19432200E+03   -0.24448070E-08    0.34896819E-05
    7   -0.19432200E+03   -0.61419314E-10    0.65056959E-06
    8   -0.19432200E+03   -0.23021585E-11    0.14240787E-06
    9   -0.19432200E+03   -0.48316906E-12    0.37819615E-07
   10   -0.19432200E+03    0.00000000E+00    0.41145087E-08

Total Energy:                     -192.3730948443 H        -5234.7383 eV
Extrapolated to 0K:               -192.3730948443 H        -5234.7383 eV
Total Mermin free energy:         -192.3730948443 H        -5234.7383 eV
Force related energy:             -192.3730948443 H        -5234.7383 eV

Volume:                              0.990853E+04 au^3   0.146829E+04 A^3
Pressure:                            0.575815E-05 au     0.169411E+09 Pa
>> Charges saved for restart in charges.bin

total energy  -1.9237309E+02 H       energy change -4.1670614E-04 H
gradient norm  1.4140687E-02 H/a0    max. gradient  3.2400516E-03 H/a0
step length    8.4821638E-02 a0      max. step      1.6786849E-02 a0

--------------------------------------------------------------------------------

***  Geometry step: 22

 iSCC Total electronic   Diff electronic      SCC error    
    1   -0.19432200E+03    0.00000000E+00    0.22872160E-02
    2   -0.19432157E+03    0.42901021E-03    0.10422163E-02
    3   -0.19432158E+03   -0.52487751E-05    0.35937291E-03
    4   -0.19432158E+03   -0.11850033E-05    0.35988464E-04
    5   -0.19432158E+03   -0.18494603E-07    0.57911383E-05
    6   -0.19432158E+03   -0.13430110E-08    0.18620489E-05
    7   -0.19432158E+03   -0.20463631E-10    0.64630255E-06
    8   -0.19432158E+03   -0.85265128E-12    0.10332997E-06
    9   -0.19432158E+03   -0.11368684E-12    0.25441043E-07
   10   -0.19432158E+03    0.00000000E+00    0.47444102E-08

Total Energy:                     -192.3733771719 H        -5234.7459 eV
Extrapolated to 0K:               -192.3733771719 H        -5234.7459 eV
Total Mermin free energy:         -192.3733771719 H        -5234.7459 eV
Force related energy:             -192.3733771719 H        -5234.7459 eV

Volume:                              0.991765E+04 au^3   0.146964E+04 A^3
Pressure:                            0.467384E-05 au     0.137509E+09 Pa
>> Charges saved for restart in charges.bin

total energy  -1.9237338E+02 H       energy change -2.8232766E-04 H
gradient norm  1.1412073E-02 H/a0    max. gradient  1.9289867E-03 H/a0
step length    5.8608423E-02 a0      max. step      1.1370009E-02 a0

--------------------------------------------------------------------------------

***  Geometry step: 23

 iSCC Total electronic   Diff electronic      SCC error    
    1   -0.19432158E+03    0.00000000E+00    0.24785015E-02
    2   -0.19432350E+03   -0.19254172E-02    0.11532877E-02
    3   -0.19432351E+03   -0.58796312E-05    0.30741720E-03
    4   -0.19432351E+03   -0.13264814E-05    0.37329758E-04
    5   -0.19432351E+03   -0.14517951E-07    0.97709021E-05
    6   -0.19432351E+03   -0.11417001E-08    0.27549359E-05
    7   -0.19432351E+03   -0.25920599E-10    0.57888691E-06
    8   -0.19432351E+03   -0.79580786E-12    0.10875554E-06
    9   -0.19432351E+03   -0.19895197E-12    0.20635617E-07
   10   -0.19432351E+03    0.28421709E-13    0.36703938E-08

Total Energy:                     -192.3735850078 H        -5234.7516 eV
Extrapolated to 0K:               -192.3735850078 H        -5234.7516 eV
Total Mermin free energy:         -192.3735850078 H        -5234.7516 eV
Force related energy:             -192.3735850078 H        -5234.7516 eV

Volume:                              0.992445E+04 au^3   0.147065E+04 A^3
Pressure:                            0.462814E-05 au     0.136165E+09 Pa
>> Charges saved for restart in charges.bin

total energy  -1.9237359E+02 H       energy change -2.0783593E-04 H
gradient norm  1.1038263E-02 H/a0    max. gradient  2.2618293E-03 H/a0
step length    5.0564280E-02 a0      max. step      9.2828331E-03 a0

--------------------------------------------------------------------------------

***  Geometry step: 24

 iSCC Total electronic   Diff electronic      SCC error    
    1   -0.19432351E+03    0.00000000E+00    0.19644699E-02
    2   -0.19432678E+03   -0.32694415E-02    0.10886683E-02
    3   -0.19432678E+03   -0.31533108E-05    0.23959421E-03
    4   -0.19432678E+03   -0.72238228E-06    0.31794298E-04
    5   -0.19432678E+03   -0.12058251E-07    0.98085698E-05
    6   -0.19432678E+03   -0.74828677E-09    0.16663796E-05
    7   -0.19432678E+03   -0.28052227E-10    0.39067344E-06
    8   -0.19432678E+03   -0.10516032E-11    0.97446982E-07
    9   -0.19432678E+03   -0.19895197E-12    0.18423573E-07
   10   -0.19432678E+03    0.11368684E-12    0.21961881E-08

Total Energy:                     -192.3737293733 H        -5234.7555 eV
Extrapolated to 0K:               -192.3737293733 H        -5234.7555 eV
Total Mermin free energy:         -192.3737293733 H        -5234.7555 eV
Force related energy:             -192.3737293733 H        -5234.7555 eV

Volume:                              0.992891E+04 au^3   0.147131E+04 A^3
Pressure:                            0.544585E-05 au     0.160222E+09 Pa
>> Charges saved for restart in charges.bin

total energy  -1.9237373E+02 H       energy change -1.4436544E-04 H
gradient norm  1.0073955E-02 H/a0    max. gradient  1.9077691E-03 H/a0
step length    4.0852415E-02 a0      max. step      7.7359934E-03 a0

--------------------------------------------------------------------------------

***  Geometry step: 25

 iSCC Total electronic   Diff electronic      SCC error    
    1   -0.19432678E+03    0.00000000E+00    0.20441418E-02
    2   -0.19432928E+03   -0.24931145E-02    0.89676358E-03
    3   -0.19432928E+03   -0.26122697E-05    0.23310601E-03
    4   -0.19432928E+03   -0.58025677E-06    0.38028182E-04
    5   -0.19432928E+03   -0.13655921E-07    0.92798949E-05
    6   -0.19432928E+03   -0.82326324E-09    0.12469737E-05
    7   -0.19432928E+03   -0.37260861E-10    0.37039292E-06
    8   -0.19432928E+03   -0.88107299E-12    0.83902229E-07
    9   -0.19432928E+03   -0.14210855E-12    0.18329544E-07
   10   -0.19432928E+03    0.00000000E+00    0.26682399E-08

Total Energy:                     -192.3738681314 H        -5234.7593 eV
Extrapolated to 0K:               -192.3738681314 H        -5234.7593 eV
Total Mermin free energy:         -192.3738681314 H        -5234.7593 eV
Force related energy:             -192.3738681314 H        -5234.7593 eV

Volume:                              0.993412E+04 au^3   0.147208E+04 A^3
Pressure:                            0.591829E-05 au     0.174122E+09 Pa
>> Charges saved for restart in charges.bin

total energy  -1.9237387E+02 H       energy change -1.3875812E-04 H
gradient norm  8.8828842E-03 H/a0    max. gradient  1.8083618E-03 H/a0
step length    4.2476964E-02 a0      max. step      8.4721714E-03 a0

--------------------------------------------------------------------------------

***  Geometry step: 26

 iSCC Total electronic   Diff electronic      SCC error    
    1   -0.19432928E+03    0.00000000E+00    0.21298959E-02
    2   -0.19433088E+03   -0.15976218E-02    0.99480539E-03
    3   -0.19433088E+03   -0.30941416E-05    0.32416120E-03
    4   -0.19433088E+03   -0.67562362E-06    0.43276952E-04
    5   -0.19433088E+03   -0.15573391E-07    0.69314672E-05
    6   -0.19433088E+03   -0.12155681E-08    0.12582304E-05
    7   -0.19433088E+03   -0.43854698E-10    0.37888746E-06
    8   -0.19433088E+03   -0.82422957E-12    0.75794502E-07
    9   -0.19433088E+03   -0.28421709E-13    0.14077543E-07
   10   -0.19433088E+03    0.28421709E-13    0.27583398E-08

Total Energy:                     -192.3740218946 H        -5234.7635 eV
Extrapolated to 0K:               -192.3740218946 H        -5234.7635 eV
Total Mermin free energy:         -192.3740218946 H        -5234.7635 eV
Force related energy:             -192.3740218946 H        -5234.7635 eV

Volume:                              0.994115E+04 au^3   0.147313E+04 A^3
Pressure:                            0.599464E-05 au     0.176368E+09 Pa
>> Charges saved for restart in charges.bin

total energy  -1.9237402E+02 H       energy change -1.5376317E-04 H
gradient norm  9.9969792E-03 H/a0    max. gradient  2.7275780E-03 H/a0
step length    5.4019492E-02 a0      max. step      1.0650857E-02 a0

--------------------------------------------------------------------------------

***  Geometry step: 27

 iSCC Total electronic   Diff electronic      SCC error    
    1   -0.19433088E+03    0.00000000E+00    0.22992497E-02
    2   -0.19433033E+03    0.55383618E-03    0.11544479E-02
    3   -0.19433033E+03   -0.27464283E-05    0.33656894E-03
    4   -0.19433033E+03   -0.61267315E-06    0.42428383E-04
    5   -0.19433033E+03   -0.14013494E-07    0.48958981E-05
    6   -0.19433033E+03   -0.12415455E-08    0.14208577E-05
    7   -0.19433033E+03   -0.27512215E-10    0.38825878E-06
    8   -0.19433033E+03   -0.88107299E-12    0.78994264E-07
    9   -0.19433033E+03   -0.56843419E-13    0.11960355E-07
   10   -0.19433033E+03   -0.28421709E-13    0.26084663E-08

Total Energy:                     -192.3741885078 H        -5234.7680 eV
Extrapolated to 0K:               -192.3741885078 H        -5234.7680 eV
Total Mermin free energy:         -192.3741885078 H        -5234.7680 eV
Force related energy:             -192.3741885078 H        -5234.7680 eV

Volume:                              0.995029E+04 au^3   0.147448E+04 A^3
Pressure:                            0.516075E-05 au     0.151834E+09 Pa
>> Charges saved for restart in charges.bin

total energy  -1.9237419E+02 H       energy change -1.6661319E-04 H
gradient norm  1.1880974E-02 H/a0    max. gradient  4.1025466E-03 H/a0
step length    6.1739850E-02 a0      max. step      1.1440786E-02 a0

--------------------------------------------------------------------------------

***  Geometry step: 28

 iSCC Total electronic   Diff electronic      SCC error    
    1   -0.19433033E+03    0.00000000E+00    0.23256782E-02
    2   -0.19432804E+03    0.22912660E-02    0.12759795E-02
    3   -0.19432804E+03   -0.36434570E-05    0.39040992E-03
    4   -0.19432804E+03   -0.84106242E-06    0.44071518E-04
    5   -0.19432804E+03   -0.24582221E-07    0.12076635E-04
    6   -0.19432804E+03   -0.16039792E-08    0.25887316E-05
    7   -0.19432804E+03   -0.25835334E-10    0.37261314E-06
    8   -0.19432804E+03   -0.88107299E-12    0.10327223E-06
    9   -0.19432804E+03   -0.85265128E-13    0.21354227E-07
   10   -0.19432804E+03   -0.11368684E-12    0.29871461E-08

Total Energy:                     -192.3744067466 H        -5234.7739 eV
Extrapolated to 0K:               -192.3744067466 H        -5234.7739 eV
Total Mermin free energy:         -192.3744067466 H        -5234.7739 eV
Force related energy:             -192.3744067466 H        -5234.7739 eV

Volume:                              0.996357E+04 au^3   0.147645E+04 A^3
Pressure:                            0.323063E-05 au     0.950483E+08 Pa
>> Charges saved for restart in charges.bin

total energy  -1.9237441E+02 H       energy change -2.1823881E-04 H
gradient norm  1.2415154E-02 H/a0    max. gradient  3.5855512E-03 H/a0
step length    8.9504550E-02 a0      max. step      1.7701489E-02 a0

--------------------------------------------------------------------------------

***  Geometry step: 29

 iSCC Total electronic   Diff electronic      SCC error    
    1   -0.19432804E+03    0.00000000E+00    0.16769028E-02
    2   -0.19432629E+03    0.17515466E-02    0.88480239E-03
    3   -0.19432629E+03   -0.22872058E-05    0.25208334E-03
    4   -0.19432630E+03   -0.51770502E-06    0.31730114E-04
    5   -0.19432630E+03   -0.19247466E-07    0.96069068E-05
    6   -0.19432630E+03   -0.89934815E-09    0.14113522E-05
    7   -0.19432630E+03   -0.14551915E-10    0.32521634E-06
    8   -0.19432630E+03   -0.45474735E-12    0.80943476E-07
    9   -0.19432630E+03   -0.85265128E-13    0.14815697E-07
   10   -0.19432630E+03    0.00000000E+00    0.20904682E-08

Total Energy:                     -192.3745905176 H        -5234.7790 eV
Extrapolated to 0K:               -192.3745905176 H        -5234.7790 eV
Total Mermin free energy:         -192.3745905176 H        -5234.7790 eV
Force related energy:             -192.3745905176 H        -5234.7790 eV

Volume:                              0.997428E+04 au^3   0.147804E+04 A^3
Pressure:                            0.162339E-05 au     0.477619E+08 Pa
>> Charges saved for restart in charges.bin

total energy  -1.9237459E+02 H       energy change -1.8377102E-04 H
gradient norm  1.0548501E-02 H/a0    max. gradient  2.1676108E-03 H/a0
step length    7.9511905E-02 a0      max. step      1.6779223E-02 a0

--------------------------------------------------------------------------------

***  Geometry step: 30

 iSCC Total electronic   Diff electronic      SCC error    
    1   -0.19432630E+03    0.00000000E+00    0.14677051E-02
    2   -0.19432586E+03    0.43413040E-03    0.91140979E-03
    3   -0.19432586E+03   -0.31779824E-05    0.29283480E-03
    4   -0.19432586E+03   -0.70633982E-06    0.38436174E-04
    5   -0.19432586E+03   -0.17403039E-07    0.64618390E-05
    6   -0.19432586E+03   -0.13560282E-08    0.99182521E-06
    7   -0.19432586E+03   -0.34361847E-10    0.37876328E-06
    8   -0.19432586E+03   -0.62527761E-12    0.90425024E-07
    9   -0.19432586E+03   -0.14210855E-12    0.16348706E-07
   10   -0.19432586E+03    0.85265128E-13    0.34894208E-08

Total Energy:                     -192.3747554867 H        -5234.7834 eV
Extrapolated to 0K:               -192.3747554867 H        -5234.7834 eV
Total Mermin free energy:         -192.3747554867 H        -5234.7834 eV
Force related energy:             -192.3747554867 H        -5234.7834 eV

Volume:                              0.998207E+04 au^3   0.147919E+04 A^3
Pressure:                            0.541309E-06 au     0.159259E+08 Pa
>> Charges saved for restart in charges.bin

total energy  -1.9237476E+02 H       energy change -1.6496911E-04 H
gradient norm  9.0580342E-03 H/a0    max. gradient  2.1285098E-03 H/a0
step length    7.1944832E-02 a0      max. step      1.5593714E-02 a0

--------------------------------------------------------------------------------

***  Geometry step: 31

 iSCC Total electronic   Diff electronic      SCC error    
    1   -0.19432586E+03    0.00000000E+00    0.15400084E-02
    2   -0.19432747E+03   -0.16034787E-02    0.70112873E-03
    3   -0.19432747E+03   -0.34916855E-05    0.23341638E-03
    4   -0.19432747E+03   -0.76986342E-06    0.36248421E-04
    5   -0.19432747E+03   -0.13484822E-07    0.55355779E-05
    6   -0.19432747E+03   -0.10895747E-08    0.15247377E-05
    7   -0.19432747E+03   -0.31747049E-10    0.44660778E-06
    8   -0.19432747E+03   -0.90949470E-12    0.83510997E-07
    9   -0.19432747E+03    0.56843419E-13    0.15157449E-07
   10   -0.19432747E+03   -0.85265128E-13    0.29513014E-08

Total Energy:                     -192.3748973976 H        -5234.7873 eV
Extrapolated to 0K:               -192.3748973976 H        -5234.7873 eV
Total Mermin free energy:         -192.3748973976 H        -5234.7873 eV
Force related energy:             -192.3748973976 H        -5234.7873 eV

Volume:                              0.998597E+04 au^3   0.147977E+04 A^3
Pressure:                            0.700184E-06 au     0.206001E+08 Pa
>> Charges saved for restart in charges.bin

total energy  -1.9237490E+02 H       energy change -1.4191093E-04 H
gradient norm  1.0209170E-02 H/a0    max. gradient  2.6109132E-03 H/a0
step length    6.0654600E-02 a0      max. step      1.2580850E-02 a0

--------------------------------------------------------------------------------

***  Geometry step: 32

 iSCC Total electronic   Diff electronic      SCC error    
    1   -0.19432747E+03    0.00000000E+00    0.18046077E-02
    2   -0.19432957E+03   -0.20924660E-02    0.82038495E-03
    3   -0.19432957E+03   -0.34142458E-05    0.20819352E-03
    4   -0.19432957E+03   -0.76067641E-06    0.34840253E-04
    5   -0.19432957E+03   -0.11011849E-07    0.86331108E-05
    6   -0.19432957E+03   -0.99234398E-09    0.20755282E-05
    7   -0.19432957E+03   -0.19895197E-10    0.44538963E-06
    8   -0.19432957E+03   -0.45474735E-12    0.69381363E-07
    9   -0.19432957E+03    0.56843419E-13    0.18201858E-07
   10   -0.19432957E+03   -0.85265128E-13    0.31852063E-08

Total Energy:                     -192.3750540253 H        -5234.7916 eV
Extrapolated to 0K:               -192.3750540253 H        -5234.7916 eV
Total Mermin free energy:         -192.3750540253 H        -5234.7916 eV
Force related energy:             -192.3750540253 H        -5234.7916 eV

Volume:                              0.998893E+04 au^3   0.148021E+04 A^3
Pressure:                            0.119389E-05 au     0.351256E+08 Pa
>> Charges saved for restart in charges.bin

total energy  -1.9237505E+02 H       energy change -1.5662768E-04 H
gradient norm  1.1568151E-02 H/a0    max. gradient  3.1626383E-03 H/a0
step length    6.7778935E-02 a0      max. step      1.3202717E-02 a0

--------------------------------------------------------------------------------

***  Geometry step: 33

 iSCC Total electronic   Diff electronic      SCC error    
    1   -0.19432957E+03    0.00000000E+00    0.19141644E-02
    2   -0.19433168E+03   -0.21098489E-02    0.84056389E-03
    3   -0.19433168E+03   -0.28935773E-05    0.25258661E-03
    4   -0.19433168E+03   -0.63210837E-06    0.32391630E-04
    5   -0.19433168E+03   -0.11483081E-07    0.66496535E-05
    6   -0.19433168E+03   -0.89056584E-09    0.19308332E-05
    7   -0.19433168E+03   -0.93791641E-11    0.40194994E-06
    8   -0.19433168E+03   -0.19895197E-12    0.61337902E-07
    9   -0.19433168E+03   -0.28421709E-13    0.12338917E-07
   10   -0.19433168E+03    0.00000000E+00    0.21946907E-08

Total Energy:                     -192.3752419395 H        -5234.7967 eV
Extrapolated to 0K:               -192.3752419395 H        -5234.7967 eV
Total Mermin free energy:         -192.3752419395 H        -5234.7967 eV
Force related energy:             -192.3752419395 H        -5234.7967 eV

Volume:                              0.999178E+04 au^3   0.148063E+04 A^3
Pressure:                            0.188276E-05 au     0.553928E+08 Pa
>> Charges saved for restart in charges.bin

total energy  -1.9237524E+02 H       energy change -1.8791423E-04 H
gradient norm  1.1645765E-02 H/a0    max. gradient  2.4111157E-03 H/a0
step length    8.7132110E-02 a0      max. step      1.6139706E-02 a0

--------------------------------------------------------------------------------

***  Geometry step: 34

 iSCC Total electronic   Diff electronic      SCC error    
    1   -0.19433168E+03    0.00000000E+00    0.16441548E-02
    2   -0.19433268E+03   -0.99369117E-03    0.85192801E-03
    3   -0.19433268E+03   -0.22151991E-05    0.23778490E-03
    4   -0.19433268E+03   -0.48043302E-06    0.22446872E-04
    5   -0.19433268E+03   -0.16414930E-07    0.37993202E-05
    6   -0.19433268E+03   -0.69627504E-09    0.15650997E-05
    7   -0.19433268E+03   -0.71338491E-11    0.54755676E-06
    8   -0.19433268E+03   -0.22737368E-12    0.45672794E-07
    9   -0.19433268E+03   -0.85265128E-13    0.81740090E-08

Total Energy:                     -192.3754442544 H        -5234.8022 eV
Extrapolated to 0K:               -192.3754442544 H        -5234.8022 eV
Total Mermin free energy:         -192.3754442544 H        -5234.8022 eV
Force related energy:             -192.3754442544 H        -5234.8022 eV

Volume:                              0.999484E+04 au^3   0.148108E+04 A^3
Pressure:                            0.214638E-05 au     0.631487E+08 Pa
>> Charges saved for restart in charges.bin

total energy  -1.9237544E+02 H       energy change -2.0231492E-04 H
gradient norm  1.1161529E-02 H/a0    max. gradient  2.8452910E-03 H/a0
step length    1.0193009E-01 a0      max. step      1.8671439E-02 a0

--------------------------------------------------------------------------------

***  Geometry step: 35

 iSCC Total electronic   Diff electronic      SCC error    
    1   -0.19433268E+03    0.00000000E+00    0.20211061E-02
    2   -0.19433258E+03    0.10173974E-03    0.10472568E-02
    3   -0.19433258E+03   -0.29118567E-05    0.28917217E-03
    4   -0.19433258E+03   -0.66604542E-06    0.25454334E-04
    5   -0.19433258E+03   -0.23197885E-07    0.82851764E-05
    6   -0.19433258E+03   -0.88178354E-09    0.21063691E-05
    7   -0.19433258E+03   -0.15120349E-10    0.45813592E-06
    8   -0.19433258E+03   -0.59685590E-12    0.80854749E-07
    9   -0.19433258E+03   -0.85265128E-13    0.19076161E-07
   10   -0.19433258E+03    0.28421709E-13    0.30264422E-08

Total Energy:                     -192.3756650189 H        -5234.8082 eV
Extrapolated to 0K:               -192.3756650189 H        -5234.8082 eV
Total Mermin free energy:         -192.3756650189 H        -5234.8082 eV
Force related energy:             -192.3756650189 H        -5234.8082 eV

Volume:                              0.999840E+04 au^3   0.148161E+04 A^3
Pressure:                            0.220687E-05 au     0.649285E+08 Pa
>> Charges saved for restart in charges.bin

total energy  -1.9237567E+02 H       energy change -2.2076448E-04 H
gradient norm  1.1549542E-02 H/a0    max. gradient  2.3537142E-03 H/a0
step length    1.1605107E-01 a0      max. step      2.1534258E-02 a0

--------------------------------------------------------------------------------

***  Geometry step: 36

 iSCC Total electronic   Diff electronic      SCC error    
    1   -0.19433258E+03    0.00000000E+00    0.26547166E-02
    2   -0.19433125E+03    0.13352391E-02    0.15287989E-02
    3   -0.19433125E+03   -0.45019720E-05    0.31015065E-03
    4   -0.19433125E+03   -0.10918181E-05    0.34864763E-04
    5   -0.19433125E+03   -0.33472560E-07    0.14714104E-04
    6   -0.19433125E+03   -0.11378631E-08    0.30902029E-05
    7   -0.19433125E+03   -0.31974423E-10    0.47761871E-06
    8   -0.19433125E+03   -0.11937118E-11    0.11783851E-06
    9   -0.19433125E+03   -0.17053026E-12    0.28463618E-07
   10   -0.19433125E+03   -0.56843419E-13    0.39700891E-08

Total Energy:                     -192.3758827365 H        -5234.8141 eV
Extrapolated to 0K:               -192.3758827365 H        -5234.8141 eV
Total Mermin free energy:         -192.3758827365 H        -5234.8141 eV
Force related energy:             -192.3758827365 H        -5234.8141 eV

Volume:                              0.100031E+05 au^3   0.148230E+04 A^3
Pressure:                            0.136814E-05 au     0.402520E+08 Pa
>> Charges saved for restart in charges.bin

total energy  -1.9237588E+02 H       energy change -2.1771761E-04 H
gradient norm  1.1983184E-02 H/a0    max. gradient  3.2463005E-03 H/a0
step length    1.2529285E-01 a0      max. step      2.2941183E-02 a0

--------------------------------------------------------------------------------

***  Geometry step: 37

 iSCC Total electronic   Diff electronic      SCC error    
    1   -0.19433125E+03    0.00000000E+00    0.24305878E-02
    2   -0.19433126E+03   -0.78099259E-05    0.13760471E-02
    3   -0.19433126E+03   -0.37537428E-05    0.28646877E-03
    4   -0.19433126E+03   -0.80341118E-06    0.39474400E-04
    5   -0.19433126E+03   -0.18752758E-07    0.11426381E-04
    6   -0.19433126E+03   -0.12596786E-08    0.27368286E-05
    7   -0.19433126E+03   -0.27000624E-10    0.48132070E-06
    8   -0.19433126E+03   -0.76738615E-12    0.92790626E-07
    9   -0.19433126E+03   -0.22737368E-12    0.31110662E-07
   10   -0.19433126E+03   -0.56843419E-13    0.34422962E-08

Total Energy:                     -192.3760517208 H        -5234.8187 eV
Extrapolated to 0K:               -192.3760517208 H        -5234.8187 eV
Total Mermin free energy:         -192.3760517208 H        -5234.8187 eV
Force related energy:             -192.3760517208 H        -5234.8187 eV

Volume:                              0.100066E+05 au^3   0.148282E+04 A^3
Pressure:                            0.108532E-05 au     0.319313E+08 Pa
>> Charges saved for restart in charges.bin

total energy  -1.9237605E+02 H       energy change -1.6898427E-04 H
gradient norm  1.0327684E-02 H/a0    max. gradient  2.4761118E-03 H/a0
step length    1.0026639E-01 a0      max. step      1.9328552E-02 a0

--------------------------------------------------------------------------------

***  Geometry step: 38

 iSCC Total electronic   Diff electronic      SCC error    
    1   -0.19433126E+03    0.00000000E+00    0.16825144E-02
    2   -0.19433300E+03   -0.17383645E-02    0.97422790E-03
    3   -0.19433300E+03   -0.22724919E-05    0.25846464E-03
    4   -0.19433300E+03   -0.42601815E-06    0.34632700E-04
    5   -0.19433300E+03   -0.90063850E-08    0.60995073E-05
    6   -0.19433300E+03   -0.67001338E-09    0.16430357E-05
    7   -0.19433300E+03   -0.11397105E-10    0.27393428E-06
    8   -0.19433300E+03   -0.59685590E-12    0.49035517E-07
    9   -0.19433300E+03   -0.17053026E-12    0.12590278E-07
   10   -0.19433300E+03    0.11368684E-12    0.23565581E-08

Total Energy:                     -192.3761856134 H        -5234.8224 eV
Extrapolated to 0K:               -192.3761856134 H        -5234.8224 eV
Total Mermin free energy:         -192.3761856134 H        -5234.8224 eV
Force related energy:             -192.3761856134 H        -5234.8224 eV

Volume:                              0.100093E+05 au^3   0.148322E+04 A^3
Pressure:                            0.100745E-05 au     0.296403E+08 Pa
>> Charges saved for restart in charges.bin

total energy  -1.9237619E+02 H       energy change -1.3389261E-04 H
gradient norm  8.2016166E-03 H/a0    max. gradient  1.6125830E-03 H/a0
step length    7.5994959E-02 a0      max. step      1.5109706E-02 a0

--------------------------------------------------------------------------------

***  Geometry step: 39

 iSCC Total electronic   Diff electronic      SCC error    
    1   -0.19433300E+03    0.00000000E+00    0.14733833E-02
    2   -0.19433659E+03   -0.35861773E-02    0.56964070E-03
    3   -0.19433659E+03   -0.19014356E-05    0.20541681E-03
    4   -0.19433659E+03   -0.36071705E-06    0.42388049E-04
    5   -0.19433659E+03   -0.65131189E-08    0.46318475E-05
    6   -0.19433659E+03   -0.57087846E-09    0.13402922E-05
    7   -0.19433659E+03   -0.15660362E-10    0.33012860E-06
    8   -0.19433659E+03   -0.28421709E-12    0.75718733E-07
    9   -0.19433659E+03   -0.28421709E-13    0.15048766E-07
   10   -0.19433659E+03   -0.56843419E-13    0.27869058E-08

Total Energy:                     -192.3762938488 H        -5234.8253 eV
Extrapolated to 0K:               -192.3762938488 H        -5234.8253 eV
Total Mermin free energy:         -192.3762938488 H        -5234.8253 eV
Force related energy:             -192.3762938488 H        -5234.8253 eV

Volume:                              0.100114E+05 au^3   0.148353E+04 A^3
Pressure:                            0.164536E-05 au     0.484082E+08 Pa
>> Charges saved for restart in charges.bin

total energy  -1.9237629E+02 H       energy change -1.0823542E-04 H
gradient norm  7.6922607E-03 H/a0    max. gradient  1.5490716E-03 H/a0
step length    6.1141838E-02 a0      max. step      1.2841929E-02 a0

--------------------------------------------------------------------------------

***  Geometry step: 40

 iSCC Total electronic   Diff electronic      SCC error    
    1   -0.19433659E+03    0.00000000E+00    0.17144182E-02
    2   -0.19433990E+03   -0.33065707E-02    0.75796265E-03
    3   -0.19433990E+03   -0.13817350E-05    0.22972242E-03
    4   -0.19433990E+03   -0.29391754E-06    0.34643616E-04
    5   -0.19433990E+03   -0.51404072E-08    0.33698094E-05
    6   -0.19433990E+03   -0.53137228E-09    0.10173348E-05
    7   -0.19433990E+03   -0.88391516E-11    0.32496560E-06
    8   -0.19433990E+03   -0.28421709E-12    0.61497479E-07
    9   -0.19433990E+03    0.56843419E-13    0.14336396E-07
   10   -0.19433990E+03   -0.56843419E-13    0.18184823E-08

Total Energy:                     -192.3763864472 H        -5234.8278 eV
Extrapolated to 0K:               -192.3763864472 H        -5234.8278 eV
Total Mermin free energy:         -192.3763864472 H        -5234.8278 eV
Force related energy:             -192.3763864472 H        -5234.8278 eV

Volume:                              0.100139E+05 au^3   0.148391E+04 A^3
Pressure:                            0.215816E-05 au     0.634951E+08 Pa
>> Charges saved for restart in charges.bin

total energy  -1.9237639E+02 H       energy change -9.2598358E-05 H
gradient norm  8.5180885E-03 H/a0    max. gradient  1.8197144E-03 H/a0
step length    5.4393738E-02 a0      max. step      1.2018280E-02 a0

--------------------------------------------------------------------------------

***  Geometry step: 41

 iSCC Total electronic   Diff electronic      SCC error    
    1   -0.19433990E+03    0.00000000E+00    0.26666403E-02
    2   -0.19434384E+03   -0.39359564E-02    0.11701904E-02
    3   -0.19434384E+03   -0.23111272E-05    0.25442906E-03
    4   -0.19434384E+03   -0.53295898E-06    0.45202931E-04
    5   -0.19434384E+03   -0.92126697E-08    0.46077607E-05
    6   -0.19434384E+03   -0.74922468E-09    0.13333675E-05
    7   -0.19434384E+03   -0.10913936E-10    0.41531408E-06
    8   -0.19434384E+03   -0.31263880E-12    0.89597799E-07
    9   -0.19434384E+03    0.00000000E+00    0.18770352E-07
   10   -0.19434384E+03   -0.56843419E-13    0.22826541E-08

Total Energy:                     -192.3765008466 H        -5234.8309 eV
Extrapolated to 0K:               -192.3765008466 H        -5234.8309 eV
Total Mermin free energy:         -192.3765008466 H        -5234.8309 eV
Force related energy:             -192.3765008466 H        -5234.8309 eV

Volume:                              0.100179E+05 au^3   0.148450E+04 A^3
Pressure:                            0.295162E-05 au     0.868396E+08 Pa
>> Charges saved for restart in charges.bin

total energy  -1.9237650E+02 H       energy change -1.1439946E-04 H
gradient norm  9.0566906E-03 H/a0    max. gradient  2.0868506E-03 H/a0
step length    7.8946222E-02 a0      max. step      1.8103819E-02 a0

--------------------------------------------------------------------------------

***  Geometry step: 42

 iSCC Total electronic   Diff electronic      SCC error    
    1   -0.19434384E+03    0.00000000E+00    0.15507193E-02
    2   -0.19434489E+03   -0.10526207E-02    0.73807865E-03
    3   -0.19434489E+03   -0.11400307E-05    0.22125015E-03
    4   -0.19434489E+03   -0.26199308E-06    0.22152632E-04
    5   -0.19434489E+03   -0.61771175E-08    0.30410869E-05
    6   -0.19434489E+03   -0.45312731E-09    0.69416936E-06
    7   -0.19434489E+03   -0.48885340E-11    0.25602420E-06
    8   -0.19434489E+03    0.28421709E-13    0.63415822E-07
    9   -0.19434489E+03   -0.11368684E-12    0.14455940E-07
   10   -0.19434489E+03    0.00000000E+00    0.16720239E-08

Total Energy:                     -192.3765972834 H        -5234.8336 eV
Extrapolated to 0K:               -192.3765972834 H        -5234.8336 eV
Total Mermin free energy:         -192.3765972834 H        -5234.8336 eV
Force related energy:             -192.3765972834 H        -5234.8336 eV

Volume:                              0.100231E+05 au^3   0.148527E+04 A^3
Pressure:                            0.272845E-05 au     0.802739E+08 Pa
>> Charges saved for restart in charges.bin

total energy  -1.9237660E+02 H       energy change -9.6436768E-05 H
gradient norm  7.7066258E-03 H/a0    max. gradient  1.7404155E-03 H/a0
step length    7.0022923E-02 a0      max. step      1.6004313E-02 a0

--------------------------------------------------------------------------------

***  Geometry step: 43

 iSCC Total electronic   Diff electronic      SCC error    
    1   -0.19434489E+03    0.00000000E+00    0.14085082E-02
    2   -0.19434430E+03    0.58983844E-03    0.59487281E-03
    3   -0.19434431E+03   -0.10664828E-05    0.20109043E-03
    4   -0.19434431E+03   -0.21728377E-06    0.25181748E-04
    5   -0.19434431E+03   -0.46262869E-08    0.32813229E-05
    6   -0.19434431E+03   -0.41865178E-09    0.81301415E-06
    7   -0.19434431E+03   -0.76738615E-11    0.20036613E-06
    8   -0.19434431E+03   -0.17053026E-12    0.71707351E-07
    9   -0.19434431E+03   -0.28421709E-13    0.13095161E-07
   10   -0.19434431E+03    0.00000000E+00    0.24814466E-08

Total Energy:                     -192.3766900710 H        -5234.8361 eV
Extrapolated to 0K:               -192.3766900710 H        -5234.8361 eV
Total Mermin free energy:         -192.3766900710 H        -5234.8361 eV
Force related energy:             -192.3766900710 H        -5234.8361 eV

Volume:                              0.100289E+05 au^3   0.148614E+04 A^3
Pressure:                            0.213988E-05 au     0.629575E+08 Pa
>> Charges saved for restart in charges.bin

total energy  -1.9237669E+02 H       energy change -9.2787604E-05 H
gradient norm  6.7658350E-03 H/a0    max. gradient  1.9443249E-03 H/a0
step length    7.1254027E-02 a0      max. step      1.6555612E-02 a0

--------------------------------------------------------------------------------

***  Geometry step: 44

 iSCC Total electronic   Diff electronic      SCC error    
    1   -0.19434431E+03    0.00000000E+00    0.12507775E-02
    2   -0.19434203E+03    0.22767254E-02    0.44788818E-03
    3   -0.19434203E+03   -0.95992570E-06    0.15089267E-03
    4   -0.19434203E+03   -0.19054363E-06    0.26247120E-04
    5   -0.19434203E+03   -0.26678890E-08    0.28505205E-05
    6   -0.19434203E+03   -0.27989699E-09    0.78194215E-06
    7   -0.19434203E+03   -0.46327386E-11    0.17824676E-06
    8   -0.19434203E+03   -0.28421709E-13    0.41239036E-07
    9   -0.19434203E+03    0.28421709E-13    0.89355567E-08

Total Energy:                     -192.3767674570 H        -5234.8382 eV
Extrapolated to 0K:               -192.3767674570 H        -5234.8382 eV
Total Mermin free energy:         -192.3767674570 H        -5234.8382 eV
Force related energy:             -192.3767674570 H        -5234.8382 eV

Volume:                              0.100352E+05 au^3   0.148707E+04 A^3
Pressure:                            0.102933E-05 au     0.302839E+08 Pa
>> Charges saved for restart in charges.bin

total energy  -1.9237677E+02 H       energy change -7.7385988E-05 H
gradient norm  7.2754101E-03 H/a0    max. gradient  1.6918513E-03 H/a0
step length    6.2445556E-02 a0      max. step      1.4368308E-02 a0

--------------------------------------------------------------------------------

***  Geometry step: 45

 iSCC Total electronic   Diff electronic      SCC error    
    1   -0.19434203E+03    0.00000000E+00    0.10717031E-02
    2   -0.19433955E+03    0.24827748E-02    0.44211095E-03
    3   -0.19433955E+03   -0.97619952E-06    0.11800702E-03
    4   -0.19433955E+03   -0.21089042E-06    0.20007914E-04
    5   -0.19433955E+03   -0.22626807E-08    0.30940463E-05
    6   -0.19433955E+03   -0.25971758E-09    0.85202618E-06
    7   -0.19433955E+03   -0.33821834E-11    0.16385738E-06
    8   -0.19433955E+03   -0.11368684E-12    0.30803812E-07
    9   -0.19433955E+03    0.00000000E+00    0.11733851E-07
   10   -0.19433955E+03    0.00000000E+00    0.10329568E-08

Total Energy:                     -192.3768456712 H        -5234.8403 eV
Extrapolated to 0K:               -192.3768456712 H        -5234.8403 eV
Total Mermin free energy:         -192.3768456712 H        -5234.8403 eV
Force related energy:             -192.3768456712 H        -5234.8403 eV

Volume:                              0.100416E+05 au^3   0.148801E+04 A^3
Pressure:                           -0.272504E-06 au    -0.801733E+07 Pa
>> Charges saved for restart in charges.bin

total energy  -1.9237685E+02 H       energy change -7.8214175E-05 H
gradient norm  7.4606075E-03 H/a0    max. gradient  1.5457020E-03 H/a0
step length    6.3773368E-02 a0      max. step      1.4888661E-02 a0

--------------------------------------------------------------------------------

***  Geometry step: 46

 iSCC Total electronic   Diff electronic      SCC error    
    1   -0.19433955E+03    0.00000000E+00    0.92536568E-03
    2   -0.19433842E+03    0.11305090E-02    0.48961314E-03
    3   -0.19433842E+03   -0.10932842E-05    0.14586439E-03
    4   -0.19433842E+03   -0.26987962E-06    0.14856523E-04
    5   -0.19433842E+03   -0.29079672E-08    0.31008228E-05
    6   -0.19433842E+03   -0.17382717E-09    0.71269767E-06
    7   -0.19433842E+03   -0.57696070E-11    0.19659290E-06
    8   -0.19433842E+03   -0.56843419E-13    0.41241833E-07
    9   -0.19433842E+03    0.28421709E-13    0.88484184E-08

Total Energy:                     -192.3769239350 H        -5234.8424 eV
Extrapolated to 0K:               -192.3769239350 H        -5234.8424 eV
Total Mermin free energy:         -192.3769239350 H        -5234.8424 eV
Force related energy:             -192.3769239350 H        -5234.8424 eV

Volume:                              0.100468E+05 au^3   0.148879E+04 A^3
Pressure:                           -0.104673E-05 au    -0.307959E+08 Pa
>> Charges saved for restart in charges.bin

total energy  -1.9237692E+02 H       energy change -7.8263813E-05 H
gradient norm  6.6725803E-03 H/a0    max. gradient  1.4381492E-03 H/a0
step length    6.5745808E-02 a0      max. step      1.5796035E-02 a0

--------------------------------------------------------------------------------

***  Geometry step: 47

 iSCC Total electronic   Diff electronic      SCC error    
    1   -0.19433842E+03    0.00000000E+00    0.97423265E-03
    2   -0.19433928E+03   -0.85889141E-03    0.43331111E-03
    3   -0.19433928E+03   -0.10750852E-05    0.13279642E-03
    4   -0.19433928E+03   -0.27737659E-06    0.14928678E-04
    5   -0.19433928E+03   -0.31853631E-08    0.32775918E-05
    6   -0.19433928E+03   -0.17718094E-09    0.71312988E-06
    7   -0.19433928E+03   -0.56843419E-11    0.16097325E-06
    8   -0.19433928E+03   -0.14210855E-12    0.48963430E-07
    9   -0.19433928E+03    0.56843419E-13    0.83892200E-08

Total Energy:                     -192.3769907383 H        -5234.8443 eV
Extrapolated to 0K:               -192.3769907383 H        -5234.8443 eV
Total Mermin free energy:         -192.3769907383 H        -5234.8443 eV
Force related energy:             -192.3769907383 H        -5234.8443 eV

Volume:                              0.100501E+05 au^3   0.148928E+04 A^3
Pressure:                           -0.111791E-05 au    -0.328899E+08 Pa
>> Charges saved for restart in charges.bin

total energy  -1.9237699E+02 H       energy change -6.6803317E-05 H
gradient norm  5.7449725E-03 H/a0    max. gradient  1.2542939E-03 H/a0
step length    6.1902860E-02 a0      max. step      1.5249674E-02 a0

--------------------------------------------------------------------------------

***  Geometry step: 48

 iSCC Total electronic   Diff electronic      SCC error    
    1   -0.19433928E+03    0.00000000E+00    0.11326174E-02
    2   -0.19434153E+03   -0.22532837E-02    0.48564184E-03
    3   -0.19434153E+03   -0.96544878E-06    0.96967574E-04
    4   -0.19434153E+03   -0.23267017E-06    0.17820344E-04
    5   -0.19434153E+03   -0.26078339E-08    0.33331312E-05
    6   -0.19434153E+03   -0.18738433E-09    0.85876984E-06
    7   -0.19434153E+03   -0.82707174E-11    0.18606487E-06
    8   -0.19434153E+03   -0.17053026E-12    0.42459282E-07
    9   -0.19434153E+03   -0.28421709E-13    0.95854333E-08

Total Energy:                     -192.3770469597 H        -5234.8458 eV
Extrapolated to 0K:               -192.3770469597 H        -5234.8458 eV
Total Mermin free energy:         -192.3770469597 H        -5234.8458 eV
Force related energy:             -192.3770469597 H        -5234.8458 eV

Volume:                              0.100517E+05 au^3   0.148951E+04 A^3
Pressure:                           -0.690029E-06 au    -0.203013E+08 Pa
>> Charges saved for restart in charges.bin

total energy  -1.9237705E+02 H       energy change -5.6221397E-05 H
gradient norm  5.8680430E-03 H/a0    max. gradient  1.7115169E-03 H/a0
step length    5.6441131E-02 a0      max. step      1.4262105E-02 a0

--------------------------------------------------------------------------------

***  Geometry step: 49

 iSCC Total electronic   Diff electronic      SCC error    
    1   -0.19434153E+03    0.00000000E+00    0.14991511E-02
    2   -0.19434505E+03   -0.35205674E-02    0.64066523E-03
    3   -0.19434506E+03   -0.10441209E-05    0.11596148E-03
    4   -0.19434506E+03   -0.23723851E-06    0.18263256E-04
    5   -0.19434506E+03   -0.27895055E-08    0.22653330E-05
    6   -0.19434506E+03   -0.23069902E-09    0.41403727E-06
    7   -0.19434506E+03   -0.63380412E-11    0.15529413E-06
    8   -0.19434506E+03   -0.11368684E-12    0.52820946E-07
    9   -0.19434506E+03    0.28421709E-13    0.75123308E-08

Total Energy:                     -192.3771102343 H        -5234.8475 eV
Extrapolated to 0K:               -192.3771102343 H        -5234.8475 eV
Total Mermin free energy:         -192.3771102343 H        -5234.8475 eV
Force related energy:             -192.3771102343 H        -5234.8475 eV

Volume:                              0.100517E+05 au^3   0.148951E+04 A^3
Pressure:                            0.187199E-06 au     0.550759E+07 Pa
>> Charges saved for restart in charges.bin

total energy  -1.9237711E+02 H       energy change -6.3274591E-05 H
gradient norm  6.7995833E-03 H/a0    max. gradient  1.7848558E-03 H/a0
step length    6.1291934E-02 a0      max. step      1.5712877E-02 a0

--------------------------------------------------------------------------------

***  Geometry step: 50

 iSCC Total electronic   Diff electronic      SCC error    
    1   -0.19434506E+03    0.00000000E+00    0.16748765E-02
    2   -0.19434860E+03   -0.35438773E-02    0.70177320E-03
    3   -0.19434860E+03   -0.11975225E-05    0.17723174E-03
    4   -0.19434860E+03   -0.24459931E-06    0.22386535E-04
    5   -0.19434860E+03   -0.45632191E-08    0.38678623E-05
    6   -0.19434860E+03   -0.26702196E-09    0.88210291E-06
    7   -0.19434860E+03   -0.37516656E-11    0.18313193E-06
    8   -0.19434860E+03   -0.14210855E-12    0.43729028E-07
    9   -0.19434860E+03   -0.85265128E-13    0.10948229E-07
   10   -0.19434860E+03    0.28421709E-13    0.13201333E-08

Total Energy:                     -192.3771861719 H        -5234.8496 eV
Extrapolated to 0K:               -192.3771861719 H        -5234.8496 eV
Total Mermin free energy:         -192.3771861719 H        -5234.8496 eV
Force related energy:             -192.3771861719 H        -5234.8496 eV

Volume:                              0.100511E+05 au^3   0.148942E+04 A^3
Pressure:                            0.120701E-05 au     0.355114E+08 Pa
>> Charges saved for restart in charges.bin

total energy  -1.9237719E+02 H       energy change -7.5937571E-05 H
gradient norm  7.4764721E-03 H/a0    max. gradient  1.6416483E-03 H/a0
step length    7.2395706E-02 a0      max. step      1.8462788E-02 a0

--------------------------------------------------------------------------------

***  Geometry step: 51

 iSCC Total electronic   Diff electronic      SCC error    
    1   -0.19434860E+03    0.00000000E+00    0.14769836E-02
    2   -0.19435045E+03   -0.18511086E-02    0.85325963E-03
    3   -0.19435045E+03   -0.16938644E-05    0.19896106E-03
    4   -0.19435045E+03   -0.36080499E-06    0.16681158E-04
    5   -0.19435045E+03   -0.97262216E-08    0.63633662E-05
    6   -0.19435045E+03   -0.40239456E-09    0.10833195E-05
    7   -0.19435045E+03   -0.65654149E-11    0.27388540E-06
    8   -0.19435045E+03   -0.31263880E-12    0.57435094E-07
    9   -0.19435045E+03   -0.85265128E-13    0.14007144E-07
   10   -0.19435045E+03    0.28421709E-13    0.19380870E-08

Total Energy:                     -192.3772742593 H        -5234.8520 eV
Extrapolated to 0K:               -192.3772742593 H        -5234.8520 eV
Total Mermin free energy:         -192.3772742593 H        -5234.8520 eV
Force related energy:             -192.3772742593 H        -5234.8520 eV

Volume:                              0.100511E+05 au^3   0.148942E+04 A^3
Pressure:                            0.174465E-05 au     0.513293E+08 Pa
>> Charges saved for restart in charges.bin

total energy  -1.9237727E+02 H       energy change -8.8087452E-05 H
gradient norm  7.1389316E-03 H/a0    max. gradient  1.5298130E-03 H/a0
step length    8.4163285E-02 a0      max. step      2.1314114E-02 a0

--------------------------------------------------------------------------------

***  Geometry step: 52

 iSCC Total electronic   Diff electronic      SCC error    
    1   -0.19435045E+03    0.00000000E+00    0.18165693E-02
    2   -0.19434973E+03    0.72637457E-03    0.10604874E-02
    3   -0.19434973E+03   -0.19289860E-05    0.23762505E-03
    4   -0.19434973E+03   -0.43600977E-06    0.28843283E-04
    5   -0.19434973E+03   -0.10568698E-07    0.61982785E-05
    6   -0.19434973E+03   -0.62979666E-09    0.12379598E-05
    7   -0.19434973E+03   -0.96065378E-11    0.28560554E-06
    8   -0.19434973E+03   -0.31263880E-12    0.51892163E-07
[...]
Extrapolated to 0K:               -192.3783321174 H        -5234.8808 eV
Total Mermin free energy:         -192.3783321174 H        -5234.8808 eV
Force related energy:             -192.3783321174 H        -5234.8808 eV

Volume:                              0.100801E+05 au^3   0.149371E+04 A^3
Pressure:                           -0.192412E-06 au    -0.566095E+07 Pa
>> Charges saved for restart in charges.bin

total energy  -1.9237833E+02 H       energy change -1.2859492E-06 H
gradient norm  8.6156670E-04 H/a0    max. gradient  1.5757924E-04 H/a0
step length    5.8028188E-03 a0      max. step      2.0085971E-03 a0

--------------------------------------------------------------------------------

***  Geometry step: 105

 iSCC Total electronic   Diff electronic      SCC error    
    1   -0.19435535E+03    0.00000000E+00    0.12424646E-03
    2   -0.19435542E+03   -0.67119383E-04    0.49204218E-04
    3   -0.19435542E+03   -0.17153354E-07    0.15402587E-04
    4   -0.19435542E+03   -0.33367940E-08    0.30532240E-05
    5   -0.19435542E+03   -0.49965365E-10    0.45527513E-06
    6   -0.19435542E+03   -0.47464255E-11    0.10091440E-06
    7   -0.19435542E+03   -0.56843419E-13    0.14048835E-07
    8   -0.19435542E+03    0.85265128E-13    0.29153764E-08

Total Energy:                     -192.3783333590 H        -5234.8808 eV
Extrapolated to 0K:               -192.3783333590 H        -5234.8808 eV
Total Mermin free energy:         -192.3783333590 H        -5234.8808 eV
Force related energy:             -192.3783333590 H        -5234.8808 eV

Volume:                              0.100801E+05 au^3   0.149372E+04 A^3
Pressure:                           -0.211133E-06 au    -0.621176E+07 Pa
>> Charges saved for restart in charges.bin

total energy  -1.9237833E+02 H       energy change -1.2416520E-06 H
gradient norm  9.1820333E-04 H/a0    max. gradient  1.7549004E-04 H/a0
step length    6.4383226E-03 a0      max. step      2.2804318E-03 a0

--------------------------------------------------------------------------------

***  Geometry step: 106

 iSCC Total electronic   Diff electronic      SCC error    
    1   -0.19435542E+03    0.00000000E+00    0.16714563E-03
    2   -0.19435554E+03   -0.11819154E-03    0.68223729E-04
    3   -0.19435554E+03   -0.28021560E-07    0.17170933E-04
    4   -0.19435554E+03   -0.53923657E-08    0.35607472E-05
    5   -0.19435554E+03   -0.65028871E-10    0.51478792E-06
    6   -0.19435554E+03   -0.64801498E-11    0.13698459E-06
    7   -0.19435554E+03   -0.17053026E-12    0.13901718E-07
    8   -0.19435554E+03   -0.28421709E-13    0.41291162E-08

Total Energy:                     -192.3783348691 H        -5234.8808 eV
Extrapolated to 0K:               -192.3783348691 H        -5234.8808 eV
Total Mermin free energy:         -192.3783348691 H        -5234.8808 eV
Force related energy:             -192.3783348691 H        -5234.8808 eV

Volume:                              0.100801E+05 au^3   0.149372E+04 A^3
Pressure:                           -0.152586E-06 au    -0.448922E+07 Pa
>> Charges saved for restart in charges.bin

total energy  -1.9237833E+02 H       energy change -1.5100147E-06 H
gradient norm  9.7877820E-04 H/a0    max. gradient  1.7734908E-04 H/a0
step length    7.9751319E-03 a0      max. step      2.8664413E-03 a0

--------------------------------------------------------------------------------

***  Geometry step: 107

 iSCC Total electronic   Diff electronic      SCC error    
    1   -0.19435554E+03    0.00000000E+00    0.20253929E-03
    2   -0.19435557E+03   -0.29337443E-04    0.89157262E-04
    3   -0.19435557E+03   -0.27794471E-07    0.27670510E-04
    4   -0.19435557E+03   -0.56575118E-08    0.30748507E-05
    5   -0.19435557E+03   -0.11394263E-09    0.39032523E-06
    6   -0.19435557E+03   -0.10345502E-10    0.10500139E-06
    7   -0.19435557E+03   -0.11368684E-12    0.16374277E-07
    8   -0.19435557E+03    0.00000000E+00    0.47312803E-08

Total Energy:                     -192.3783363454 H        -5234.8809 eV
Extrapolated to 0K:               -192.3783363454 H        -5234.8809 eV
Total Mermin free energy:         -192.3783363454 H        -5234.8809 eV
Force related energy:             -192.3783363454 H        -5234.8809 eV

Volume:                              0.100803E+05 au^3   0.149374E+04 A^3
Pressure:                           -0.181881E-06 au    -0.535114E+07 Pa
>> Charges saved for restart in charges.bin

total energy  -1.9237834E+02 H       energy change -1.4763127E-06 H
gradient norm  9.0458841E-04 H/a0    max. gradient  2.0942163E-04 H/a0
step length    8.5252923E-03 a0      max. step      2.7562348E-03 a0

--------------------------------------------------------------------------------

***  Geometry step: 108

 iSCC Total electronic   Diff electronic      SCC error    
    1   -0.19435557E+03    0.00000000E+00    0.24587668E-03
    2   -0.19435559E+03   -0.21910567E-04    0.12135987E-03
    3   -0.19435559E+03   -0.21254266E-07    0.34630066E-04
    4   -0.19435559E+03   -0.48916320E-08    0.33341412E-05
    5   -0.19435559E+03   -0.14611601E-09    0.33483188E-06
    6   -0.19435559E+03   -0.66506800E-11    0.90045341E-07
    7   -0.19435559E+03    0.00000000E+00    0.17259135E-07
    8   -0.19435559E+03   -0.28421709E-13    0.42731920E-08

Total Energy:                     -192.3783374371 H        -5234.8809 eV
Extrapolated to 0K:               -192.3783374371 H        -5234.8809 eV
Total Mermin free energy:         -192.3783374371 H        -5234.8809 eV
Force related energy:             -192.3783374371 H        -5234.8809 eV

Volume:                              0.100802E+05 au^3   0.149374E+04 A^3
Pressure:                           -0.132980E-06 au    -0.391241E+07 Pa
>> Charges saved for restart in charges.bin

total energy  -1.9237834E+02 H       energy change -1.0917623E-06 H
gradient norm  7.2755946E-04 H/a0    max. gradient  1.8394791E-04 H/a0
step length    3.3083545E-03 a0      max. step      7.3806643E-04 a0

--------------------------------------------------------------------------------

***  Geometry step: 109

 iSCC Total electronic   Diff electronic      SCC error    
    1   -0.19435559E+03    0.00000000E+00    0.26028019E-03
    2   -0.19435553E+03    0.61063713E-04    0.12654976E-03
    3   -0.19435553E+03   -0.30019095E-07    0.36643290E-04
    4   -0.19435553E+03   -0.67281860E-08    0.36849530E-05
    5   -0.19435553E+03   -0.13397994E-09    0.45832388E-06
    6   -0.19435553E+03   -0.88675733E-11    0.13535082E-06
    7   -0.19435553E+03   -0.11368684E-12    0.25852718E-07
    8   -0.19435553E+03   -0.85265128E-13    0.52363589E-08

Total Energy:                     -192.3783381647 H        -5234.8809 eV
Extrapolated to 0K:               -192.3783381647 H        -5234.8809 eV
Total Mermin free energy:         -192.3783381647 H        -5234.8809 eV
Force related energy:             -192.3783381647 H        -5234.8809 eV

Volume:                              0.100803E+05 au^3   0.149374E+04 A^3
Pressure:                           -0.175430E-06 au    -0.516134E+07 Pa
>> Charges saved for restart in charges.bin

total energy  -1.9237834E+02 H       energy change -7.2757720E-07 H
gradient norm  6.0614668E-04 H/a0    max. gradient  1.1441037E-04 H/a0
step length    3.6815005E-03 a0      max. step      9.3343898E-04 a0

--------------------------------------------------------------------------------

***  Geometry step: 110

 iSCC Total electronic   Diff electronic      SCC error    
    1   -0.19435553E+03    0.00000000E+00    0.96849313E-04
    2   -0.19435557E+03   -0.48074584E-04    0.41281828E-04
    3   -0.19435557E+03   -0.11504341E-07    0.15984581E-04
    4   -0.19435557E+03   -0.21592541E-08    0.20124888E-05
    5   -0.19435557E+03   -0.31690206E-10    0.28171223E-06
    6   -0.19435557E+03   -0.26432190E-11    0.56152217E-07
    7   -0.19435557E+03    0.28421709E-13    0.77129938E-08

Total Energy:                     -192.3783387517 H        -5234.8809 eV
Extrapolated to 0K:               -192.3783387517 H        -5234.8809 eV
Total Mermin free energy:         -192.3783387517 H        -5234.8809 eV
Force related energy:             -192.3783387517 H        -5234.8809 eV

Volume:                              0.100803E+05 au^3   0.149375E+04 A^3
Pressure:                           -0.145685E-06 au    -0.428620E+07 Pa
>> Charges saved for restart in charges.bin

total energy  -1.9237834E+02 H       energy change -5.8700735E-07 H
gradient norm  5.6978631E-04 H/a0    max. gradient  1.0104075E-04 H/a0
step length    4.4448899E-03 a0      max. step      1.0958166E-03 a0

--------------------------------------------------------------------------------

***  Geometry step: 111

 iSCC Total electronic   Diff electronic      SCC error    
    1   -0.19435557E+03    0.00000000E+00    0.20750662E-03
    2   -0.19435568E+03   -0.10856888E-03    0.92645691E-04
    3   -0.19435568E+03   -0.34028858E-07    0.18796863E-04
    4   -0.19435568E+03   -0.60672107E-08    0.35076364E-05
    5   -0.19435568E+03   -0.53915983E-10    0.29055476E-06
    6   -0.19435568E+03   -0.47180038E-11    0.85255108E-07
    7   -0.19435568E+03    0.00000000E+00    0.11834345E-07
    8   -0.19435568E+03   -0.28421709E-13    0.28781648E-08

Total Energy:                     -192.3783395211 H        -5234.8810 eV
Extrapolated to 0K:               -192.3783395211 H        -5234.8810 eV
Total Mermin free energy:         -192.3783395211 H        -5234.8810 eV
Force related energy:             -192.3783395211 H        -5234.8810 eV

Volume:                              0.100805E+05 au^3   0.149377E+04 A^3
Pressure:                           -0.116018E-06 au    -0.341336E+07 Pa
>> Charges saved for restart in charges.bin

total energy  -1.9237834E+02 H       energy change -7.6933938E-07 H
gradient norm  7.1678068E-04 H/a0    max. gradient  1.9943828E-04 H/a0
step length    1.0393192E-02 a0      max. step      2.7848521E-03 a0

--------------------------------------------------------------------------------

***  Geometry step: 112

 iSCC Total electronic   Diff electronic      SCC error    
    1   -0.19435568E+03    0.00000000E+00    0.93362484E-04
    2   -0.19435569E+03   -0.36479693E-05    0.43465242E-04
    3   -0.19435569E+03   -0.68805264E-08    0.13709010E-04
    4   -0.19435569E+03   -0.15419346E-08    0.12413636E-05
    5   -0.19435569E+03   -0.20378366E-10    0.16570525E-06
    6   -0.19435569E+03   -0.16484591E-11    0.43698626E-07
    7   -0.19435569E+03   -0.56843419E-13    0.84607192E-08

Total Energy:                     -192.3783400555 H        -5234.8810 eV
Extrapolated to 0K:               -192.3783400555 H        -5234.8810 eV
Total Mermin free energy:         -192.3783400555 H        -5234.8810 eV
Force related energy:             -192.3783400555 H        -5234.8810 eV

Volume:                              0.100805E+05 au^3   0.149377E+04 A^3
Pressure:                           -0.142816E-06 au    -0.420179E+07 Pa
>> Charges saved for restart in charges.bin

total energy  -1.9237834E+02 H       energy change -5.3442977E-07 H
gradient norm  5.9345885E-04 H/a0    max. gradient  1.3146590E-04 H/a0
step length    1.5445880E-03 a0      max. step      3.2489967E-04 a0

--------------------------------------------------------------------------------

***  Geometry step: 113

 iSCC Total electronic   Diff electronic      SCC error    
    1   -0.19435569E+03    0.00000000E+00    0.14030182E-03
    2   -0.19435573E+03   -0.46705691E-04    0.55125306E-04
    3   -0.19435573E+03   -0.23965953E-07    0.19497160E-04
    4   -0.19435573E+03   -0.48813718E-08    0.19227710E-05
    5   -0.19435573E+03   -0.62044592E-10    0.36714785E-06
    6   -0.19435573E+03   -0.54001248E-11    0.91609512E-07
    7   -0.19435573E+03    0.28421709E-13    0.13411725E-07
    8   -0.19435573E+03    0.28421709E-13    0.34972669E-08

Total Energy:                     -192.3783408087 H        -5234.8810 eV
Extrapolated to 0K:               -192.3783408087 H        -5234.8810 eV
Total Mermin free energy:         -192.3783408087 H        -5234.8810 eV
Force related energy:             -192.3783408087 H        -5234.8810 eV

Volume:                              0.100804E+05 au^3   0.149377E+04 A^3
Pressure:                           -0.134069E-06 au    -0.394443E+07 Pa
>> Charges saved for restart in charges.bin

total energy  -1.9237834E+02 H       energy change -7.5316879E-07 H
gradient norm  6.4757576E-04 H/a0    max. gradient  1.5311354E-04 H/a0
step length    3.4610734E-03 a0      max. step      7.2254255E-04 a0

--------------------------------------------------------------------------------

***  Geometry step: 114

 iSCC Total electronic   Diff electronic      SCC error    
    1   -0.19435573E+03    0.00000000E+00    0.12438388E-03
    2   -0.19435575E+03   -0.17484182E-04    0.53854278E-04
    3   -0.19435575E+03   -0.10516970E-07    0.15385191E-04
    4   -0.19435575E+03   -0.20517916E-08    0.17335609E-05
    5   -0.19435575E+03   -0.33026026E-10    0.33993250E-06
    6   -0.19435575E+03   -0.23021585E-11    0.64454571E-07
    7   -0.19435575E+03   -0.17053026E-12    0.82511358E-08

Total Energy:                     -192.3783413689 H        -5234.8810 eV
Extrapolated to 0K:               -192.3783413689 H        -5234.8810 eV
Total Mermin free energy:         -192.3783413689 H        -5234.8810 eV
Force related energy:             -192.3783413689 H        -5234.8810 eV

Volume:                              0.100804E+05 au^3   0.149376E+04 A^3
Pressure:                           -0.151607E-06 au    -0.446042E+07 Pa
>> Charges saved for restart in charges.bin

total energy  -1.9237834E+02 H       energy change -5.6021176E-07 H
gradient norm  6.1667349E-04 H/a0    max. gradient  1.3171771E-04 H/a0
step length    3.1044269E-03 a0      max. step      6.1654371E-04 a0

--------------------------------------------------------------------------------

***  Geometry step: 115

 iSCC Total electronic   Diff electronic      SCC error    
    1   -0.19435575E+03    0.00000000E+00    0.20302796E-03
    2   -0.19435582E+03   -0.66871019E-04    0.88181027E-04
    3   -0.19435582E+03   -0.19200229E-07    0.16428109E-04
    4   -0.19435582E+03   -0.33366803E-08    0.24608522E-05
    5   -0.19435582E+03   -0.41154635E-10    0.23636792E-06
    6   -0.19435582E+03   -0.39221959E-11    0.73987899E-07
    7   -0.19435582E+03   -0.28421709E-13    0.10478753E-07
    8   -0.19435582E+03    0.00000000E+00    0.28621812E-08

Total Energy:                     -192.3783423069 H        -5234.8810 eV
Extrapolated to 0K:               -192.3783423069 H        -5234.8810 eV
Total Mermin free energy:         -192.3783423069 H        -5234.8810 eV
Force related energy:             -192.3783423069 H        -5234.8810 eV

Volume:                              0.100803E+05 au^3   0.149375E+04 A^3
Pressure:                           -0.142412E-06 au    -0.418991E+07 Pa
>> Charges saved for restart in charges.bin

total energy  -1.9237834E+02 H       energy change -9.3798798E-07 H
gradient norm  6.2670511E-04 H/a0    max. gradient  1.4298825E-04 H/a0
step length    1.1186396E-02 a0      max. step      2.8578999E-03 a0

--------------------------------------------------------------------------------

***  Geometry step: 116

 iSCC Total electronic   Diff electronic      SCC error    
    1   -0.19435582E+03    0.00000000E+00    0.64654119E-04
    2   -0.19435580E+03    0.22329799E-04    0.36951118E-04
    3   -0.19435580E+03   -0.58005867E-08    0.12988421E-04
    4   -0.19435580E+03   -0.13714327E-08    0.98978620E-06
    5   -0.19435580E+03   -0.18729907E-10    0.30029460E-06
    6   -0.19435580E+03   -0.10516032E-11    0.35718435E-07
    7   -0.19435580E+03    0.56843419E-13    0.52745541E-08

Total Energy:                     -192.3783426866 H        -5234.8811 eV
Extrapolated to 0K:               -192.3783426866 H        -5234.8811 eV
Total Mermin free energy:         -192.3783426866 H        -5234.8811 eV
Force related energy:             -192.3783426866 H        -5234.8811 eV

Volume:                              0.100803E+05 au^3   0.149375E+04 A^3
Pressure:                           -0.153604E-06 au    -0.451918E+07 Pa
>> Charges saved for restart in charges.bin

total energy  -1.9237834E+02 H       energy change -3.7972495E-07 H
gradient norm  4.8616069E-04 H/a0    max. gradient  1.1733115E-04 H/a0
step length    1.1139618E-03 a0      max. step      1.9918730E-04 a0

--------------------------------------------------------------------------------

***  Geometry step: 117

 iSCC Total electronic   Diff electronic      SCC error    
    1   -0.19435580E+03    0.00000000E+00    0.18687561E-03
    2   -0.19435599E+03   -0.19617083E-03    0.81487459E-04
    3   -0.19435599E+03   -0.24032204E-07    0.20435611E-04
    4   -0.19435599E+03   -0.49937512E-08    0.29619560E-05
    5   -0.19435599E+03   -0.67444716E-10    0.80682244E-06
    6   -0.19435599E+03   -0.57127636E-11    0.15168766E-06
    7   -0.19435599E+03   -0.14210855E-12    0.13932649E-07
    8   -0.19435599E+03    0.85265128E-13    0.48165867E-08

Total Energy:                     -192.3783433662 H        -5234.8811 eV
Extrapolated to 0K:               -192.3783433662 H        -5234.8811 eV
Total Mermin free energy:         -192.3783433662 H        -5234.8811 eV
Force related energy:             -192.3783433662 H        -5234.8811 eV

Volume:                              0.100801E+05 au^3   0.149371E+04 A^3
Pressure:                           -0.600457E-07 au    -0.176660E+07 Pa
>> Charges saved for restart in charges.bin

total energy  -1.9237834E+02 H       energy change -6.7962182E-07 H
gradient norm  5.0686711E-04 H/a0    max. gradient  1.2274188E-04 H/a0
step length    1.2957447E-02 a0      max. step      2.8838425E-03 a0

--------------------------------------------------------------------------------

***  Geometry step: 118

 iSCC Total electronic   Diff electronic      SCC error    
    1   -0.19435599E+03    0.00000000E+00    0.64781976E-04
    2   -0.19435596E+03    0.35396289E-04    0.27983368E-04
    3   -0.19435596E+03   -0.28221336E-08    0.63682130E-05
    4   -0.19435596E+03   -0.60435923E-09    0.11325008E-05
    5   -0.19435596E+03   -0.65654149E-11    0.23900967E-06
    6   -0.19435596E+03   -0.73896445E-12    0.42507862E-07
    7   -0.19435596E+03    0.56843419E-13    0.35467522E-08

Total Energy:                     -192.3783436100 H        -5234.8811 eV
Extrapolated to 0K:               -192.3783436100 H        -5234.8811 eV
Total Mermin free energy:         -192.3783436100 H        -5234.8811 eV
Force related energy:             -192.3783436100 H        -5234.8811 eV

Volume:                              0.100801E+05 au^3   0.149372E+04 A^3
Pressure:                           -0.820618E-07 au    -0.241434E+07 Pa
>> Charges saved for restart in charges.bin

total energy  -1.9237834E+02 H       energy change -2.4376106E-07 H
gradient norm  4.1651039E-04 H/a0    max. gradient  9.9936768E-05 H/a0
step length    7.8022202E-04 a0      max. step      1.5932029E-04 a0

Geometry converged

--------------------------------------------------------------------------------
DFTB+ running times                          cpu [s]             wall clock [s]
--------------------------------------------------------------------------------
Pre-SCC initialisation                 +       4.23 (  0.1%)       2.66 (  0.2%)
SCC                                    +    6637.73 ( 97.5%)    1193.20 ( 97.2%)
Post-SCC processing                    +     166.99 (  2.5%)      31.16 (  2.5%)
--------------------------------------------------------------------------------
Missing                                +       0.16 (  0.0%)       0.02 (  0.0%)
Total                                  =    6809.11 (100.0%)    1227.04 (100.0%)
--------------------------------------------------------------------------------
