|===============================================================================
|
|  DFTB+ release 24.1
|
|  Copyright (C) 2006 - 2024  DFTB+ developers group
|
|===============================================================================
|
|  When publishing results obtained with DFTB+, please cite the following
|  reference:
|
|  * DFTB+, a software package for efficient approximate density functional
|    theory based atomistic simulations, J. Chem. Phys. 152, 124101 (2020).
|    [doi: 10.1063/1.5143190]
|
|  You should also cite additional publications crediting the parametrization
|  data you use. Please consult the documentation of the SK-files for the
|  references.
|
|===============================================================================

Reading input file 'dftb_in.hsd'
Parser version: 14

--------------------------------------------------------------------------------
Reading SK-files:
./SKFiles/Ge-Ge.skf
./SKFiles/Ge-Si.skf
./SKFiles/Ge-O.skf
./SKFiles/Si-Si.skf
./SKFiles/Si-O.skf
./SKFiles/O-O.skf
Done.


Processed input in HSD format written to 'dftb_pin.hsd'

Starting initialization...
--------------------------------------------------------------------------------
WARNING!
-> Dipole printed for extended system : value printed is not well defined
MPI processes:               1
OpenMP threads:              8
BLACS orbital grid size:     1 x 1
BLACS atom grid size:        1 x 1
Chosen random seed:          141805662
Current stacksize:           unlimited
Mode:                        Static calculation
Self consistent charges:     Yes
SCC-tolerance:                 0.100000E-07
Max. scc iterations:                    500
Shell resolved Hubbard:      No
Spin polarisation:           No
Nr. of up electrons:           192.000000
Nr. of down electrons:         192.000000
Periodic boundaries:         Yes
Electronic solver:           Relatively robust
Mixer:                       Broyden mixer
Mixing parameter:                  0.200000
Maximal SCC-cycles:                     500
Nr. of chrg. vec. in memory:            500
Electronic temperature:              0.100000E-07 H      0.272114E-06 eV
Initial charges:             Set automatically (system chrg:   0.000E+00)
Included shells:            Ge:  s, p, d
                            Si:  s, p, d
                             O:  s, p
K-points and weights:           1:  0.500000  0.500000  0.500000     1.000000

K-points in absolute space:     1:  0.025319  0.017606  0.037774

Extra options:
                             Mulliken analysis
Force type                   original

--------------------------------------------------------------------------------

***  Geometry step: 0

 iSCC Total electronic   Diff electronic      SCC error    
    1    0.00000000E+00    0.00000000E+00    0.14597559E+01
    2   -0.19480278E+03   -0.19480278E+03    0.99383460E+00
    3   -0.19516912E+03   -0.36634452E+00    0.59394554E-01
    4   -0.19548495E+03   -0.31583477E+00    0.28000540E-01
    5   -0.19548696E+03   -0.20018296E-02    0.76211666E-02
    6   -0.19548710E+03   -0.14485217E-03    0.17064760E-02
    7   -0.19548711E+03   -0.38790208E-05    0.47997382E-03
    8   -0.19548711E+03   -0.11182876E-05    0.63270967E-04
    9   -0.19548711E+03   -0.64346750E-07    0.33616071E-04
   10   -0.19548711E+03   -0.54768634E-10    0.15614152E-05
   11   -0.19548711E+03   -0.21694291E-09    0.36038985E-06
   12   -0.19548711E+03   -0.29274361E-11    0.22046649E-06
   13   -0.19548711E+03   -0.85265128E-13    0.19884835E-07
   14   -0.19548711E+03    0.56843419E-13    0.53256453E-08

Total Energy:                     -191.8772120412 H        -5221.2446 eV
Extrapolated to 0K:               -191.8772120412 H        -5221.2446 eV
Total Mermin free energy:         -191.8772120412 H        -5221.2446 eV
Force related energy:             -191.8772120412 H        -5221.2446 eV

Volume:                              0.913789E+04 au^3   0.135410E+04 A^3
Pressure:                            0.716002E-03 au     0.210655E+11 Pa
>> Charges saved for restart in charges.bin

total energy  -1.9187721E+02 H       energy change -1.9187721E+02 H
gradient norm  8.5964680E-01 H/a0    max. gradient  4.4217544E-01 H/a0
step length    0.0000000E+00 a0      max. step      0.0000000E+00 a0

--------------------------------------------------------------------------------

***  Geometry step: 1

 iSCC Total electronic   Diff electronic      SCC error    
    1   -0.19548711E+03    0.00000000E+00    0.93805564E-01
    2   -0.19513843E+03    0.34868065E+00    0.46133737E-01
    3   -0.19514468E+03   -0.62574360E-02    0.15210179E-01
    4   -0.19514611E+03   -0.14299336E-02    0.92154235E-03
    5   -0.19514613E+03   -0.16229487E-04    0.31715815E-03
    6   -0.19514613E+03   -0.61795245E-06    0.11975064E-03
    7   -0.19514613E+03   -0.44564956E-07    0.19521519E-04
    8   -0.19514613E+03   -0.38350265E-08    0.22660757E-05
    9   -0.19514613E+03   -0.22677682E-09    0.64507068E-06
   10   -0.19514613E+03   -0.36664005E-11    0.21487132E-06
   11   -0.19514613E+03   -0.28421709E-13    0.28364664E-07
   12   -0.19514613E+03   -0.56843419E-13    0.76397959E-08

Total Energy:                     -192.0366457214 H        -5225.5830 eV
Extrapolated to 0K:               -192.0366457214 H        -5225.5830 eV
Total Mermin free energy:         -192.0366457214 H        -5225.5830 eV
Force related energy:             -192.0366457214 H        -5225.5830 eV

Volume:                              0.944776E+04 au^3   0.140001E+04 A^3
Pressure:                            0.472298E-03 au     0.138955E+11 Pa
>> Charges saved for restart in charges.bin

total energy  -1.9203665E+02 H       energy change -1.5943368E-01 H
gradient norm  5.8365929E-01 H/a0    max. gradient  1.6023796E-01 H/a0
step length    5.7521424E-01 a0      max. step      2.9587222E-01 a0

--------------------------------------------------------------------------------

***  Geometry step: 2

 iSCC Total electronic   Diff electronic      SCC error    
    1   -0.19514613E+03    0.00000000E+00    0.58288571E-01
    2   -0.19507567E+03    0.70457899E-01    0.34643026E-01
    3   -0.19507828E+03   -0.26095906E-02    0.95849605E-02
    4   -0.19507892E+03   -0.63634941E-03    0.77682294E-03
    5   -0.19507892E+03   -0.61652848E-05    0.21102117E-03
    6   -0.19507892E+03   -0.33719692E-06    0.10468787E-03
    7   -0.19507892E+03   -0.19948857E-07    0.18417700E-04
    8   -0.19507892E+03   -0.18643505E-08    0.20617772E-05
    9   -0.19507892E+03   -0.11831958E-09    0.65328327E-06
   10   -0.19507892E+03   -0.21600499E-11    0.20763653E-06
   11   -0.19507892E+03    0.00000000E+00    0.28052904E-07
   12   -0.19507892E+03    0.56843419E-13    0.45227804E-08

Total Energy:                     -192.1724903255 H        -5229.2795 eV
Extrapolated to 0K:               -192.1724903255 H        -5229.2795 eV
Total Mermin free energy:         -192.1724903255 H        -5229.2795 eV
Force related energy:             -192.1724903255 H        -5229.2795 eV

Volume:                              0.943864E+04 au^3   0.139866E+04 A^3
Pressure:                            0.401245E-03 au     0.118050E+11 Pa
>> Charges saved for restart in charges.bin

total energy  -1.9217249E+02 H       energy change -1.3584460E-01 H
gradient norm  2.8485731E-01 H/a0    max. gradient  6.9622339E-02 H/a0
step length    3.8184521E-01 a0      max. step      9.7996224E-02 a0

--------------------------------------------------------------------------------

***  Geometry step: 3

 iSCC Total electronic   Diff electronic      SCC error    
    1   -0.19507892E+03    0.00000000E+00    0.59767768E-01
    2   -0.19488771E+03    0.19121501E+00    0.35682387E-01
    3   -0.19488941E+03   -0.17044698E-02    0.79621042E-02
    4   -0.19488988E+03   -0.46227897E-03    0.66191607E-03
    5   -0.19488988E+03   -0.51739115E-05    0.19281216E-03
    6   -0.19488988E+03   -0.30242273E-06    0.10563281E-03
    7   -0.19488988E+03   -0.11210403E-07    0.74586781E-05
    8   -0.19488988E+03   -0.87064222E-09    0.10651549E-05
    9   -0.19488988E+03   -0.42490456E-10    0.25379820E-06
   10   -0.19488988E+03   -0.34106051E-12    0.43797970E-07
   11   -0.19488988E+03   -0.56843419E-13    0.11119704E-07
   12   -0.19488988E+03    0.28421709E-13    0.28612481E-08

Total Energy:                     -192.2585887614 H        -5231.6224 eV
Extrapolated to 0K:               -192.2585887614 H        -5231.6224 eV
Total Mermin free energy:         -192.2585887614 H        -5231.6224 eV
Force related energy:             -192.2585887614 H        -5231.6224 eV

Volume:                              0.951122E+04 au^3   0.140942E+04 A^3
Pressure:                            0.295882E-03 au     0.870514E+10 Pa
>> Charges saved for restart in charges.bin

total energy  -1.9225859E+02 H       energy change -8.6098436E-02 H
gradient norm  1.8086086E-01 H/a0    max. gradient  5.9993752E-02 H/a0
step length    4.8094601E-01 a0      max. step      1.1963503E-01 a0

--------------------------------------------------------------------------------

***  Geometry step: 4

 iSCC Total electronic   Diff electronic      SCC error    
    1   -0.19488988E+03    0.00000000E+00    0.44820909E-01
    2   -0.19466608E+03    0.22379782E+00    0.25772426E-01
    3   -0.19466642E+03   -0.33448373E-03    0.27839643E-02
    4   -0.19466651E+03   -0.90159738E-04    0.54876847E-03
    5   -0.19466651E+03   -0.43256438E-05    0.19660054E-03
    6   -0.19466651E+03   -0.13320519E-06    0.82908072E-04
    7   -0.19466651E+03   -0.29626790E-08    0.53646326E-05
    8   -0.19466651E+03   -0.45648108E-09    0.12161601E-05
    9   -0.19466651E+03   -0.33537617E-10    0.20348071E-06
   10   -0.19466651E+03   -0.28421709E-12    0.51027677E-07
   11   -0.19466651E+03   -0.28421709E-13    0.10394846E-07
   12   -0.19466651E+03   -0.28421709E-13    0.26520470E-08

Total Energy:                     -192.3039095914 H        -5232.8556 eV
Extrapolated to 0K:               -192.3039095914 H        -5232.8556 eV
Total Mermin free energy:         -192.3039095914 H        -5232.8556 eV
Force related energy:             -192.3039095914 H        -5232.8556 eV

Volume:                              0.962032E+04 au^3   0.142558E+04 A^3
Pressure:                            0.186002E-03 au     0.547238E+10 Pa
>> Charges saved for restart in charges.bin

total energy  -1.9230391E+02 H       energy change -4.5320830E-02 H
gradient norm  1.5517606E-01 H/a0    max. gradient  5.8175295E-02 H/a0
step length    4.3849683E-01 a0      max. step      9.3717557E-02 a0

--------------------------------------------------------------------------------

***  Geometry step: 5

 iSCC Total electronic   Diff electronic      SCC error    
    1   -0.19466651E+03    0.00000000E+00    0.28028680E-01
    2   -0.19446465E+03    0.20186346E+00    0.15941859E-01
    3   -0.19446513E+03   -0.48209644E-03    0.26898371E-02
    4   -0.19446524E+03   -0.10934939E-03    0.37219897E-03
    5   -0.19446524E+03   -0.30792298E-05    0.16204127E-03
    6   -0.19446524E+03   -0.13555339E-06    0.73479470E-04
    7   -0.19446524E+03   -0.23905500E-08    0.67826495E-05
    8   -0.19446524E+03   -0.37249492E-09    0.12436492E-05
    9   -0.19446524E+03   -0.27085889E-10    0.18616237E-06
   10   -0.19446524E+03   -0.54001248E-12    0.28677618E-07
   11   -0.19446524E+03   -0.56843419E-13    0.10035234E-07
   12   -0.19446524E+03    0.56843419E-13    0.30028913E-08

Total Energy:                     -192.3270415692 H        -5233.4851 eV
Extrapolated to 0K:               -192.3270415692 H        -5233.4851 eV
Total Mermin free energy:         -192.3270415692 H        -5233.4851 eV
Force related energy:             -192.3270415692 H        -5233.4851 eV

Volume:                              0.972194E+04 au^3   0.144064E+04 A^3
Pressure:                            0.989575E-04 au     0.291143E+10 Pa
>> Charges saved for restart in charges.bin

total energy  -1.9232704E+02 H       energy change -2.3131978E-02 H
gradient norm  1.4515012E-01 H/a0    max. gradient  8.0805192E-02 H/a0
step length    4.0569677E-01 a0      max. step      9.1491852E-02 a0

--------------------------------------------------------------------------------

***  Geometry step: 6

 iSCC Total electronic   Diff electronic      SCC error    
    1   -0.19446524E+03    0.00000000E+00    0.32810659E-01
    2   -0.19434417E+03    0.12107846E+00    0.14254013E-01
    3   -0.19434474E+03   -0.57703078E-03    0.34111029E-02
    4   -0.19434487E+03   -0.12928757E-03    0.57544869E-03
    5   -0.19434487E+03   -0.12448432E-05    0.78048044E-04
    6   -0.19434487E+03   -0.11507788E-06    0.27324891E-04
    7   -0.19434487E+03   -0.27748968E-08    0.74814329E-05
    8   -0.19434487E+03   -0.26261660E-09    0.12516835E-05
    9   -0.19434487E+03   -0.11993961E-10    0.28590498E-06
   10   -0.19434487E+03   -0.59685590E-12    0.55473618E-07
   11   -0.19434487E+03    0.56843419E-13    0.97582080E-08

Total Energy:                     -192.3384976832 H        -5233.7968 eV
Extrapolated to 0K:               -192.3384976832 H        -5233.7968 eV
Total Mermin free energy:         -192.3384976832 H        -5233.7968 eV
Force related energy:             -192.3384976832 H        -5233.7968 eV

Volume:                              0.977532E+04 au^3   0.144855E+04 A^3
Pressure:                            0.449651E-04 au     0.132292E+10 Pa
>> Charges saved for restart in charges.bin

total energy  -1.9233850E+02 H       energy change -1.1456114E-02 H
gradient norm  1.1724154E-01 H/a0    max. gradient  6.3535786E-02 H/a0
step length    3.2028236E-01 a0      max. step      6.4621135E-02 a0

--------------------------------------------------------------------------------

***  Geometry step: 7

 iSCC Total electronic   Diff electronic      SCC error    
    1   -0.19434487E+03    0.00000000E+00    0.15073422E-01
    2   -0.19433095E+03    0.13921318E-01    0.63976578E-02
    3   -0.19433119E+03   -0.23738659E-03    0.17175835E-02
    4   -0.19433124E+03   -0.54701425E-04    0.35142222E-03
    5   -0.19433124E+03   -0.52262462E-06    0.53035660E-04
    6   -0.19433124E+03   -0.42151811E-07    0.19957674E-04
    7   -0.19433124E+03   -0.13001511E-08    0.72432446E-05
    8   -0.19433124E+03   -0.65256245E-10    0.77139212E-06
    9   -0.19433124E+03   -0.59401373E-11    0.17585127E-06
   10   -0.19433124E+03   -0.28421709E-12    0.25534614E-07
   11   -0.19433124E+03    0.28421709E-13    0.44159112E-08

Total Energy:                     -192.3463002314 H        -5234.0091 eV
Extrapolated to 0K:               -192.3463002314 H        -5234.0091 eV
Total Mermin free energy:         -192.3463002314 H        -5234.0091 eV
Force related energy:             -192.3463002314 H        -5234.0091 eV

Volume:                              0.978287E+04 au^3   0.144967E+04 A^3
Pressure:                            0.364906E-04 au     0.107359E+10 Pa
>> Charges saved for restart in charges.bin

total energy  -1.9234630E+02 H       energy change -7.8025482E-03 H
gradient norm  6.7984585E-02 H/a0    max. gradient  3.0729054E-02 H/a0
step length    1.4101980E-01 a0      max. step      3.0659836E-02 a0

--------------------------------------------------------------------------------

***  Geometry step: 8

 iSCC Total electronic   Diff electronic      SCC error    
    1   -0.19433124E+03    0.00000000E+00    0.19286176E-01
    2   -0.19435433E+03   -0.23082978E-01    0.11723501E-01
    3   -0.19435448E+03   -0.15427951E-03    0.21550276E-02
    4   -0.19435452E+03   -0.40119965E-04    0.21077734E-03
    5   -0.19435452E+03   -0.12013607E-05    0.10714434E-03
    6   -0.19435452E+03   -0.47099491E-07    0.30903592E-04
    7   -0.19435452E+03   -0.10713848E-08    0.55176434E-05
    8   -0.19435452E+03   -0.90835783E-10    0.55231049E-06
    9   -0.19435452E+03   -0.87538865E-11    0.14614059E-06
   10   -0.19435452E+03   -0.19895197E-12    0.15015987E-07
   11   -0.19435452E+03    0.28421709E-13    0.36202876E-08

Total Energy:                     -192.3530724565 H        -5234.1934 eV
Extrapolated to 0K:               -192.3530724565 H        -5234.1934 eV
Total Mermin free energy:         -192.3530724565 H        -5234.1934 eV
Force related energy:             -192.3530724565 H        -5234.1934 eV

Volume:                              0.976845E+04 au^3   0.144754E+04 A^3
Pressure:                            0.411777E-04 au     0.121149E+10 Pa
>> Charges saved for restart in charges.bin

total energy  -1.9235307E+02 H       energy change -6.7722251E-03 H
gradient norm  5.4673934E-02 H/a0    max. gradient  2.2134959E-02 H/a0
step length    1.8778929E-01 a0      max. step      3.8409273E-02 a0

--------------------------------------------------------------------------------

***  Geometry step: 9

 iSCC Total electronic   Diff electronic      SCC error    
    1   -0.19435452E+03    0.00000000E+00    0.12724416E-01
    2   -0.19437009E+03   -0.15569270E-01    0.77970172E-02
    3   -0.19437017E+03   -0.75485646E-04    0.13829520E-02
    4   -0.19437019E+03   -0.19525386E-04    0.21313223E-03
    5   -0.19437019E+03   -0.78336109E-06    0.84919294E-04
    6   -0.19437019E+03   -0.54719777E-07    0.19991642E-04
    7   -0.19437019E+03   -0.13847909E-08    0.55596763E-05
    8   -0.19437019E+03   -0.40273562E-10    0.46239182E-06
    9   -0.19437019E+03   -0.61675109E-11    0.91446014E-07
   10   -0.19437019E+03   -0.19895197E-12    0.12114956E-07
   11   -0.19437019E+03    0.85265128E-13    0.24061517E-08

Total Energy:                     -192.3566817179 H        -5234.2916 eV
Extrapolated to 0K:               -192.3566817179 H        -5234.2916 eV
Total Mermin free energy:         -192.3566817179 H        -5234.2916 eV
Force related energy:             -192.3566817179 H        -5234.2916 eV

Volume:                              0.976012E+04 au^3   0.144630E+04 A^3
Pressure:                            0.448954E-04 au     0.132087E+10 Pa
>> Charges saved for restart in charges.bin

total energy  -1.9235668E+02 H       energy change -3.6092614E-03 H
gradient norm  4.4756591E-02 H/a0    max. gradient  1.5907709E-02 H/a0
step length    1.7043163E-01 a0      max. step      3.3454204E-02 a0

--------------------------------------------------------------------------------

***  Geometry step: 10

 iSCC Total electronic   Diff electronic      SCC error    
    1   -0.19437019E+03    0.00000000E+00    0.65929667E-02
    2   -0.19436893E+03    0.12565882E-02    0.32496403E-02
    3   -0.19436897E+03   -0.37122302E-04    0.81984326E-03
    4   -0.19436898E+03   -0.93364779E-05    0.10579257E-03
    5   -0.19436898E+03   -0.32003425E-06    0.27977738E-04
    6   -0.19436898E+03   -0.17148608E-07    0.91209240E-05
    7   -0.19436898E+03   -0.61288574E-09    0.27901268E-05
    8   -0.19436898E+03   -0.27853275E-10    0.27291121E-06
    9   -0.19436898E+03   -0.12221335E-11    0.53358666E-07
   10   -0.19436898E+03   -0.17053026E-12    0.13368306E-07
   11   -0.19436898E+03    0.56843419E-13    0.23636595E-08

Total Energy:                     -192.3590865570 H        -5234.3571 eV
Extrapolated to 0K:               -192.3590865570 H        -5234.3571 eV
Total Mermin free energy:         -192.3590865570 H        -5234.3571 eV
Force related energy:             -192.3590865570 H        -5234.3571 eV

Volume:                              0.976354E+04 au^3   0.144681E+04 A^3
Pressure:                            0.416253E-04 au     0.122466E+10 Pa
>> Charges saved for restart in charges.bin

total energy  -1.9235909E+02 H       energy change -2.4048391E-03 H
gradient norm  3.6561325E-02 H/a0    max. gradient  7.7004260E-03 H/a0
step length    1.4429119E-01 a0      max. step      2.7557055E-02 a0

--------------------------------------------------------------------------------

***  Geometry step: 11

 iSCC Total electronic   Diff electronic      SCC error    
    1   -0.19436898E+03    0.00000000E+00    0.78686142E-02
    2   -0.19436326E+03    0.57190912E-02    0.39710071E-02
    3   -0.19436332E+03   -0.55819041E-04    0.12978729E-02
    4   -0.19436333E+03   -0.12987514E-04    0.14256560E-03
    5   -0.19436333E+03   -0.36167441E-06    0.37621041E-04
    6   -0.19436333E+03   -0.26146608E-07    0.11100808E-04
    7   -0.19436333E+03   -0.74501827E-09    0.32647354E-05
    8   -0.19436333E+03   -0.33935521E-10    0.38659516E-06
    9   -0.19436333E+03   -0.23874236E-11    0.10644438E-06
   10   -0.19436333E+03   -0.85265128E-13    0.15442871E-07
   11   -0.19436333E+03   -0.28421709E-13    0.24659625E-08

Total Energy:                     -192.3615874121 H        -5234.4251 eV
Extrapolated to 0K:               -192.3615874121 H        -5234.4251 eV
Total Mermin free energy:         -192.3615874121 H        -5234.4251 eV
Force related energy:             -192.3615874121 H        -5234.4251 eV

Volume:                              0.977405E+04 au^3   0.144836E+04 A^3
Pressure:                            0.370280E-04 au     0.108940E+10 Pa
>> Charges saved for restart in charges.bin

total energy  -1.9236159E+02 H       energy change -2.5008551E-03 H
gradient norm  3.7118409E-02 H/a0    max. gradient  1.4593899E-02 H/a0
step length    1.6342128E-01 a0      max. step      3.1979458E-02 a0

--------------------------------------------------------------------------------

***  Geometry step: 12

 iSCC Total electronic   Diff electronic      SCC error    
    1   -0.19436333E+03    0.00000000E+00    0.75416482E-02
    2   -0.19434711E+03    0.16215005E-01    0.44982980E-02
    3   -0.19434716E+03   -0.43930867E-04    0.12270619E-02
    4   -0.19434717E+03   -0.10921060E-04    0.14355754E-03
    5   -0.19434717E+03   -0.28897762E-06    0.32764581E-04
    6   -0.19434717E+03   -0.17999213E-07    0.12632022E-04
    7   -0.19434717E+03   -0.23436542E-09    0.25319756E-05
    8   -0.19434717E+03   -0.18218316E-10    0.25951042E-06
    9   -0.19434717E+03   -0.18189894E-11    0.72210217E-07
   10   -0.19434717E+03   -0.28421709E-13    0.88265271E-08

Total Energy:                     -192.3636679958 H        -5234.4817 eV
Extrapolated to 0K:               -192.3636679958 H        -5234.4817 eV
Total Mermin free energy:         -192.3636679958 H        -5234.4817 eV
Force related energy:             -192.3636679958 H        -5234.4817 eV

Volume:                              0.979788E+04 au^3   0.145190E+04 A^3
Pressure:                            0.282885E-04 au     0.832275E+09 Pa
>> Charges saved for restart in charges.bin

total energy  -1.9236367E+02 H       energy change -2.0805837E-03 H
gradient norm  3.5751418E-02 H/a0    max. gradient  1.2783948E-02 H/a0
step length    1.5771264E-01 a0      max. step      3.2599231E-02 a0

--------------------------------------------------------------------------------

***  Geometry step: 13

 iSCC Total electronic   Diff electronic      SCC error    
    1   -0.19434717E+03    0.00000000E+00    0.56302873E-02
    2   -0.19433732E+03    0.98470047E-02    0.34991874E-02
    3   -0.19433734E+03   -0.19932547E-04    0.91937506E-03
    4   -0.19433735E+03   -0.45682163E-05    0.89012796E-04
    5   -0.19433735E+03   -0.19003161E-06    0.28914246E-04
    6   -0.19433735E+03   -0.91453387E-08    0.86038063E-05
    7   -0.19433735E+03   -0.18442847E-09    0.14237640E-05
    8   -0.19433735E+03   -0.74749096E-11    0.24577841E-06
    9   -0.19433735E+03   -0.14495072E-11    0.57862555E-07
   10   -0.19433735E+03   -0.11368684E-12    0.77820257E-08

Total Energy:                     -192.3652465924 H        -5234.5247 eV
Extrapolated to 0K:               -192.3652465924 H        -5234.5247 eV
Total Mermin free energy:         -192.3652465924 H        -5234.5247 eV
Force related energy:             -192.3652465924 H        -5234.5247 eV

Volume:                              0.981881E+04 au^3   0.145500E+04 A^3
Pressure:                            0.223622E-04 au     0.657917E+09 Pa
>> Charges saved for restart in charges.bin

total energy  -1.9236525E+02 H       energy change -1.5785966E-03 H
gradient norm  3.0478711E-02 H/a0    max. gradient  1.2017350E-02 H/a0
step length    1.3298344E-01 a0      max. step      2.7858545E-02 a0

--------------------------------------------------------------------------------

***  Geometry step: 14

 iSCC Total electronic   Diff electronic      SCC error    
    1   -0.19433735E+03    0.00000000E+00    0.53524093E-02
    2   -0.19433143E+03    0.59197901E-02    0.26152486E-02
    3   -0.19433145E+03   -0.25442756E-04    0.79408171E-03
    4   -0.19433146E+03   -0.55059708E-05    0.14990859E-03
    5   -0.19433146E+03   -0.15984531E-06    0.15997841E-04
    6   -0.19433146E+03   -0.15229915E-07    0.53321226E-05
    7   -0.19433146E+03   -0.49223559E-09    0.14482892E-05
    8   -0.19433146E+03   -0.22197355E-10    0.38825791E-06
    9   -0.19433146E+03   -0.10800250E-11    0.45048873E-07
   10   -0.19433146E+03    0.28421709E-13    0.86767957E-08

Total Energy:                     -192.3665547508 H        -5234.5603 eV
Extrapolated to 0K:               -192.3665547508 H        -5234.5603 eV
Total Mermin free energy:         -192.3665547508 H        -5234.5603 eV
Force related energy:             -192.3665547508 H        -5234.5603 eV

Volume:                              0.984020E+04 au^3   0.145817E+04 A^3
Pressure:                            0.180484E-04 au     0.531002E+09 Pa
>> Charges saved for restart in charges.bin

total energy  -1.9236655E+02 H       energy change -1.3081583E-03 H
gradient norm  2.3363090E-02 H/a0    max. gradient  5.2812718E-03 H/a0
step length    1.2301759E-01 a0      max. step      2.4988668E-02 a0

--------------------------------------------------------------------------------

***  Geometry step: 15

 iSCC Total electronic   Diff electronic      SCC error    
    1   -0.19433146E+03    0.00000000E+00    0.58404185E-02
    2   -0.19433242E+03   -0.96010203E-03    0.30423033E-02
    3   -0.19433245E+03   -0.29006254E-04    0.67325947E-03
    4   -0.19433245E+03   -0.64655404E-05    0.12700655E-03
    5   -0.19433245E+03   -0.12672677E-06    0.39972154E-04
    6   -0.19433245E+03   -0.11241326E-07    0.11505517E-04
    7   -0.19433245E+03   -0.43468162E-09    0.26888955E-05
    8   -0.19433245E+03   -0.15376145E-10    0.33836701E-06
    9   -0.19433245E+03   -0.13926638E-11    0.58859894E-07
   10   -0.19433245E+03   -0.56843419E-13    0.98277040E-08

Total Energy:                     -192.3675287877 H        -5234.5868 eV
Extrapolated to 0K:               -192.3675287877 H        -5234.5868 eV
Total Mermin free energy:         -192.3675287877 H        -5234.5868 eV
Force related energy:             -192.3675287877 H        -5234.5868 eV

Volume:                              0.985532E+04 au^3   0.146041E+04 A^3
Pressure:                            0.166214E-04 au     0.489017E+09 Pa
>> Charges saved for restart in charges.bin

total energy  -1.9236753E+02 H       energy change -9.7403695E-04 H
gradient norm  2.2595037E-02 H/a0    max. gradient  4.9093014E-03 H/a0
step length    1.1002186E-01 a0      max. step      2.0576264E-02 a0

--------------------------------------------------------------------------------

***  Geometry step: 16

 iSCC Total electronic   Diff electronic      SCC error    
    1   -0.19433245E+03    0.00000000E+00    0.72025649E-02
    2   -0.19433486E+03   -0.24076943E-02    0.41098090E-02
    3   -0.19433488E+03   -0.21085995E-04    0.91375800E-03
    4   -0.19433489E+03   -0.47083716E-05    0.11934887E-03
    5   -0.19433489E+03   -0.10232887E-06    0.39363760E-04
    6   -0.19433489E+03   -0.83582563E-08    0.92726847E-05
    7   -0.19433489E+03   -0.26258817E-09    0.18733144E-05
    8   -0.19433489E+03   -0.71338491E-11    0.29285991E-06
    9   -0.19433489E+03   -0.14495072E-11    0.51108480E-07
   10   -0.19433489E+03   -0.28421709E-13    0.60099747E-08

Total Energy:                     -192.3683419719 H        -5234.6089 eV
Extrapolated to 0K:               -192.3683419719 H        -5234.6089 eV
Total Mermin free energy:         -192.3683419719 H        -5234.6089 eV
Force related energy:             -192.3683419719 H        -5234.6089 eV

Volume:                              0.986858E+04 au^3   0.146237E+04 A^3
Pressure:                            0.161794E-04 au     0.476015E+09 Pa
>> Charges saved for restart in charges.bin

total energy  -1.9236834E+02 H       energy change -8.1318420E-04 H
gradient norm  2.3715509E-02 H/a0    max. gradient  6.0470799E-03 H/a0
step length    1.0202691E-01 a0      max. step      2.0775754E-02 a0

--------------------------------------------------------------------------------

***  Geometry step: 17

 iSCC Total electronic   Diff electronic      SCC error    
    1   -0.19433489E+03    0.00000000E+00    0.67466696E-02
    2   -0.19433679E+03   -0.19040738E-02    0.38624131E-02
    3   -0.19433681E+03   -0.13874816E-04    0.79331487E-03
    4   -0.19433681E+03   -0.31321696E-05    0.96872993E-04
    5   -0.19433681E+03   -0.75037661E-07    0.31906737E-04
    6   -0.19433681E+03   -0.54307634E-08    0.76284277E-05
    7   -0.19433681E+03   -0.11823431E-09    0.13193259E-05
    8   -0.19433681E+03   -0.53432814E-11    0.24766288E-06
    9   -0.19433681E+03   -0.93791641E-12    0.51307839E-07
   10   -0.19433681E+03   -0.14210855E-12    0.51163420E-08

Total Energy:                     -192.3691775833 H        -5234.6317 eV
Extrapolated to 0K:               -192.3691775833 H        -5234.6317 eV
Total Mermin free energy:         -192.3691775833 H        -5234.6317 eV
Force related energy:             -192.3691775833 H        -5234.6317 eV

Volume:                              0.988171E+04 au^3   0.146432E+04 A^3
Pressure:                            0.155949E-04 au     0.458818E+09 Pa
>> Charges saved for restart in charges.bin

total energy  -1.9236918E+02 H       energy change -8.3561133E-04 H
gradient norm  2.3125053E-02 H/a0    max. gradient  5.2700858E-03 H/a0
step length    1.1262466E-01 a0      max. step      2.2891617E-02 a0

--------------------------------------------------------------------------------

***  Geometry step: 18

 iSCC Total electronic   Diff electronic      SCC error    
    1   -0.19433681E+03    0.00000000E+00    0.40841022E-02
    2   -0.19433533E+03    0.14832968E-02    0.23351396E-02
    3   -0.19433534E+03   -0.12829381E-04    0.71198042E-03
    4   -0.19433534E+03   -0.26480649E-05    0.90361339E-04
    5   -0.19433534E+03   -0.69577851E-07    0.28851553E-04
    6   -0.19433534E+03   -0.69199189E-08    0.76651691E-05
    7   -0.19433534E+03   -0.92228447E-10    0.14228021E-05
    8   -0.19433534E+03   -0.40927262E-11    0.23422233E-06
    9   -0.19433534E+03   -0.68212103E-12    0.50436360E-07
   10   -0.19433534E+03   -0.56843419E-13    0.69777970E-08

Total Energy:                     -192.3700637808 H        -5234.6558 eV
Extrapolated to 0K:               -192.3700637808 H        -5234.6558 eV
Total Mermin free energy:         -192.3700637808 H        -5234.6558 eV
Force related energy:             -192.3700637808 H        -5234.6558 eV

Volume:                              0.989886E+04 au^3   0.146686E+04 A^3
Pressure:                            0.142486E-04 au     0.419207E+09 Pa
>> Charges saved for restart in charges.bin

total energy  -1.9237006E+02 H       energy change -8.8619757E-04 H
gradient norm  2.1119527E-02 H/a0    max. gradient  4.8540508E-03 H/a0
step length    1.3195201E-01 a0      max. step      2.8428096E-02 a0

--------------------------------------------------------------------------------

***  Geometry step: 19

 iSCC Total electronic   Diff electronic      SCC error    
    1   -0.19433534E+03    0.00000000E+00    0.43290387E-02
    2   -0.19432946E+03    0.58855480E-02    0.16596775E-02
    3   -0.19432947E+03   -0.14206489E-04    0.46326598E-03
    4   -0.19432947E+03   -0.28789694E-05    0.67300754E-04
    5   -0.19432947E+03   -0.56169284E-07    0.12148544E-04
    6   -0.19432947E+03   -0.49960818E-08    0.45392091E-05
    7   -0.19432947E+03   -0.97543307E-10    0.12313333E-05
    8   -0.19432947E+03   -0.48032689E-11    0.22145990E-06
    9   -0.19432947E+03   -0.39790393E-12    0.49098081E-07
   10   -0.19432947E+03   -0.11368684E-12    0.69128268E-08

Total Energy:                     -192.3708357164 H        -5234.6768 eV
Extrapolated to 0K:               -192.3708357164 H        -5234.6768 eV
Total Mermin free energy:         -192.3708357164 H        -5234.6768 eV
Force related energy:             -192.3708357164 H        -5234.6768 eV

Volume:                              0.991774E+04 au^3   0.146966E+04 A^3
Pressure:                            0.110869E-04 au     0.326189E+09 Pa
>> Charges saved for restart in charges.bin

total energy  -1.9237084E+02 H       energy change -7.7193554E-04 H
gradient norm  1.9643554E-02 H/a0    max. gradient  3.7590139E-03 H/a0
step length    1.2848671E-01 a0      max. step      2.4690584E-02 a0

--------------------------------------------------------------------------------

***  Geometry step: 20

 iSCC Total electronic   Diff electronic      SCC error    
    1   -0.19432947E+03    0.00000000E+00    0.47393012E-02
    2   -0.19432351E+03    0.59622895E-02    0.27696920E-02
    3   -0.19432352E+03   -0.14608456E-04    0.62975165E-03
    4   -0.19432353E+03   -0.32554196E-05    0.96171273E-04
    5   -0.19432353E+03   -0.74655588E-07    0.30291737E-04
    6   -0.19432353E+03   -0.56448641E-08    0.83784510E-05
    7   -0.19432353E+03   -0.14480861E-09    0.15431161E-05
    8   -0.19432353E+03   -0.48032689E-11    0.28851249E-06
    9   -0.19432353E+03   -0.85265128E-12    0.51079464E-07
   10   -0.19432353E+03   -0.56843419E-13    0.66333619E-08

Total Energy:                     -192.3714570333 H        -5234.6937 eV
Extrapolated to 0K:               -192.3714570333 H        -5234.6937 eV
Total Mermin free energy:         -192.3714570333 H        -5234.6937 eV
Force related energy:             -192.3714570333 H        -5234.6937 eV

Volume:                              0.993641E+04 au^3   0.147242E+04 A^3
Pressure:                            0.803076E-05 au     0.236273E+09 Pa
>> Charges saved for restart in charges.bin

total energy  -1.9237146E+02 H       energy change -6.2131695E-04 H
gradient norm  1.9083672E-02 H/a0    max. gradient  4.7823289E-03 H/a0
step length    1.1698303E-01 a0      max. step      2.2306618E-02 a0

--------------------------------------------------------------------------------

***  Geometry step: 21

 iSCC Total electronic   Diff electronic      SCC error    
    1   -0.19432353E+03    0.00000000E+00    0.58950075E-02
    2   -0.19432000E+03    0.35289095E-02    0.34265174E-02
    3   -0.19432001E+03   -0.10439339E-04    0.70018951E-03
    4   -0.19432001E+03   -0.24258837E-05    0.84708073E-04
    5   -0.19432001E+03   -0.60727359E-07    0.27390216E-04
    6   -0.19432001E+03   -0.31936054E-08    0.58498657E-05
    7   -0.19432001E+03   -0.91887387E-10    0.80228884E-06
    8   -0.19432001E+03   -0.33537617E-11    0.20877348E-06
    9   -0.19432001E+03   -0.65369932E-12    0.48123895E-07
   10   -0.19432001E+03   -0.11368684E-12    0.49937663E-08

Total Energy:                     -192.3719325894 H        -5234.7066 eV
Extrapolated to 0K:               -192.3719325894 H        -5234.7066 eV
Total Mermin free energy:         -192.3719325894 H        -5234.7066 eV
Force related energy:             -192.3719325894 H        -5234.7066 eV

Volume:                              0.995192E+04 au^3   0.147472E+04 A^3
Pressure:                            0.560330E-05 au     0.164855E+09 Pa
>> Charges saved for restart in charges.bin

total energy  -1.9237193E+02 H       energy change -4.7555605E-04 H
gradient norm  1.5724647E-02 H/a0    max. gradient  4.7400791E-03 H/a0
step length    9.4164957E-02 a0      max. step      1.8147196E-02 a0

--------------------------------------------------------------------------------

***  Geometry step: 22

 iSCC Total electronic   Diff electronic      SCC error    
    1   -0.19432001E+03    0.00000000E+00    0.40131413E-02
    2   -0.19432074E+03   -0.72900728E-03    0.23131816E-02
    3   -0.19432075E+03   -0.64784818E-05    0.47451106E-03
    4   -0.19432075E+03   -0.14685760E-05    0.75994185E-04
    5   -0.19432075E+03   -0.35468531E-07    0.23729506E-04
    6   -0.19432075E+03   -0.20025652E-08    0.36500989E-05
    7   -0.19432075E+03   -0.70343731E-10    0.72133800E-06
    8   -0.19432075E+03   -0.18189894E-11    0.17597548E-06
    9   -0.19432075E+03   -0.42632564E-12    0.31314316E-07
   10   -0.19432075E+03   -0.28421709E-13    0.33004293E-08

Total Energy:                     -192.3722725833 H        -5234.7159 eV
Extrapolated to 0K:               -192.3722725833 H        -5234.7159 eV
Total Mermin free energy:         -192.3722725833 H        -5234.7159 eV
Force related energy:             -192.3722725833 H        -5234.7159 eV

Volume:                              0.996204E+04 au^3   0.147622E+04 A^3
Pressure:                            0.451717E-05 au     0.132900E+09 Pa
>> Charges saved for restart in charges.bin

total energy  -1.9237227E+02 H       energy change -3.3999393E-04 H
gradient norm  1.2648123E-02 H/a0    max. gradient  2.3625189E-03 H/a0
step length    7.0919225E-02 a0      max. step      1.5759340E-02 a0

--------------------------------------------------------------------------------

***  Geometry step: 23

 iSCC Total electronic   Diff electronic      SCC error    
    1   -0.19432075E+03    0.00000000E+00    0.28173381E-02
    2   -0.19432509E+03   -0.43436842E-02    0.12895611E-02
    3   -0.19432510E+03   -0.52636715E-05    0.26364065E-03
    4   -0.19432510E+03   -0.11566684E-05    0.40842107E-04
    5   -0.19432510E+03   -0.14747542E-07    0.89113778E-05
    6   -0.19432510E+03   -0.95667474E-09    0.25242915E-05
    7   -0.19432510E+03   -0.20179414E-10    0.54420322E-06
    8   -0.19432510E+03   -0.85265128E-12    0.10795113E-06
    9   -0.19432510E+03   -0.19895197E-12    0.23183214E-07
   10   -0.19432510E+03    0.28421709E-13    0.25177678E-08

Total Energy:                     -192.3725191893 H        -5234.7226 eV
Extrapolated to 0K:               -192.3725191893 H        -5234.7226 eV
Total Mermin free energy:         -192.3725191893 H        -5234.7226 eV
Force related energy:             -192.3725191893 H        -5234.7226 eV

Volume:                              0.996753E+04 au^3   0.147704E+04 A^3
Pressure:                            0.506252E-05 au     0.148945E+09 Pa
>> Charges saved for restart in charges.bin

total energy  -1.9237252E+02 H       energy change -2.4660595E-04 H
gradient norm  1.1554036E-02 H/a0    max. gradient  2.3362455E-03 H/a0
step length    5.3493279E-02 a0      max. step      1.2184315E-02 a0

--------------------------------------------------------------------------------

***  Geometry step: 24

 iSCC Total electronic   Diff electronic      SCC error    
    1   -0.19432510E+03    0.00000000E+00    0.27397421E-02
    2   -0.19432951E+03   -0.44111848E-02    0.14410991E-02
    3   -0.19432952E+03   -0.51724302E-05    0.23676842E-03
    4   -0.19432952E+03   -0.11521599E-05    0.42678968E-04
    5   -0.19432952E+03   -0.16549279E-07    0.11134530E-04
    6   -0.19432952E+03   -0.99785780E-09    0.25062484E-05
    7   -0.19432952E+03   -0.21287860E-10    0.48754894E-06
    8   -0.19432952E+03   -0.79580786E-12    0.10074445E-06
    9   -0.19432952E+03   -0.56843419E-13    0.25122441E-07
   10   -0.19432952E+03   -0.85265128E-13    0.24628299E-08

Total Energy:                     -192.3727269566 H        -5234.7282 eV
Extrapolated to 0K:               -192.3727269566 H        -5234.7282 eV
Total Mermin free energy:         -192.3727269566 H        -5234.7282 eV
Force related energy:             -192.3727269566 H        -5234.7282 eV

Volume:                              0.997281E+04 au^3   0.147782E+04 A^3
Pressure:                            0.600020E-05 au     0.176532E+09 Pa
>> Charges saved for restart in charges.bin

total energy  -1.9237273E+02 H       energy change -2.0776735E-04 H
gradient norm  1.1671469E-02 H/a0    max. gradient  2.5088896E-03 H/a0
step length    5.2573249E-02 a0      max. step      9.9625125E-03 a0

--------------------------------------------------------------------------------

***  Geometry step: 25

 iSCC Total electronic   Diff electronic      SCC error    
    1   -0.19432952E+03    0.00000000E+00    0.21908033E-02
    2   -0.19433121E+03   -0.16894071E-02    0.12472030E-02
    3   -0.19433121E+03   -0.29472261E-05    0.22148589E-03
    4   -0.19433121E+03   -0.68978989E-06    0.35895276E-04
    5   -0.19433121E+03   -0.14016223E-07    0.11006850E-04
    6   -0.19433121E+03   -0.59901595E-09    0.17261664E-05
    7   -0.19433121E+03   -0.11141310E-10    0.40644289E-06
    8   -0.19433121E+03   -0.39790393E-12    0.84440441E-07
    9   -0.19433121E+03   -0.56843419E-13    0.17448233E-07
   10   -0.19433121E+03   -0.28421709E-13    0.20760558E-08

Total Energy:                     -192.3729082726 H        -5234.7332 eV
Extrapolated to 0K:               -192.3729082726 H        -5234.7332 eV
Total Mermin free energy:         -192.3729082726 H        -5234.7332 eV
Force related energy:             -192.3729082726 H        -5234.7332 eV

Volume:                              0.997944E+04 au^3   0.147880E+04 A^3
Pressure:                            0.608487E-05 au     0.179023E+09 Pa
>> Charges saved for restart in charges.bin

total energy  -1.9237291E+02 H       energy change -1.8131601E-04 H
gradient norm  1.1106776E-02 H/a0    max. gradient  2.1689948E-03 H/a0
step length    5.0754689E-02 a0      max. step      9.0905740E-03 a0

--------------------------------------------------------------------------------

***  Geometry step: 26

 iSCC Total electronic   Diff electronic      SCC error    
    1   -0.19433121E+03    0.00000000E+00    0.26973296E-02
    2   -0.19433076E+03    0.44525741E-03    0.15273077E-02
    3   -0.19433077E+03   -0.36375468E-05    0.28378197E-03
    4   -0.19433077E+03   -0.84757417E-06    0.39713724E-04
    5   -0.19433077E+03   -0.23109720E-07    0.13018148E-04
    6   -0.19433077E+03   -0.83693408E-09    0.24669674E-05
    7   -0.19433077E+03   -0.13443469E-10    0.49616325E-06
    8   -0.19433077E+03   -0.59685590E-12    0.93132519E-07
    9   -0.19433077E+03   -0.28421709E-13    0.16818837E-07
   10   -0.19433077E+03    0.00000000E+00    0.19289130E-08

Total Energy:                     -192.3731331240 H        -5234.7393 eV
Extrapolated to 0K:               -192.3731331240 H        -5234.7393 eV
Total Mermin free energy:         -192.3731331240 H        -5234.7393 eV
Force related energy:             -192.3731331240 H        -5234.7393 eV

Volume:                              0.999039E+04 au^3   0.148042E+04 A^3
Pressure:                            0.525069E-05 au     0.154480E+09 Pa
>> Charges saved for restart in charges.bin

total energy  -1.9237313E+02 H       energy change -2.2485135E-04 H
gradient norm  1.0980039E-02 H/a0    max. gradient  1.9298246E-03 H/a0
step length    7.1240986E-02 a0      max. step      1.3523867E-02 a0

--------------------------------------------------------------------------------

***  Geometry step: 27

 iSCC Total electronic   Diff electronic      SCC error    
    1   -0.19433077E+03    0.00000000E+00    0.20391289E-02
    2   -0.19432837E+03    0.23966275E-02    0.11658896E-02
    3   -0.19432838E+03   -0.40175476E-05    0.33023122E-03
    4   -0.19432838E+03   -0.90485582E-06    0.31098599E-04
    5   -0.19432838E+03   -0.20375694E-07    0.92314696E-05
    6   -0.19432838E+03   -0.91702645E-09    0.22572897E-05
    7   -0.19432838E+03   -0.10885515E-10    0.40165639E-06
    8   -0.19432838E+03   -0.51159077E-12    0.10534205E-06
    9   -0.19432838E+03   -0.11368684E-12    0.25259262E-07
   10   -0.19432838E+03   -0.28421709E-13    0.24794913E-08

Total Energy:                     -192.3733506568 H        -5234.7452 eV
Extrapolated to 0K:               -192.3733506568 H        -5234.7452 eV
Total Mermin free energy:         -192.3733506568 H        -5234.7452 eV
Force related energy:             -192.3733506568 H        -5234.7452 eV

Volume:                              0.100028E+05 au^3   0.148227E+04 A^3
Pressure:                            0.357160E-05 au     0.105080E+09 Pa
>> Charges saved for restart in charges.bin

total energy  -1.9237335E+02 H       energy change -2.1753284E-04 H
gradient norm  1.1837324E-02 H/a0    max. gradient  2.5854184E-03 H/a0
step length    7.5735146E-02 a0      max. step      1.4912986E-02 a0

--------------------------------------------------------------------------------

***  Geometry step: 28

 iSCC Total electronic   Diff electronic      SCC error    
    1   -0.19432838E+03    0.00000000E+00    0.24652028E-02
    2   -0.19432540E+03    0.29816397E-02    0.12999503E-02
    3   -0.19432540E+03   -0.58514181E-05    0.37564666E-03
    4   -0.19432540E+03   -0.12293416E-05    0.42366235E-04
    5   -0.19432540E+03   -0.22228335E-07    0.11003139E-04
    6   -0.19432540E+03   -0.16009665E-08    0.31799206E-05
    7   -0.19432540E+03   -0.20378366E-10    0.76628253E-06
    8   -0.19432540E+03   -0.65369932E-12    0.15001191E-06
    9   -0.19432540E+03   -0.22737368E-12    0.34732124E-07
   10   -0.19432540E+03    0.28421709E-13    0.30609755E-08

Total Energy:                     -192.3735739025 H        -5234.7513 eV
Extrapolated to 0K:               -192.3735739025 H        -5234.7513 eV
Total Mermin free energy:         -192.3735739025 H        -5234.7513 eV
Force related energy:             -192.3735739025 H        -5234.7513 eV

Volume:                              0.100160E+05 au^3   0.148422E+04 A^3
Pressure:                            0.169639E-05 au     0.499096E+08 Pa
>> Charges saved for restart in charges.bin

total energy  -1.9237357E+02 H       energy change -2.2324566E-04 H
gradient norm  1.2590096E-02 H/a0    max. gradient  3.1330222E-03 H/a0
step length    8.3199685E-02 a0      max. step      1.7269129E-02 a0

--------------------------------------------------------------------------------

***  Geometry step: 29

 iSCC Total electronic   Diff electronic      SCC error    
    1   -0.19432540E+03    0.00000000E+00    0.25000500E-02
    2   -0.19432390E+03    0.15052578E-02    0.13472476E-02
    3   -0.19432390E+03   -0.39213582E-05    0.26008638E-03
    4   -0.19432390E+03   -0.82812792E-06    0.33781078E-04
    5   -0.19432390E+03   -0.15492702E-07    0.11733219E-04
    6   -0.19432390E+03   -0.99271347E-09    0.27919179E-05
    7   -0.19432390E+03   -0.13244517E-10    0.51403880E-06
    8   -0.19432390E+03   -0.68212103E-12    0.13581877E-06
    9   -0.19432390E+03   -0.28421709E-13    0.25434182E-07
   10   -0.19432390E+03   -0.56843419E-13    0.28532225E-08

Total Energy:                     -192.3737701944 H        -5234.7566 eV
Extrapolated to 0K:               -192.3737701944 H        -5234.7566 eV
Total Mermin free energy:         -192.3737701944 H        -5234.7566 eV
Force related energy:             -192.3737701944 H        -5234.7566 eV

Volume:                              0.100261E+05 au^3   0.148572E+04 A^3
Pressure:                            0.338143E-06 au     0.994851E+07 Pa
>> Charges saved for restart in charges.bin

total energy  -1.9237377E+02 H       energy change -1.9629197E-04 H
gradient norm  1.1295919E-02 H/a0    max. gradient  2.5921189E-03 H/a0
step length    7.2765907E-02 a0      max. step      1.4543090E-02 a0

--------------------------------------------------------------------------------

***  Geometry step: 30

 iSCC Total electronic   Diff electronic      SCC error    
    1   -0.19432390E+03    0.00000000E+00    0.23745475E-02
    2   -0.19432445E+03   -0.54431397E-03    0.10781027E-02
    3   -0.19432445E+03   -0.49021555E-05    0.29539016E-03
    4   -0.19432445E+03   -0.10176466E-05    0.47234748E-04
    5   -0.19432445E+03   -0.16441646E-07    0.12154618E-04
    6   -0.19432445E+03   -0.15359660E-08    0.29591228E-05
    7   -0.19432445E+03   -0.31207037E-10    0.71458568E-06
    8   -0.19432445E+03   -0.85265128E-12    0.13082874E-06
    9   -0.19432445E+03   -0.85265128E-13    0.24935160E-07
   10   -0.19432445E+03   -0.11368684E-12    0.33031697E-08

Total Energy:                     -192.3739845934 H        -5234.7625 eV
Extrapolated to 0K:               -192.3739845934 H        -5234.7625 eV
Total Mermin free energy:         -192.3739845934 H        -5234.7625 eV
Force related energy:             -192.3739845934 H        -5234.7625 eV

Volume:                              0.100342E+05 au^3   0.148691E+04 A^3
Pressure:                           -0.412649E-06 au    -0.121406E+08 Pa
>> Charges saved for restart in charges.bin

total energy  -1.9237398E+02 H       energy change -2.1439898E-04 H
gradient norm  1.0569405E-02 H/a0    max. gradient  2.9197119E-03 H/a0
step length    8.1648851E-02 a0      max. step      1.6604640E-02 a0

--------------------------------------------------------------------------------

***  Geometry step: 31

 iSCC Total electronic   Diff electronic      SCC error    
    1   -0.19432445E+03    0.00000000E+00    0.17387915E-02
    2   -0.19432750E+03   -0.30455223E-02    0.10350355E-02
    3   -0.19432750E+03   -0.41837168E-05    0.34721457E-03
    4   -0.19432750E+03   -0.93505662E-06    0.44574511E-04
    5   -0.19432750E+03   -0.11960594E-07    0.82667901E-05
    6   -0.19432750E+03   -0.11416716E-08    0.20507654E-05
    7   -0.19432750E+03   -0.23504754E-10    0.50987760E-06
    8   -0.19432750E+03   -0.45474735E-12    0.85297417E-07
    9   -0.19432750E+03   -0.17053026E-12    0.19543947E-07
   10   -0.19432750E+03    0.28421709E-13    0.35167003E-08

Total Energy:                     -192.3741902331 H        -5234.7681 eV
Extrapolated to 0K:               -192.3741902331 H        -5234.7681 eV
Total Mermin free energy:         -192.3741902331 H        -5234.7681 eV
Force related energy:             -192.3741902331 H        -5234.7681 eV

Volume:                              0.100389E+05 au^3   0.148760E+04 A^3
Pressure:                           -0.223654E-06 au    -0.658013E+07 Pa
>> Charges saved for restart in charges.bin

total energy  -1.9237419E+02 H       energy change -2.0563965E-04 H
gradient norm  1.1404312E-02 H/a0    max. gradient  4.1828164E-03 H/a0
step length    8.2974492E-02 a0      max. step      1.6182371E-02 a0

--------------------------------------------------------------------------------

***  Geometry step: 32

 iSCC Total electronic   Diff electronic      SCC error    
    1   -0.19432750E+03    0.00000000E+00    0.18026638E-02
    2   -0.19433209E+03   -0.45844616E-02    0.97677618E-03
    3   -0.19433209E+03   -0.41265121E-05    0.33098162E-03
    4   -0.19433209E+03   -0.89031533E-06    0.37269010E-04
    5   -0.19433209E+03   -0.10502248E-07    0.48291694E-05
    6   -0.19433209E+03   -0.11607710E-08    0.95356724E-06
    7   -0.19433209E+03   -0.23732127E-10    0.39340342E-06
    8   -0.19433209E+03   -0.56843419E-12    0.79708801E-07
    9   -0.19433209E+03   -0.56843419E-13    0.10731770E-07
   10   -0.19433209E+03    0.28421709E-13    0.21386750E-08

Total Energy:                     -192.3744035500 H        -5234.7739 eV
Extrapolated to 0K:               -192.3744035500 H        -5234.7739 eV
Total Mermin free energy:         -192.3744035500 H        -5234.7739 eV
Force related energy:             -192.3744035500 H        -5234.7739 eV

Volume:                              0.100410E+05 au^3   0.148792E+04 A^3
Pressure:                            0.877740E-06 au     0.258240E+08 Pa
>> Charges saved for restart in charges.bin

total energy  -1.9237440E+02 H       energy change -2.1331692E-04 H
gradient norm  1.2757111E-02 H/a0    max. gradient  4.2431322E-03 H/a0
step length    8.9593272E-02 a0      max. step      1.5868524E-02 a0

--------------------------------------------------------------------------------

***  Geometry step: 33

 iSCC Total electronic   Diff electronic      SCC error    
    1   -0.19433209E+03    0.00000000E+00    0.19741832E-02
    2   -0.19433574E+03   -0.36438782E-02    0.87515031E-03
    3   -0.19433574E+03   -0.40711416E-05    0.27940840E-03
    4   -0.19433574E+03   -0.85397497E-06    0.33400419E-04
    5   -0.19433574E+03   -0.11579544E-07    0.74875505E-05
    6   -0.19433574E+03   -0.11185932E-08    0.20103268E-05
    7   -0.19433574E+03   -0.14864554E-10    0.53875134E-06
    8   -0.19433574E+03   -0.34106051E-12    0.91010083E-07
    9   -0.19433574E+03   -0.56843419E-13    0.21663101E-07
   10   -0.19433574E+03   -0.28421709E-13    0.30866412E-08

Total Energy:                     -192.3746402160 H        -5234.7803 eV
Extrapolated to 0K:               -192.3746402160 H        -5234.7803 eV
Total Mermin free energy:         -192.3746402160 H        -5234.7803 eV
Force related energy:             -192.3746402160 H        -5234.7803 eV

Volume:                              0.100426E+05 au^3   0.148817E+04 A^3
Pressure:                            0.199364E-05 au     0.586549E+08 Pa
>> Charges saved for restart in charges.bin

total energy  -1.9237464E+02 H       energy change -2.3666602E-04 H
gradient norm  1.2978545E-02 H/a0    max. gradient  3.3584220E-03 H/a0
step length    1.0164033E-01 a0      max. step      1.7351498E-02 a0

--------------------------------------------------------------------------------

***  Geometry step: 34

 iSCC Total electronic   Diff electronic      SCC error    
    1   -0.19433574E+03    0.00000000E+00    0.27302999E-02
    2   -0.19433721E+03   -0.14643804E-02    0.13062994E-02
    3   -0.19433721E+03   -0.34380849E-05    0.29943085E-03
    4   -0.19433721E+03   -0.75496530E-06    0.26317762E-04
    5   -0.19433721E+03   -0.15896148E-07    0.77565955E-05
    6   -0.19433721E+03   -0.99552722E-09    0.21299574E-05
    7   -0.19433721E+03   -0.12533974E-10    0.47636249E-06
    8   -0.19433721E+03   -0.48316906E-12    0.10082285E-06
    9   -0.19433721E+03   -0.11368684E-12    0.22477625E-07
   10   -0.19433721E+03    0.85265128E-13    0.31504830E-08

Total Energy:                     -192.3748876108 H        -5234.7870 eV
Extrapolated to 0K:               -192.3748876108 H        -5234.7870 eV
Total Mermin free energy:         -192.3748876108 H        -5234.7870 eV
Force related energy:             -192.3748876108 H        -5234.7870 eV

Volume:                              0.100448E+05 au^3   0.148848E+04 A^3
Pressure:                            0.245380E-05 au     0.721933E+08 Pa
>> Charges saved for restart in charges.bin

total energy  -1.9237489E+02 H       energy change -2.4739477E-04 H
gradient norm  1.1904764E-02 H/a0    max. gradient  2.5747793E-03 H/a0
step length    1.1060569E-01 a0      max. step      1.8842209E-02 a0

--------------------------------------------------------------------------------

***  Geometry step: 35

 iSCC Total electronic   Diff electronic      SCC error    
    1   -0.19433721E+03    0.00000000E+00    0.24518175E-02
    2   -0.19433681E+03    0.39573093E-03    0.11585879E-02
    3   -0.19433682E+03   -0.39214544E-05    0.30297348E-03
    4   -0.19433682E+03   -0.92000369E-06    0.34003727E-04
    5   -0.19433682E+03   -0.21417350E-07    0.70039448E-05
    6   -0.19433682E+03   -0.13129977E-08    0.22345635E-05
    7   -0.19433682E+03   -0.19355184E-10    0.54408751E-06
    8   -0.19433682E+03   -0.51159077E-12    0.11153004E-06
    9   -0.19433682E+03   -0.11368684E-12    0.31730279E-07
   10   -0.19433682E+03   -0.85265128E-13    0.49048965E-08

Total Energy:                     -192.3751233856 H        -5234.7935 eV
Extrapolated to 0K:               -192.3751233856 H        -5234.7935 eV
Total Mermin free energy:         -192.3751233856 H        -5234.7935 eV
Force related energy:             -192.3751233856 H        -5234.7935 eV

Volume:                              0.100470E+05 au^3   0.148882E+04 A^3
Pressure:                            0.222427E-05 au     0.654401E+08 Pa
>> Charges saved for restart in charges.bin

total energy  -1.9237512E+02 H       energy change -2.3577478E-04 H
gradient norm  1.1343337E-02 H/a0    max. gradient  2.1035477E-03 H/a0
step length    1.1138167E-01 a0      max. step      1.9752886E-02 a0

--------------------------------------------------------------------------------

***  Geometry step: 36

 iSCC Total electronic   Diff electronic      SCC error    
    1   -0.19433682E+03    0.00000000E+00    0.18099562E-02
    2   -0.19433638E+03    0.43998471E-03    0.11077265E-02
    3   -0.19433638E+03   -0.37485133E-05    0.30474126E-03
    4   -0.19433638E+03   -0.85461173E-06    0.31822296E-04
    5   -0.19433638E+03   -0.20989376E-07    0.10084356E-04
    6   -0.19433638E+03   -0.11993677E-08    0.25869557E-05
    7   -0.19433638E+03   -0.22936320E-10    0.53905085E-06
    8   -0.19433638E+03   -0.62527761E-12    0.10620689E-06
    9   -0.19433638E+03   -0.11368684E-12    0.25683688E-07
   10   -0.19433638E+03   -0.28421709E-13    0.40743342E-08

Total Energy:                     -192.3753269317 H        -5234.7990 eV
Extrapolated to 0K:               -192.3753269317 H        -5234.7990 eV
Total Mermin free energy:         -192.3753269317 H        -5234.7990 eV
Force related energy:             -192.3753269317 H        -5234.7990 eV

Volume:                              0.100484E+05 au^3   0.148902E+04 A^3
Pressure:                            0.204320E-05 au     0.601129E+08 Pa
>> Charges saved for restart in charges.bin

total energy  -1.9237533E+02 H       energy change -2.0354613E-04 H
gradient norm  1.1324714E-02 H/a0    max. gradient  2.2352283E-03 H/a0
step length    9.5018856E-02 a0      max. step      1.7848951E-02 a0

--------------------------------------------------------------------------------

***  Geometry step: 37

 iSCC Total electronic   Diff electronic      SCC error    
    1   -0.19433638E+03    0.00000000E+00    0.22737096E-02
    2   -0.19433636E+03    0.23939276E-04    0.12272037E-02
    3   -0.19433636E+03   -0.46366395E-05    0.35653584E-03
    4   -0.19433637E+03   -0.10218418E-05    0.34334968E-04
    5   -0.19433637E+03   -0.22632548E-07    0.11656622E-04
    6   -0.19433637E+03   -0.15055548E-08    0.26133668E-05
    7   -0.19433637E+03   -0.31661784E-10    0.54717851E-06
    8   -0.19433637E+03   -0.85265128E-12    0.11327267E-06
    9   -0.19433637E+03   -0.14210855E-12    0.20754926E-07
   10   -0.19433637E+03    0.56843419E-13    0.28638478E-08

Total Energy:                     -192.3755225771 H        -5234.8043 eV
Extrapolated to 0K:               -192.3755225771 H        -5234.8043 eV
Total Mermin free energy:         -192.3755225771 H        -5234.8043 eV
Force related energy:             -192.3755225771 H        -5234.8043 eV

Volume:                              0.100498E+05 au^3   0.148923E+04 A^3
Pressure:                            0.189377E-05 au     0.557166E+08 Pa
>> Charges saved for restart in charges.bin

total energy  -1.9237552E+02 H       energy change -1.9564540E-04 H
gradient norm  1.0325182E-02 H/a0    max. gradient  2.1213288E-03 H/a0
step length    9.9031097E-02 a0      max. step      1.9313474E-02 a0

--------------------------------------------------------------------------------

***  Geometry step: 38

 iSCC Total electronic   Diff electronic      SCC error    
    1   -0.19433637E+03    0.00000000E+00    0.15651943E-02
    2   -0.19433753E+03   -0.11629837E-02    0.84490434E-03
    3   -0.19433753E+03   -0.22215885E-05    0.26332705E-03
    4   -0.19433753E+03   -0.49142750E-06    0.28848688E-04
    5   -0.19433753E+03   -0.92069570E-08    0.75697031E-05
    6   -0.19433753E+03   -0.67672090E-09    0.12980913E-05
    7   -0.19433753E+03   -0.12704504E-10    0.27517937E-06
    8   -0.19433753E+03   -0.42632564E-12    0.74302550E-07
    9   -0.19433753E+03   -0.56843419E-13    0.14772052E-07
   10   -0.19433753E+03   -0.28421709E-13    0.18931283E-08

Total Energy:                     -192.3756602078 H        -5234.8081 eV
Extrapolated to 0K:               -192.3756602078 H        -5234.8081 eV
Total Mermin free energy:         -192.3756602078 H        -5234.8081 eV
Force related energy:             -192.3756602078 H        -5234.8081 eV

Volume:                              0.100511E+05 au^3   0.148942E+04 A^3
Pressure:                            0.198291E-05 au     0.583391E+08 Pa
>> Charges saved for restart in charges.bin

total energy  -1.9237566E+02 H       energy change -1.3763069E-04 H
gradient norm  8.8139020E-03 H/a0    max. gradient  1.6586174E-03 H/a0
step length    7.2321009E-02 a0      max. step      1.4496530E-02 a0

--------------------------------------------------------------------------------

***  Geometry step: 39

 iSCC Total electronic   Diff electronic      SCC error    
    1   -0.19433753E+03    0.00000000E+00    0.13305102E-02
    2   -0.19434012E+03   -0.25850353E-02    0.62348442E-03
    3   -0.19434012E+03   -0.19079527E-05    0.19530620E-03
    4   -0.19434012E+03   -0.39038500E-06    0.33557710E-04
    5   -0.19434012E+03   -0.64744938E-08    0.61986346E-05
    6   -0.19434012E+03   -0.72586204E-09    0.11648839E-05
    7   -0.19434012E+03   -0.11908696E-10    0.25500895E-06
    8   -0.19434012E+03   -0.31263880E-12    0.69170343E-07
    9   -0.19434012E+03    0.00000000E+00    0.17608081E-07
   10   -0.19434012E+03    0.00000000E+00    0.17608421E-08

Total Energy:                     -192.3757921399 H        -5234.8116 eV
Extrapolated to 0K:               -192.3757921399 H        -5234.8116 eV
Total Mermin free energy:         -192.3757921399 H        -5234.8116 eV
Force related energy:             -192.3757921399 H        -5234.8116 eV

Volume:                              0.100526E+05 au^3   0.148965E+04 A^3
Pressure:                            0.252741E-05 au     0.743590E+08 Pa
>> Charges saved for restart in charges.bin

total energy  -1.9237579E+02 H       energy change -1.3193208E-04 H
gradient norm  8.4048714E-03 H/a0    max. gradient  1.5998077E-03 H/a0
step length    7.2024453E-02 a0      max. step      1.4798806E-02 a0

--------------------------------------------------------------------------------

***  Geometry step: 40

 iSCC Total electronic   Diff electronic      SCC error    
    1   -0.19434012E+03    0.00000000E+00    0.19859722E-02
    2   -0.19434265E+03   -0.25328518E-02    0.73379828E-03
    3   -0.19434265E+03   -0.21722604E-05    0.23067413E-03
    4   -0.19434265E+03   -0.42475526E-06    0.41690475E-04
    5   -0.19434265E+03   -0.70303088E-08    0.40113410E-05
    6   -0.19434265E+03   -0.71142381E-09    0.94035213E-06
    7   -0.19434265E+03   -0.19753088E-10    0.33450459E-06
    8   -0.19434265E+03   -0.28421709E-12    0.60969632E-07
    9   -0.19434265E+03   -0.56843419E-13    0.96904076E-08

Total Energy:                     -192.3759177967 H        -5234.8151 eV
Extrapolated to 0K:               -192.3759177967 H        -5234.8151 eV
Total Mermin free energy:         -192.3759177967 H        -5234.8151 eV
Force related energy:             -192.3759177967 H        -5234.8151 eV

Volume:                              0.100554E+05 au^3   0.149005E+04 A^3
Pressure:                            0.275698E-05 au     0.811132E+08 Pa
>> Charges saved for restart in charges.bin

total energy  -1.9237592E+02 H       energy change -1.2565685E-04 H
gradient norm  9.0742905E-03 H/a0    max. gradient  2.2971042E-03 H/a0
step length    7.5052194E-02 a0      max. step      1.5793260E-02 a0

--------------------------------------------------------------------------------

***  Geometry step: 41

 iSCC Total electronic   Diff electronic      SCC error    
    1   -0.19434265E+03    0.00000000E+00    0.18325490E-02
    2   -0.19434536E+03   -0.27026802E-02    0.81833446E-03
    3   -0.19434536E+03   -0.26656568E-05    0.20766568E-03
    4   -0.19434536E+03   -0.53030078E-06    0.40113385E-04
    5   -0.19434536E+03   -0.94712220E-08    0.65960841E-05
    6   -0.19434536E+03   -0.84170892E-09    0.13851023E-05
    7   -0.19434536E+03   -0.25778490E-10    0.36776116E-06
    8   -0.19434536E+03   -0.51159077E-12    0.89685798E-07
    9   -0.19434536E+03   -0.28421709E-13    0.23503819E-07
   10   -0.19434536E+03    0.28421709E-13    0.21738455E-08

Total Energy:                     -192.3760388966 H        -5234.8184 eV
Extrapolated to 0K:               -192.3760388966 H        -5234.8184 eV
Total Mermin free energy:         -192.3760388966 H        -5234.8184 eV
Force related energy:             -192.3760388966 H        -5234.8184 eV

Volume:                              0.100584E+05 au^3   0.149050E+04 A^3
Pressure:                            0.323103E-05 au     0.950603E+08 Pa
>> Charges saved for restart in charges.bin

total energy  -1.9237604E+02 H       energy change -1.2109993E-04 H
gradient norm  9.0754463E-03 H/a0    max. gradient  2.1908789E-03 H/a0
step length    7.7233597E-02 a0      max. step      1.7066257E-02 a0

--------------------------------------------------------------------------------

***  Geometry step: 42

 iSCC Total electronic   Diff electronic      SCC error    
    1   -0.19434536E+03    0.00000000E+00    0.16944716E-02
    2   -0.19434588E+03   -0.51498255E-03    0.96730026E-03
    3   -0.19434588E+03   -0.19139221E-05    0.23085821E-03
    4   -0.19434588E+03   -0.41449749E-06    0.31361583E-04
    5   -0.19434588E+03   -0.66203256E-08    0.59994843E-05
    6   -0.19434588E+03   -0.57735861E-09    0.12565090E-05
    7   -0.19434588E+03   -0.14210855E-10    0.31387198E-06
    8   -0.19434588E+03   -0.36948222E-12    0.83135340E-07
    9   -0.19434588E+03    0.00000000E+00    0.19094366E-07
   10   -0.19434588E+03   -0.85265128E-13    0.12976491E-08

Total Energy:                     -192.3761408499 H        -5234.8211 eV
Extrapolated to 0K:               -192.3761408499 H        -5234.8211 eV
Total Mermin free energy:         -192.3761408499 H        -5234.8211 eV
Force related energy:             -192.3761408499 H        -5234.8211 eV

Volume:                              0.100626E+05 au^3   0.149112E+04 A^3
Pressure:                            0.304979E-05 au     0.897280E+08 Pa
>> Charges saved for restart in charges.bin

total energy  -1.9237614E+02 H       energy change -1.0195329E-04 H
gradient norm  7.8771925E-03 H/a0    max. gradient  1.7017295E-03 H/a0
step length    6.6408874E-02 a0      max. step      1.4821498E-02 a0

--------------------------------------------------------------------------------

***  Geometry step: 43

 iSCC Total electronic   Diff electronic      SCC error    
    1   -0.19434588E+03    0.00000000E+00    0.14523108E-02
    2   -0.19434480E+03    0.10743022E-02    0.85195617E-03
    3   -0.19434480E+03   -0.16188271E-05    0.20525020E-03
    4   -0.19434481E+03   -0.37625662E-06    0.32749303E-04
    5   -0.19434481E+03   -0.51199152E-08    0.62350448E-05
    6   -0.19434481E+03   -0.48629545E-09    0.12647975E-05
    7   -0.19434481E+03   -0.94928509E-11    0.31419914E-06
    8   -0.19434481E+03   -0.34106051E-12    0.65011654E-07
    9   -0.19434481E+03   -0.28421709E-13    0.15827543E-07
   10   -0.19434481E+03    0.56843419E-13    0.14417401E-08

Total Energy:                     -192.3762367310 H        -5234.8237 eV
Extrapolated to 0K:               -192.3762367310 H        -5234.8237 eV
Total Mermin free energy:         -192.3762367310 H        -5234.8237 eV
Force related energy:             -192.3762367310 H        -5234.8237 eV

Volume:                              0.100678E+05 au^3   0.149189E+04 A^3
Pressure:                            0.230971E-05 au     0.679540E+08 Pa
>> Charges saved for restart in charges.bin

total energy  -1.9237624E+02 H       energy change -9.5881035E-05 H
gradient norm  7.0944547E-03 H/a0    max. gradient  1.8419174E-03 H/a0
step length    6.1417974E-02 a0      max. step      1.3910153E-02 a0

--------------------------------------------------------------------------------

***  Geometry step: 44

 iSCC Total electronic   Diff electronic      SCC error    
    1   -0.19434481E+03    0.00000000E+00    0.10241529E-02
    2   -0.19434301E+03    0.17946406E-02    0.59632963E-03
    3   -0.19434301E+03   -0.11963976E-05    0.20188427E-03
    4   -0.19434301E+03   -0.26395520E-06    0.27554583E-04
    5   -0.19434301E+03   -0.33595029E-08    0.47009414E-05
    6   -0.19434301E+03   -0.32119374E-09    0.10778879E-05
    7   -0.19434301E+03   -0.58264504E-11    0.19704775E-06
    8   -0.19434301E+03   -0.85265128E-13    0.41848335E-07
    9   -0.19434301E+03   -0.28421709E-13    0.11822029E-07
   10   -0.19434301E+03    0.28421709E-13    0.13235741E-08

Total Energy:                     -192.3763242594 H        -5234.8261 eV
Extrapolated to 0K:               -192.3763242594 H        -5234.8261 eV
Total Mermin free energy:         -192.3763242594 H        -5234.8261 eV
Force related energy:             -192.3763242594 H        -5234.8261 eV

Volume:                              0.100730E+05 au^3   0.149266E+04 A^3
Pressure:                            0.130770E-05 au     0.384740E+08 Pa
>> Charges saved for restart in charges.bin

total energy  -1.9237632E+02 H       energy change -8.7528462E-05 H
gradient norm  7.9134117E-03 H/a0    max. gradient  1.7902876E-03 H/a0
step length    5.4727673E-02 a0      max. step      1.2919958E-02 a0

--------------------------------------------------------------------------------

***  Geometry step: 45

 iSCC Total electronic   Diff electronic      SCC error    
    1   -0.19434301E+03    0.00000000E+00    0.12882958E-02
    2   -0.19434136E+03    0.16532910E-02    0.60185706E-03
    3   -0.19434136E+03   -0.15245650E-05    0.20921701E-03
    4   -0.19434136E+03   -0.31932223E-06    0.17711068E-04
    5   -0.19434136E+03   -0.42701345E-08    0.25774577E-05
    6   -0.19434136E+03   -0.34998493E-09    0.67291687E-06
    7   -0.19434136E+03   -0.51443294E-11    0.23171889E-06
    8   -0.19434136E+03   -0.85265128E-13    0.39927868E-07
    9   -0.19434136E+03   -0.28421709E-13    0.11074088E-07
   10   -0.19434136E+03    0.28421709E-13    0.13951280E-08

Total Energy:                     -192.3764255356 H        -5234.8289 eV
Extrapolated to 0K:               -192.3764255356 H        -5234.8289 eV
Total Mermin free energy:         -192.3764255356 H        -5234.8289 eV
Force related energy:             -192.3764255356 H        -5234.8289 eV

Volume:                              0.100787E+05 au^3   0.149352E+04 A^3
Pressure:                            0.358494E-06 au     0.105473E+08 Pa
>> Charges saved for restart in charges.bin

total energy  -1.9237643E+02 H       energy change -1.0127621E-04 H
gradient norm  8.4472123E-03 H/a0    max. gradient  1.6862475E-03 H/a0
step length    6.6470481E-02 a0      max. step      1.6118981E-02 a0

--------------------------------------------------------------------------------

***  Geometry step: 46

 iSCC Total electronic   Diff electronic      SCC error    
    1   -0.19434136E+03    0.00000000E+00    0.10727764E-02
    2   -0.19434069E+03    0.66642805E-03    0.48784804E-03
    3   -0.19434070E+03   -0.13939214E-05    0.14752881E-03
    4   -0.19434070E+03   -0.29270271E-06    0.16700979E-04
    5   -0.19434070E+03   -0.46191815E-08    0.43318327E-05
    6   -0.19434070E+03   -0.32673597E-09    0.10140345E-05
    7   -0.19434070E+03   -0.48032689E-11    0.22312793E-06
    8   -0.19434070E+03   -0.28421709E-13    0.45612642E-07
    9   -0.19434070E+03   -0.56843419E-13    0.17947740E-07
   10   -0.19434070E+03    0.00000000E+00    0.19308040E-08

Total Energy:                     -192.3765231933 H        -5234.8315 eV
Extrapolated to 0K:               -192.3765231933 H        -5234.8315 eV
Total Mermin free energy:         -192.3765231933 H        -5234.8315 eV
Force related energy:             -192.3765231933 H        -5234.8315 eV

Volume:                              0.100842E+05 au^3   0.149433E+04 A^3
Pressure:                           -0.299957E-06 au    -0.882505E+07 Pa
>> Charges saved for restart in charges.bin

total energy  -1.9237652E+02 H       energy change -9.7657684E-05 H
gradient norm  7.6614397E-03 H/a0    max. gradient  1.3258589E-03 H/a0
step length    7.4354524E-02 a0      max. step      1.8176702E-02 a0

--------------------------------------------------------------------------------

***  Geometry step: 47

 iSCC Total electronic   Diff electronic      SCC error    
    1   -0.19434070E+03    0.00000000E+00    0.10450557E-02
    2   -0.19434178E+03   -0.10825117E-02    0.49225194E-03
    3   -0.19434178E+03   -0.11586577E-05    0.13956601E-03
    4   -0.19434178E+03   -0.26215156E-06    0.20405935E-04
    5   -0.19434178E+03   -0.45181139E-08    0.57452253E-05
    6   -0.19434178E+03   -0.33688252E-09    0.99391202E-06
    7   -0.19434178E+03   -0.46327386E-11    0.22288918E-06
    8   -0.19434178E+03   -0.28421709E-13    0.41709766E-07
    9   -0.19434178E+03   -0.85265128E-13    0.10036949E-07
   10   -0.19434178E+03    0.28421709E-13    0.83730178E-09

Total Energy:                     -192.3766103835 H        -5234.8339 eV
Extrapolated to 0K:               -192.3766103835 H        -5234.8339 eV
Total Mermin free energy:         -192.3766103835 H        -5234.8339 eV
Force related energy:             -192.3766103835 H        -5234.8339 eV

Volume:                              0.100882E+05 au^3   0.149491E+04 A^3
Pressure:                           -0.353100E-06 au    -0.103885E+08 Pa
>> Charges saved for restart in charges.bin

total energy  -1.9237661E+02 H       energy change -8.7190229E-05 H
gradient norm  6.8127730E-03 H/a0    max. gradient  1.2714879E-03 H/a0
step length    7.3215069E-02 a0      max. step      1.7719873E-02 a0

--------------------------------------------------------------------------------

***  Geometry step: 48

 iSCC Total electronic   Diff electronic      SCC error    
    1   -0.19434178E+03    0.00000000E+00    0.13529894E-02
    2   -0.19434426E+03   -0.24850802E-02    0.60131702E-03
    3   -0.19434427E+03   -0.13823027E-05    0.15793042E-03
    4   -0.19434427E+03   -0.31921454E-06    0.25818788E-04
    5   -0.19434427E+03   -0.51214784E-08    0.63916293E-05
    6   -0.19434427E+03   -0.40157033E-09    0.10535347E-05
    7   -0.19434427E+03   -0.53717031E-11    0.23561641E-06
    8   -0.19434427E+03   -0.56843419E-13    0.51922183E-07
    9   -0.19434427E+03   -0.56843419E-13    0.13442102E-07
   10   -0.19434427E+03    0.00000000E+00    0.97729913E-09

Total Energy:                     -192.3766978411 H        -5234.8363 eV
Extrapolated to 0K:               -192.3766978411 H        -5234.8363 eV
Total Mermin free energy:         -192.3766978411 H        -5234.8363 eV
Force related energy:             -192.3766978411 H        -5234.8363 eV

Volume:                              0.100910E+05 au^3   0.149533E+04 A^3
Pressure:                           -0.543394E-07 au    -0.159872E+07 Pa
>> Charges saved for restart in charges.bin

total energy  -1.9237670E+02 H       energy change -8.7457510E-05 H
gradient norm  6.8532025E-03 H/a0    max. gradient  1.3845124E-03 H/a0
step length    7.9970509E-02 a0      max. step      1.9200204E-02 a0

--------------------------------------------------------------------------------

***  Geometry step: 49

 iSCC Total electronic   Diff electronic      SCC error    
    1   -0.19434427E+03    0.00000000E+00    0.11544047E-02
    2   -0.19434791E+03   -0.36388121E-02    0.60029197E-03
    3   -0.19434791E+03   -0.16455348E-05    0.20442471E-03
    4   -0.19434791E+03   -0.36252425E-06    0.26492969E-04
    5   -0.19434791E+03   -0.64214305E-08    0.60634470E-05
    6   -0.19434791E+03   -0.50010840E-09    0.11622091E-05
    7   -0.19434791E+03   -0.57696070E-11    0.24260682E-06
    8   -0.19434791E+03   -0.56843419E-13    0.63772509E-07
    9   -0.19434791E+03   -0.85265128E-13    0.16851369E-07
   10   -0.19434791E+03    0.00000000E+00    0.17947488E-08

Total Energy:                     -192.3767802594 H        -5234.8385 eV
Extrapolated to 0K:               -192.3767802594 H        -5234.8385 eV
Total Mermin free energy:         -192.3767802594 H        -5234.8385 eV
Force related energy:             -192.3767802594 H        -5234.8385 eV

Volume:                              0.100927E+05 au^3   0.149558E+04 A^3
Pressure:                            0.800470E-06 au     0.235506E+08 Pa
>> Charges saved for restart in charges.bin

total energy  -1.9237678E+02 H       energy change -8.2418319E-05 H
gradient norm  7.6074135E-03 H/a0    max. gradient  1.7235892E-03 H/a0
step length    8.3632358E-02 a0      max. step      1.9782102E-02 a0

--------------------------------------------------------------------------------

***  Geometry step: 50

 iSCC Total electronic   Diff electronic      SCC error    
    1   -0.19434791E+03    0.00000000E+00    0.10999576E-02
    2   -0.19435021E+03   -0.23053046E-02    0.49108428E-03
    3   -0.19435021E+03   -0.10839262E-05    0.15727191E-03
    4   -0.19435021E+03   -0.23278628E-06    0.13970314E-04
    5   -0.19435021E+03   -0.43899604E-08    0.28831923E-05
    6   -0.19435021E+03   -0.31818104E-09    0.69613829E-06
    7   -0.19435021E+03   -0.37232439E-11    0.23406532E-06
    8   -0.19435021E+03   -0.85265128E-13    0.48693513E-07
    9   -0.19435021E+03    0.85265128E-13    0.15203983E-07
   10   -0.19435021E+03    0.28421709E-13    0.19944730E-08

Total Energy:                     -192.3768559617 H        -5234.8406 eV
Extrapolated to 0K:               -192.3768559617 H        -5234.8406 eV
Total Mermin free energy:         -192.3768559617 H        -5234.8406 eV
Force related energy:             -192.3768559617 H        -5234.8406 eV

Volume:                              0.100942E+05 au^3   0.149581E+04 A^3
Pressure:                            0.137496E-05 au     0.404526E+08 Pa
>> Charges saved for restart in charges.bin

total energy  -1.9237686E+02 H       energy change -7.5702290E-05 H
gradient norm  7.3369011E-03 H/a0    max. gradient  1.6177632E-03 H/a0
step length    7.0129956E-02 a0      max. step      1.6011465E-02 a0

--------------------------------------------------------------------------------

***  Geometry step: 51

 iSCC Total electronic   Diff electronic      SCC error    
    1   -0.19435021E+03    0.00000000E+00    0.13485820E-02
    2   -0.19435112E+03   -0.90682715E-03    0.76759922E-03
    3   -0.19435112E+03   -0.15530092E-05    0.23238396E-03
    4   -0.19435112E+03   -0.34971728E-06    0.19038993E-04
    5   -0.19435112E+03   -0.61524474E-08    0.39975263E-05
    6   -0.19435112E+03   -0.49985260E-09    0.12777009E-05
    7   -0.19435112E+03   -0.69348971E-11    0.31588884E-06
    8   -0.19435112E+03   -0.17053026E-12    0.48444907E-07
    9   -0.19435112E+03    0.00000000E+00    0.17705089E-07
   10   -0.19435112E+03    0.00000000E+00    0.19339264E-08

Total Energy:                     -192.3769456705 H        -5234.8430 eV
Extrapolated to 0K:               -192.3769456705 H        -5234.8430 eV
Total Mermin free energy:         -192.3769456705 H        -5234.8430 eV
Force related energy:             -192.3769456705 H        -5234.8430 eV

Volume:                              0.100962E+05 au^3   0.149611E+04 A^3
Pressure:                            0.148633E-05 au     0.437294E+08 Pa
>> Charges saved for restart in charges.bin

total energy  -1.9237695E+02 H       energy change -8.9708841E-05 H
gradient norm  6.8007172E-03 H/a0    max. gradient  1.2639746E-03 H/a0
step length    7.9156141E-02 a0      max. step      1.7527698E-02 a0

--------------------------------------------------------------------------------

***  Geometry step: 52

 iSCC Total electronic   Diff electronic      SCC error    
    1   -0.19435112E+03    0.00000000E+00    0.12331884E-02
    2   -0.19435051E+03    0.61089214E-03    0.71259041E-03
[...]

Volume:                              0.100413E+05 au^3   0.148797E+04 A^3
Pressure:                           -0.690177E-07 au    -0.203057E+07 Pa
>> Charges saved for restart in charges.bin

total energy  -1.9237985E+02 H       energy change -2.2473335E-06 H
gradient norm  1.1582246E-03 H/a0    max. gradient  2.9961569E-04 H/a0
step length    8.7088776E-03 a0      max. step      1.9438064E-03 a0

--------------------------------------------------------------------------------

***  Geometry step: 133

 iSCC Total electronic   Diff electronic      SCC error    
    1   -0.19435043E+03    0.00000000E+00    0.21111439E-03
    2   -0.19435071E+03   -0.28479306E-03    0.89111836E-04
    3   -0.19435071E+03   -0.35598276E-07    0.33432366E-04
    4   -0.19435071E+03   -0.78267988E-08    0.30045346E-05
    5   -0.19435071E+03   -0.14117063E-09    0.53572191E-06
    6   -0.19435071E+03   -0.76738615E-11    0.85031203E-07
    7   -0.19435071E+03   -0.85265128E-13    0.16403180E-07
    8   -0.19435071E+03   -0.11368684E-12    0.54329101E-08

Total Energy:                     -192.3798556423 H        -5234.9222 eV
Extrapolated to 0K:               -192.3798556423 H        -5234.9222 eV
Total Mermin free energy:         -192.3798556423 H        -5234.9222 eV
Force related energy:             -192.3798556423 H        -5234.9222 eV

Volume:                              0.100408E+05 au^3   0.148789E+04 A^3
Pressure:                            0.705001E-07 au     0.207418E+07 Pa
>> Charges saved for restart in charges.bin

total energy  -1.9237986E+02 H       energy change -2.1675611E-06 H
gradient norm  1.0556018E-03 H/a0    max. gradient  1.9715344E-04 H/a0
step length    1.5040337E-02 a0      max. step      4.0956562E-03 a0

--------------------------------------------------------------------------------

***  Geometry step: 134

 iSCC Total electronic   Diff electronic      SCC error    
    1   -0.19435071E+03    0.00000000E+00    0.18463815E-03
    2   -0.19435051E+03    0.20155339E-03    0.92571658E-04
    3   -0.19435051E+03   -0.38636273E-07    0.29403329E-04
    4   -0.19435051E+03   -0.83886960E-08    0.21747241E-05
    5   -0.19435051E+03   -0.14082957E-09    0.43288293E-06
    6   -0.19435051E+03   -0.75317530E-11    0.10629359E-06
    7   -0.19435051E+03   -0.85265128E-13    0.18200158E-07
    8   -0.19435051E+03   -0.11368684E-12    0.50018727E-08

Total Energy:                     -192.3798576513 H        -5234.9223 eV
Extrapolated to 0K:               -192.3798576513 H        -5234.9223 eV
Total Mermin free energy:         -192.3798576513 H        -5234.9223 eV
Force related energy:             -192.3798576513 H        -5234.9223 eV

Volume:                              0.100405E+05 au^3   0.148785E+04 A^3
Pressure:                           -0.155837E-07 au    -0.458489E+06 Pa
>> Charges saved for restart in charges.bin

total energy  -1.9237986E+02 H       energy change -2.0089555E-06 H
gradient norm  1.0602443E-03 H/a0    max. gradient  2.2251940E-04 H/a0
step length    1.1887034E-02 a0      max. step      2.8233749E-03 a0

--------------------------------------------------------------------------------

***  Geometry step: 135

 iSCC Total electronic   Diff electronic      SCC error    
    1   -0.19435051E+03    0.00000000E+00    0.23514810E-03
    2   -0.19435030E+03    0.20645801E-03    0.10251307E-03
    3   -0.19435030E+03   -0.48894520E-07    0.36480924E-04
    4   -0.19435030E+03   -0.10695885E-07    0.36815991E-05
    5   -0.19435030E+03   -0.17519142E-09    0.73598982E-06
    6   -0.19435030E+03   -0.11112888E-10    0.16587030E-06
    7   -0.19435030E+03   -0.11368684E-12    0.24328479E-07
    8   -0.19435030E+03   -0.11368684E-12    0.10029821E-07
    9   -0.19435030E+03    0.00000000E+00    0.31323397E-08

Total Energy:                     -192.3798598926 H        -5234.9223 eV
Extrapolated to 0K:               -192.3798598926 H        -5234.9223 eV
Total Mermin free energy:         -192.3798598926 H        -5234.9223 eV
Force related energy:             -192.3798598926 H        -5234.9223 eV

Volume:                              0.100401E+05 au^3   0.148779E+04 A^3
Pressure:                           -0.483877E-07 au    -0.142361E+07 Pa
>> Charges saved for restart in charges.bin

total energy  -1.9237986E+02 H       energy change -2.2413433E-06 H
gradient norm  1.0742726E-03 H/a0    max. gradient  3.0272263E-04 H/a0
step length    1.4522698E-02 a0      max. step      3.7114683E-03 a0

--------------------------------------------------------------------------------

***  Geometry step: 136

 iSCC Total electronic   Diff electronic      SCC error    
    1   -0.19435030E+03    0.00000000E+00    0.15515172E-03
    2   -0.19435003E+03    0.27276184E-03    0.97961623E-04
    3   -0.19435003E+03   -0.22126670E-07    0.29575905E-04
    4   -0.19435003E+03   -0.51475695E-08    0.34999244E-05
    5   -0.19435003E+03   -0.10953727E-09    0.66294533E-06
    6   -0.19435003E+03   -0.73896445E-11    0.15615372E-06
    7   -0.19435003E+03   -0.22737368E-12    0.17887096E-07
    8   -0.19435003E+03    0.56843419E-13    0.42401349E-08

Total Energy:                     -192.3798616352 H        -5234.9224 eV
Extrapolated to 0K:               -192.3798616352 H        -5234.9224 eV
Total Mermin free energy:         -192.3798616352 H        -5234.9224 eV
Force related energy:             -192.3798616352 H        -5234.9224 eV

Volume:                              0.100400E+05 au^3   0.148778E+04 A^3
Pressure:                           -0.130503E-06 au    -0.383953E+07 Pa
>> Charges saved for restart in charges.bin

total energy  -1.9237986E+02 H       energy change -1.7426096E-06 H
gradient norm  8.9621985E-04 H/a0    max. gradient  2.5129319E-04 H/a0
step length    5.0278770E-03 a0      max. step      1.0498967E-03 a0

--------------------------------------------------------------------------------

***  Geometry step: 137

 iSCC Total electronic   Diff electronic      SCC error    
    1   -0.19435003E+03    0.00000000E+00    0.21721880E-03
    2   -0.19434979E+03    0.24366852E-03    0.10586756E-03
    3   -0.19434979E+03   -0.35083502E-07    0.35745256E-04
    4   -0.19434979E+03   -0.82735596E-08    0.40861833E-05
    5   -0.19434979E+03   -0.14173906E-09    0.74960896E-06
    6   -0.19434979E+03   -0.91517904E-11    0.15571265E-06
    7   -0.19434979E+03   -0.19895197E-12    0.19452163E-07
    8   -0.19434979E+03   -0.28421709E-13    0.52791593E-08

Total Energy:                     -192.3798630827 H        -5234.9224 eV
Extrapolated to 0K:               -192.3798630827 H        -5234.9224 eV
Total Mermin free energy:         -192.3798630827 H        -5234.9224 eV
Force related energy:             -192.3798630827 H        -5234.9224 eV

Volume:                              0.100400E+05 au^3   0.148777E+04 A^3
Pressure:                           -0.207672E-06 au    -0.610993E+07 Pa
>> Charges saved for restart in charges.bin

total energy  -1.9237986E+02 H       energy change -1.4474366E-06 H
gradient norm  6.8651276E-04 H/a0    max. gradient  1.5503424E-04 H/a0
step length    5.8293204E-03 a0      max. step      1.2794295E-03 a0

--------------------------------------------------------------------------------

***  Geometry step: 138

 iSCC Total electronic   Diff electronic      SCC error    
    1   -0.19434979E+03    0.00000000E+00    0.12577961E-03
    2   -0.19434979E+03   -0.67055545E-05    0.53689395E-04
    3   -0.19434979E+03   -0.14329402E-07    0.16525385E-04
    4   -0.19434979E+03   -0.31099887E-08    0.14951728E-05
    5   -0.19434979E+03   -0.44479975E-10    0.34194939E-06
    6   -0.19434979E+03   -0.32969183E-11    0.68383013E-07
    7   -0.19434979E+03   -0.28421709E-13    0.10164524E-07
    8   -0.19434979E+03   -0.28421709E-13    0.28520635E-08

Total Energy:                     -192.3798638542 H        -5234.9224 eV
Extrapolated to 0K:               -192.3798638542 H        -5234.9224 eV
Total Mermin free energy:         -192.3798638542 H        -5234.9224 eV
Force related energy:             -192.3798638542 H        -5234.9224 eV

Volume:                              0.100397E+05 au^3   0.148773E+04 A^3
Pressure:                           -0.190461E-06 au    -0.560355E+07 Pa
>> Charges saved for restart in charges.bin

total energy  -1.9237986E+02 H       energy change -7.7152998E-07 H
gradient norm  6.4112666E-04 H/a0    max. gradient  1.4706533E-04 H/a0
step length    4.3095718E-03 a0      max. step      1.0623281E-03 a0

--------------------------------------------------------------------------------

***  Geometry step: 139

 iSCC Total electronic   Diff electronic      SCC error    
    1   -0.19434979E+03    0.00000000E+00    0.16136301E-03
    2   -0.19434995E+03   -0.15258989E-03    0.70063381E-04
    3   -0.19434995E+03   -0.23657748E-07    0.22021977E-04
    4   -0.19434995E+03   -0.48671041E-08    0.24935037E-05
    5   -0.19434995E+03   -0.67274186E-10    0.41055355E-06
    6   -0.19434995E+03   -0.60538241E-11    0.92059804E-07
    7   -0.19434995E+03   -0.11368684E-12    0.11604353E-07
    8   -0.19434995E+03   -0.85265128E-13    0.35089607E-08

Total Energy:                     -192.3798648043 H        -5234.9225 eV
Extrapolated to 0K:               -192.3798648043 H        -5234.9225 eV
Total Mermin free energy:         -192.3798648043 H        -5234.9225 eV
Force related energy:             -192.3798648043 H        -5234.9225 eV

Volume:                              0.100394E+05 au^3   0.148768E+04 A^3
Pressure:                           -0.129806E-06 au    -0.381904E+07 Pa
>> Charges saved for restart in charges.bin

total energy  -1.9237986E+02 H       energy change -9.5015085E-07 H
gradient norm  6.9220141E-04 H/a0    max. gradient  1.6858367E-04 H/a0
step length    6.5249534E-03 a0      max. step      1.6476091E-03 a0

--------------------------------------------------------------------------------

***  Geometry step: 140

 iSCC Total electronic   Diff electronic      SCC error    
    1   -0.19434995E+03    0.00000000E+00    0.18680178E-03
    2   -0.19435016E+03   -0.21278262E-03    0.81595180E-04
    3   -0.19435016E+03   -0.18170169E-07    0.24161150E-04
    4   -0.19435016E+03   -0.36581866E-08    0.35059124E-05
    5   -0.19435016E+03   -0.78330231E-10    0.73866744E-06
    6   -0.19435016E+03   -0.78443918E-11    0.12990278E-06
    7   -0.19435016E+03   -0.85265128E-13    0.11937059E-07
    8   -0.19435016E+03    0.56843419E-13    0.36529997E-08

Total Energy:                     -192.3798657965 H        -5234.9225 eV
Extrapolated to 0K:               -192.3798657965 H        -5234.9225 eV
Total Mermin free energy:         -192.3798657965 H        -5234.9225 eV
Force related energy:             -192.3798657965 H        -5234.9225 eV

Volume:                              0.100388E+05 au^3   0.148760E+04 A^3
Pressure:                           -0.122274E-07 au    -0.359743E+06 Pa
>> Charges saved for restart in charges.bin

total energy  -1.9237987E+02 H       energy change -9.9216450E-07 H
gradient norm  7.5389122E-04 H/a0    max. gradient  2.0225619E-04 H/a0
step length    8.6514981E-03 a0      max. step      1.9516608E-03 a0

--------------------------------------------------------------------------------

***  Geometry step: 141

 iSCC Total electronic   Diff electronic      SCC error    
    1   -0.19435016E+03    0.00000000E+00    0.22917120E-03
    2   -0.19435023E+03   -0.67794288E-04    0.99808427E-04
    3   -0.19435023E+03   -0.23890351E-07    0.30191174E-04
    4   -0.19435023E+03   -0.51558970E-08    0.40526516E-05
    5   -0.19435023E+03   -0.13531576E-09    0.11001316E-05
    6   -0.19435023E+03   -0.10061285E-10    0.15266846E-06
    7   -0.19435023E+03   -0.28421709E-12    0.14215320E-07
    8   -0.19435023E+03    0.28421709E-13    0.51386535E-08

Total Energy:                     -192.3798668265 H        -5234.9225 eV
Extrapolated to 0K:               -192.3798668265 H        -5234.9225 eV
Total Mermin free energy:         -192.3798668265 H        -5234.9225 eV
Force related energy:             -192.3798668265 H        -5234.9225 eV

Volume:                              0.100385E+05 au^3   0.148755E+04 A^3
Pressure:                            0.496892E-08 au     0.146191E+06 Pa
>> Charges saved for restart in charges.bin

total energy  -1.9237987E+02 H       energy change -1.0300288E-06 H
gradient norm  7.6493578E-04 H/a0    max. gradient  1.7969123E-04 H/a0
step length    1.1862283E-02 a0      max. step      2.6289734E-03 a0

--------------------------------------------------------------------------------

***  Geometry step: 142

 iSCC Total electronic   Diff electronic      SCC error    
    1   -0.19435023E+03    0.00000000E+00    0.14313480E-03
    2   -0.19435036E+03   -0.12858950E-03    0.56290629E-04
    3   -0.19435036E+03   -0.10484257E-07    0.12765616E-04
    4   -0.19435036E+03   -0.24205065E-08    0.17722717E-05
    5   -0.19435036E+03   -0.27711167E-10    0.35112740E-06
    6   -0.19435036E+03   -0.19042545E-11    0.78759522E-07
    7   -0.19435036E+03   -0.56843419E-13    0.74722077E-08

Total Energy:                     -192.3798675444 H        -5234.9225 eV
Extrapolated to 0K:               -192.3798675444 H        -5234.9225 eV
Total Mermin free energy:         -192.3798675444 H        -5234.9225 eV
Force related energy:             -192.3798675444 H        -5234.9225 eV

Volume:                              0.100384E+05 au^3   0.148754E+04 A^3
Pressure:                            0.579896E-07 au     0.170611E+07 Pa
>> Charges saved for restart in charges.bin

total energy  -1.9237987E+02 H       energy change -7.1787440E-07 H
gradient norm  6.0701341E-04 H/a0    max. gradient  1.4750740E-04 H/a0
step length    2.1931624E-03 a0      max. step      4.3809481E-04 a0

--------------------------------------------------------------------------------

***  Geometry step: 143

 iSCC Total electronic   Diff electronic      SCC error    
    1   -0.19435036E+03    0.00000000E+00    0.22622775E-03
    2   -0.19435035E+03    0.55135430E-05    0.86072501E-04
    3   -0.19435035E+03   -0.29463735E-07    0.20764683E-04
    4   -0.19435035E+03   -0.64594303E-08    0.26788391E-05
    5   -0.19435035E+03   -0.70599526E-10    0.47732838E-06
    6   -0.19435035E+03   -0.54853899E-11    0.10460259E-06
    7   -0.19435035E+03    0.00000000E+00    0.10942236E-07
    8   -0.19435035E+03   -0.28421709E-13    0.34895162E-08

Total Energy:                     -192.3798684463 H        -5234.9226 eV
Extrapolated to 0K:               -192.3798684463 H        -5234.9226 eV
Total Mermin free energy:         -192.3798684463 H        -5234.9226 eV
Force related energy:             -192.3798684463 H        -5234.9226 eV

Volume:                              0.100385E+05 au^3   0.148755E+04 A^3
Pressure:                            0.666203E-07 au     0.196004E+07 Pa
>> Charges saved for restart in charges.bin

total energy  -1.9237987E+02 H       energy change -9.0193222E-07 H
gradient norm  6.0993208E-04 H/a0    max. gradient  1.4450828E-04 H/a0
step length    4.2605513E-03 a0      max. step      8.5770229E-04 a0

--------------------------------------------------------------------------------

***  Geometry step: 144

 iSCC Total electronic   Diff electronic      SCC error    
    1   -0.19435035E+03    0.00000000E+00    0.12239678E-03
    2   -0.19435018E+03    0.17479848E-03    0.41767282E-04
    3   -0.19435018E+03   -0.85287013E-08    0.13237026E-04
    4   -0.19435018E+03   -0.16801494E-08    0.15606372E-05
    5   -0.19435018E+03   -0.23788971E-10    0.23590879E-06
    6   -0.19435018E+03   -0.18189894E-11    0.45744250E-07
    7   -0.19435018E+03   -0.28421709E-13    0.90834269E-08

Total Energy:                     -192.3798689787 H        -5234.9226 eV
Extrapolated to 0K:               -192.3798689787 H        -5234.9226 eV
Total Mermin free energy:         -192.3798689787 H        -5234.9226 eV
Force related energy:             -192.3798689787 H        -5234.9226 eV

Volume:                              0.100386E+05 au^3   0.148757E+04 A^3
Pressure:                           -0.149929E-07 au    -0.441106E+06 Pa
>> Charges saved for restart in charges.bin

total energy  -1.9237987E+02 H       energy change -5.3235541E-07 H
gradient norm  5.9737672E-04 H/a0    max. gradient  1.6956687E-04 H/a0
step length    3.6468039E-03 a0      max. step      6.5741603E-04 a0

--------------------------------------------------------------------------------

***  Geometry step: 145

 iSCC Total electronic   Diff electronic      SCC error    
    1   -0.19435018E+03    0.00000000E+00    0.16481670E-03
    2   -0.19434994E+03    0.23314744E-03    0.59961809E-04
    3   -0.19434994E+03   -0.13504120E-07    0.16490171E-04
    4   -0.19434994E+03   -0.29295677E-08    0.22838447E-05
    5   -0.19434994E+03   -0.57497118E-10    0.43565173E-06
    6   -0.19434994E+03   -0.45190518E-11    0.85271760E-07
    7   -0.19434994E+03    0.28421709E-13    0.16799585E-07
    8   -0.19434994E+03    0.28421709E-13    0.36346495E-08

Total Energy:                     -192.3798696013 H        -5234.9226 eV
Extrapolated to 0K:               -192.3798696013 H        -5234.9226 eV
Total Mermin free energy:         -192.3798696013 H        -5234.9226 eV
Force related energy:             -192.3798696013 H        -5234.9226 eV

Volume:                              0.100387E+05 au^3   0.148758E+04 A^3
Pressure:                           -0.110917E-06 au    -0.326330E+07 Pa
>> Charges saved for restart in charges.bin

total energy  -1.9237987E+02 H       energy change -6.2264604E-07 H
gradient norm  5.2580014E-04 H/a0    max. gradient  1.3656731E-04 H/a0
step length    4.7247615E-03 a0      max. step      1.0894090E-03 a0

--------------------------------------------------------------------------------

***  Geometry step: 146

 iSCC Total electronic   Diff electronic      SCC error    
    1   -0.19434994E+03    0.00000000E+00    0.98330929E-04
    2   -0.19434984E+03    0.10345474E-03    0.60387638E-04
    3   -0.19434984E+03   -0.90890637E-08    0.19367824E-04
    4   -0.19434984E+03   -0.20397692E-08    0.19166896E-05
    5   -0.19434984E+03   -0.35697667E-10    0.42354929E-06
    6   -0.19434984E+03   -0.27853275E-11    0.78907303E-07
    7   -0.19434984E+03    0.28421709E-13    0.10132721E-07
    8   -0.19434984E+03   -0.56843419E-13    0.25062015E-08

Total Energy:                     -192.3798701480 H        -5234.9226 eV
Extrapolated to 0K:               -192.3798701480 H        -5234.9226 eV
Total Mermin free energy:         -192.3798701480 H        -5234.9226 eV
Force related energy:             -192.3798701480 H        -5234.9226 eV

Volume:                              0.100388E+05 au^3   0.148759E+04 A^3
Pressure:                           -0.152575E-06 au    -0.448891E+07 Pa
>> Charges saved for restart in charges.bin

total energy  -1.9237987E+02 H       energy change -5.4665733E-07 H
gradient norm  4.9056964E-04 H/a0    max. gradient  8.9192180E-05 H/a0
step length    4.9749436E-03 a0      max. step      1.1326123E-03 a0

Geometry converged

--------------------------------------------------------------------------------
DFTB+ running times                          cpu [s]             wall clock [s]
--------------------------------------------------------------------------------
Pre-SCC initialisation                 +      12.51 (  0.9%)       1.88 (  1.1%)
SCC                                    +    1175.46 ( 88.4%)     148.57 ( 89.5%)
Post-SCC processing                    +     141.93 ( 10.7%)      15.59 (  9.4%)
--------------------------------------------------------------------------------
Missing                                +       0.04 (  0.0%)       0.01 (  0.0%)
Total                                  =    1329.94 (100.0%)     166.05 (100.0%)
--------------------------------------------------------------------------------
