|===============================================================================
|
|  DFTB+ release 24.1
|
|  Copyright (C) 2006 - 2024  DFTB+ developers group
|
|===============================================================================
|
|  When publishing results obtained with DFTB+, please cite the following
|  reference:
|
|  * DFTB+, a software package for efficient approximate density functional
|    theory based atomistic simulations, J. Chem. Phys. 152, 124101 (2020).
|    [doi: 10.1063/1.5143190]
|
|  You should also cite additional publications crediting the parametrization
|  data you use. Please consult the documentation of the SK-files for the
|  references.
|
|===============================================================================

Reading input file 'dftb_in.hsd'
Parser version: 14

--------------------------------------------------------------------------------
Reading SK-files:
./SKFiles/Ge-Ge.skf
./SKFiles/Ge-Si.skf
./SKFiles/Ge-O.skf
./SKFiles/Si-Si.skf
./SKFiles/Si-O.skf
./SKFiles/O-O.skf
Done.


Processed input in HSD format written to 'dftb_pin.hsd'

Starting initialization...
--------------------------------------------------------------------------------
WARNING!
-> Dipole printed for extended system : value printed is not well defined
MPI processes:               1
OpenMP threads:              8
BLACS orbital grid size:     1 x 1
BLACS atom grid size:        1 x 1
Chosen random seed:          151310302
Current stacksize:           unlimited
Mode:                        Static calculation
Self consistent charges:     Yes
SCC-tolerance:                 0.100000E-07
Max. scc iterations:                    500
Shell resolved Hubbard:      No
Spin polarisation:           No
Nr. of up electrons:           192.000000
Nr. of down electrons:         192.000000
Periodic boundaries:         Yes
Electronic solver:           Relatively robust
Mixer:                       Broyden mixer
Mixing parameter:                  0.200000
Maximal SCC-cycles:                     500
Nr. of chrg. vec. in memory:            500
Electronic temperature:              0.100000E-07 H      0.272114E-06 eV
Initial charges:             Set automatically (system chrg:   0.000E+00)
Included shells:            Ge:  s, p, d
                            Si:  s, p, d
                             O:  s, p
K-points and weights:           1:  0.500000  0.500000  0.500000     1.000000

K-points in absolute space:     1:  0.025319  0.017606  0.037774

Extra options:
                             Mulliken analysis
Force type                   original

--------------------------------------------------------------------------------

***  Geometry step: 0

 iSCC Total electronic   Diff electronic      SCC error    
    1    0.00000000E+00    0.00000000E+00    0.14596911E+01
    2   -0.19479964E+03   -0.19479964E+03    0.99416804E+00
    3   -0.19516649E+03   -0.36685464E+00    0.60212656E-01
    4   -0.19548239E+03   -0.31589413E+00    0.28737829E-01
    5   -0.19548451E+03   -0.21267509E-02    0.78767618E-02
    6   -0.19548467E+03   -0.15398679E-03    0.16642328E-02
    7   -0.19548467E+03   -0.48964172E-05    0.42913339E-03
    8   -0.19548467E+03   -0.12385855E-05    0.51080401E-04
    9   -0.19548467E+03   -0.71940406E-07    0.28650404E-04
   10   -0.19548467E+03   -0.68411055E-10    0.15187479E-05
   11   -0.19548467E+03   -0.17641355E-09    0.39988137E-06
   12   -0.19548467E+03   -0.40074610E-11    0.12016913E-06
   13   -0.19548467E+03   -0.14210855E-12    0.21357926E-07
   14   -0.19548467E+03    0.17053026E-12    0.13931665E-08

Total Energy:                     -191.8768438923 H        -5221.2346 eV
Extrapolated to 0K:               -191.8768438923 H        -5221.2346 eV
Total Mermin free energy:         -191.8768438923 H        -5221.2346 eV
Force related energy:             -191.8768438923 H        -5221.2346 eV

Volume:                              0.913789E+04 au^3   0.135410E+04 A^3
Pressure:                            0.714061E-03 au     0.210084E+11 Pa
>> Charges saved for restart in charges.bin

total energy  -1.9187684E+02 H       energy change -1.9187684E+02 H
gradient norm  7.1083120E-01 H/a0    max. gradient  2.8997357E-01 H/a0
step length    0.0000000E+00 a0      max. step      0.0000000E+00 a0

--------------------------------------------------------------------------------

***  Geometry step: 1

 iSCC Total electronic   Diff electronic      SCC error    
    1   -0.19548467E+03    0.00000000E+00    0.74409358E-01
    2   -0.19518243E+03    0.30224629E+00    0.37098211E-01
    3   -0.19518697E+03   -0.45471824E-02    0.10088764E-01
    4   -0.19518807E+03   -0.11000556E-02    0.11290889E-02
    5   -0.19518809E+03   -0.12579942E-04    0.26264843E-03
    6   -0.19518809E+03   -0.65223483E-06    0.74553501E-04
    7   -0.19518809E+03   -0.40313381E-07    0.18639596E-04
    8   -0.19518809E+03   -0.31803040E-08    0.16709110E-05
    9   -0.19518809E+03   -0.12300916E-09    0.58977756E-06
   10   -0.19518809E+03   -0.61675109E-11    0.24976591E-06
   11   -0.19518809E+03   -0.19895197E-12    0.45549528E-07
   12   -0.19518809E+03   -0.85265128E-13    0.49220392E-08

Total Energy:                     -192.0322517997 H        -5225.4634 eV
Extrapolated to 0K:               -192.0322517997 H        -5225.4634 eV
Total Mermin free energy:         -192.0322517997 H        -5225.4634 eV
Force related energy:             -192.0322517997 H        -5225.4634 eV

Volume:                              0.937741E+04 au^3   0.138959E+04 A^3
Pressure:                            0.501330E-03 au     0.147496E+11 Pa
>> Charges saved for restart in charges.bin

total energy  -1.9203225E+02 H       energy change -1.5540791E-01 H
gradient norm  5.2247312E-01 H/a0    max. gradient  1.6779977E-01 H/a0
step length    5.1920771E-01 a0      max. step      2.1180346E-01 a0

--------------------------------------------------------------------------------

***  Geometry step: 2

 iSCC Total electronic   Diff electronic      SCC error    
    1   -0.19518809E+03    0.00000000E+00    0.58922659E-01
    2   -0.19507068E+03    0.11740889E+00    0.34438829E-01
    3   -0.19507281E+03   -0.21365439E-02    0.84329276E-02
    4   -0.19507337E+03   -0.55643869E-03    0.93394112E-03
    5   -0.19507338E+03   -0.62575843E-05    0.22392126E-03
    6   -0.19507338E+03   -0.43146045E-06    0.70031345E-04
    7   -0.19507338E+03   -0.11207078E-07    0.13442832E-04
    8   -0.19507338E+03   -0.15830608E-08    0.18526432E-05
    9   -0.19507338E+03   -0.10740564E-09    0.53190676E-06
   10   -0.19507338E+03   -0.28421709E-11    0.20527312E-06
   11   -0.19507338E+03    0.00000000E+00    0.28190078E-07
   12   -0.19507338E+03   -0.28421709E-13    0.47835154E-08

Total Energy:                     -192.1727947481 H        -5229.2878 eV
Extrapolated to 0K:               -192.1727947481 H        -5229.2878 eV
Total Mermin free energy:         -192.1727947481 H        -5229.2878 eV
Force related energy:             -192.1727947481 H        -5229.2878 eV

Volume:                              0.939678E+04 au^3   0.139246E+04 A^3
Pressure:                            0.405341E-03 au     0.119256E+11 Pa
>> Charges saved for restart in charges.bin

total energy  -1.9217279E+02 H       energy change -1.4054295E-01 H
gradient norm  2.7816025E-01 H/a0    max. gradient  5.2257193E-02 H/a0
step length    4.3891611E-01 a0      max. step      1.4232677E-01 a0

--------------------------------------------------------------------------------

***  Geometry step: 3

 iSCC Total electronic   Diff electronic      SCC error    
    1   -0.19507338E+03    0.00000000E+00    0.69778060E-01
    2   -0.19485381E+03    0.21957205E+00    0.41018385E-01
    3   -0.19485559E+03   -0.17869594E-02    0.66879597E-02
    4   -0.19485613E+03   -0.53753928E-03    0.56682676E-03
    5   -0.19485614E+03   -0.78194598E-05    0.20087227E-03
    6   -0.19485614E+03   -0.35530633E-06    0.83098093E-04
    7   -0.19485614E+03   -0.10877244E-07    0.16549878E-04
    8   -0.19485614E+03   -0.14830732E-08    0.18705999E-05
    9   -0.19485614E+03   -0.10592771E-09    0.49695439E-06
   10   -0.19485614E+03   -0.17337243E-11    0.16731327E-06
   11   -0.19485614E+03    0.11368684E-12    0.24661908E-07
   12   -0.19485614E+03    0.28421709E-13    0.57160503E-08

Total Energy:                     -192.2623629919 H        -5231.7251 eV
Extrapolated to 0K:               -192.2623629919 H        -5231.7251 eV
Total Mermin free energy:         -192.2623629919 H        -5231.7251 eV
Force related energy:             -192.2623629919 H        -5231.7251 eV

Volume:                              0.947797E+04 au^3   0.140449E+04 A^3
Pressure:                            0.282557E-03 au     0.831310E+10 Pa
>> Charges saved for restart in charges.bin

total energy  -1.9226236E+02 H       energy change -8.9568244E-02 H
gradient norm  2.1017464E-01 H/a0    max. gradient  1.0984701E-01 H/a0
step length    5.3773089E-01 a0      max. step      1.4178980E-01 a0

--------------------------------------------------------------------------------

***  Geometry step: 4

 iSCC Total electronic   Diff electronic      SCC error    
    1   -0.19485614E+03    0.00000000E+00    0.57063667E-01
    2   -0.19461626E+03    0.23987795E+00    0.33591362E-01
    3   -0.19461743E+03   -0.11682925E-02    0.61834645E-02
    4   -0.19461773E+03   -0.29959275E-03    0.63026766E-03
    5   -0.19461773E+03   -0.66285683E-05    0.20577257E-03
    6   -0.19461773E+03   -0.24494847E-06    0.10022038E-03
    7   -0.19461773E+03   -0.63615175E-08    0.80344166E-05
    8   -0.19461773E+03   -0.14134969E-08    0.25371475E-05
    9   -0.19461773E+03   -0.75743856E-10    0.45386204E-06
   10   -0.19461773E+03   -0.88107299E-12    0.92982630E-07
   11   -0.19461773E+03   -0.11368684E-12    0.24358905E-07
   12   -0.19461773E+03    0.28421709E-13    0.63966255E-08

Total Energy:                     -192.3048820992 H        -5232.8821 eV
Extrapolated to 0K:               -192.3048820992 H        -5232.8821 eV
Total Mermin free energy:         -192.3048820992 H        -5232.8821 eV
Force related energy:             -192.3048820992 H        -5232.8821 eV

Volume:                              0.958611E+04 au^3   0.142052E+04 A^3
Pressure:                            0.168244E-03 au     0.494990E+10 Pa
>> Charges saved for restart in charges.bin

total energy  -1.9230488E+02 H       energy change -4.2519107E-02 H
gradient norm  2.1511641E-01 H/a0    max. gradient  1.2704256E-01 H/a0
step length    4.9652877E-01 a0      max. step      1.0871631E-01 a0

--------------------------------------------------------------------------------

***  Geometry step: 5

 iSCC Total electronic   Diff electronic      SCC error    
    1   -0.19461773E+03    0.00000000E+00    0.24417423E-01
    2   -0.19447056E+03    0.14717135E+00    0.13560901E-01
    3   -0.19447096E+03   -0.39208075E-03    0.22910370E-02
    4   -0.19447106E+03   -0.99917458E-04    0.30929959E-03
    5   -0.19447106E+03   -0.11561080E-05    0.86275799E-04
    6   -0.19447106E+03   -0.57883938E-07    0.47315380E-04
    7   -0.19447106E+03   -0.10561507E-08    0.39276360E-05
    8   -0.19447106E+03   -0.21671553E-09    0.10063346E-05
    9   -0.19447106E+03   -0.10487611E-10    0.24971029E-06
   10   -0.19447106E+03   -0.14210855E-12    0.24733232E-07
   11   -0.19447106E+03    0.00000000E+00    0.82936946E-08

Total Energy:                     -192.3278870061 H        -5233.5081 eV
Extrapolated to 0K:               -192.3278870061 H        -5233.5081 eV
Total Mermin free energy:         -192.3278870061 H        -5233.5081 eV
Force related energy:             -192.3278870061 H        -5233.5081 eV

Volume:                              0.966001E+04 au^3   0.143147E+04 A^3
Pressure:                            0.102768E-03 au     0.302353E+10 Pa
>> Charges saved for restart in charges.bin

total energy  -1.9232789E+02 H       energy change -2.3004907E-02 H
gradient norm  9.6134898E-02 H/a0    max. gradient  1.5654762E-02 H/a0
step length    3.0573620E-01 a0      max. step      5.8749155E-02 a0

--------------------------------------------------------------------------------

***  Geometry step: 6

 iSCC Total electronic   Diff electronic      SCC error    
    1   -0.19447106E+03    0.00000000E+00    0.22180118E-01
    2   -0.19439255E+03    0.78504318E-01    0.91657025E-02
    3   -0.19439283E+03   -0.28036802E-03    0.18877713E-02
    4   -0.19439290E+03   -0.68154060E-04    0.40560180E-03
    5   -0.19439290E+03   -0.80799830E-06    0.48487962E-04
    6   -0.19439290E+03   -0.74978800E-07    0.16678877E-04
    7   -0.19439290E+03   -0.20810091E-08    0.66872470E-05
    8   -0.19439290E+03   -0.14529178E-09    0.11258556E-05
    9   -0.19439290E+03   -0.82138740E-11    0.11258560E-06
   10   -0.19439290E+03   -0.54001248E-12    0.35554039E-07
   11   -0.19439290E+03    0.56843419E-13    0.10075039E-07
   12   -0.19439290E+03    0.00000000E+00    0.21399202E-08

Total Energy:                     -192.3399447405 H        -5233.8362 eV
Extrapolated to 0K:               -192.3399447405 H        -5233.8362 eV
Total Mermin free energy:         -192.3399447405 H        -5233.8362 eV
Force related energy:             -192.3399447405 H        -5233.8362 eV

Volume:                              0.968622E+04 au^3   0.143535E+04 A^3
Pressure:                            0.654846E-04 au     0.192662E+10 Pa
>> Charges saved for restart in charges.bin

total energy  -1.9233994E+02 H       energy change -1.2057734E-02 H
gradient norm  8.8330038E-02 H/a0    max. gradient  3.0710314E-02 H/a0
step length    2.7105185E-01 a0      max. step      5.5128420E-02 a0

--------------------------------------------------------------------------------

***  Geometry step: 7

 iSCC Total electronic   Diff electronic      SCC error    
    1   -0.19439290E+03    0.00000000E+00    0.12023267E-01
    2   -0.19433372E+03    0.59177588E-01    0.55540639E-02
    3   -0.19433391E+03   -0.18319011E-03    0.17408093E-02
    4   -0.19433395E+03   -0.43840426E-04    0.19979312E-03
    5   -0.19433395E+03   -0.49512443E-06    0.56946424E-04
    6   -0.19433395E+03   -0.37401577E-07    0.21773120E-04
    7   -0.19433395E+03   -0.95027985E-09    0.37083820E-05
    8   -0.19433395E+03   -0.70627948E-10    0.68140396E-06
    9   -0.19433395E+03   -0.74180662E-11    0.17154262E-06
   10   -0.19433395E+03   -0.28421709E-12    0.17894229E-07
   11   -0.19433395E+03   -0.28421709E-13    0.27896481E-08

Total Energy:                     -192.3487448765 H        -5234.0757 eV
Extrapolated to 0K:               -192.3487448765 H        -5234.0757 eV
Total Mermin free energy:         -192.3487448765 H        -5234.0757 eV
Force related energy:             -192.3487448765 H        -5234.0757 eV

Volume:                              0.972480E+04 au^3   0.144107E+04 A^3
Pressure:                            0.375894E-04 au     0.110592E+10 Pa
>> Charges saved for restart in charges.bin

total energy  -1.9234874E+02 H       energy change -8.8001361E-03 H
gradient norm  6.9120131E-02 H/a0    max. gradient  2.6740244E-02 H/a0
step length    2.3509755E-01 a0      max. step      4.9014970E-02 a0

--------------------------------------------------------------------------------

***  Geometry step: 8

 iSCC Total electronic   Diff electronic      SCC error    
    1   -0.19433395E+03    0.00000000E+00    0.20080624E-01
    2   -0.19433919E+03   -0.52401934E-02    0.12071248E-01
    3   -0.19433941E+03   -0.22281722E-03    0.22503816E-02
    4   -0.19433948E+03   -0.60945172E-04    0.37355190E-03
    5   -0.19433948E+03   -0.12374314E-05    0.85013274E-04
    6   -0.19433948E+03   -0.10630075E-06    0.21811364E-04
    7   -0.19433948E+03   -0.19747688E-08    0.56205779E-05
    8   -0.19433948E+03   -0.15637625E-09    0.70536084E-06
    9   -0.19433948E+03   -0.23277380E-10    0.21267091E-06
   10   -0.19433948E+03   -0.34106051E-12    0.31399914E-07
   11   -0.19433948E+03   -0.56843419E-13    0.80132807E-08

Total Energy:                     -192.3540005659 H        -5234.2187 eV
Extrapolated to 0K:               -192.3540005659 H        -5234.2187 eV
Total Mermin free energy:         -192.3540005659 H        -5234.2187 eV
Force related energy:             -192.3540005659 H        -5234.2187 eV

Volume:                              0.972403E+04 au^3   0.144095E+04 A^3
Pressure:                            0.364863E-04 au     0.107346E+10 Pa
>> Charges saved for restart in charges.bin

total energy  -1.9235400E+02 H       energy change -5.2556894E-03 H
gradient norm  5.4048603E-02 H/a0    max. gradient  1.5193505E-02 H/a0
step length    2.0328753E-01 a0      max. step      3.3273089E-02 a0

--------------------------------------------------------------------------------

***  Geometry step: 9

 iSCC Total electronic   Diff electronic      SCC error    
    1   -0.19433948E+03    0.00000000E+00    0.10706058E-01
    2   -0.19435650E+03   -0.17027040E-01    0.65525834E-02
    3   -0.19435655E+03   -0.47327059E-04    0.95339247E-03
    4   -0.19435656E+03   -0.13260607E-04    0.14768185E-03
    5   -0.19435657E+03   -0.55251999E-06    0.40136194E-04
    6   -0.19435657E+03   -0.13507787E-07    0.12216244E-04
    7   -0.19435657E+03   -0.26406610E-09    0.13353216E-05
    8   -0.19435657E+03   -0.46725290E-10    0.32237334E-06
    9   -0.19435657E+03   -0.19326762E-11    0.66465612E-07
   10   -0.19435657E+03   -0.56843419E-13    0.10453489E-07
   11   -0.19435657E+03    0.00000000E+00    0.17118036E-08

Total Energy:                     -192.3567874993 H        -5234.2945 eV
Extrapolated to 0K:               -192.3567874993 H        -5234.2945 eV
Total Mermin free energy:         -192.3567874993 H        -5234.2945 eV
Force related energy:             -192.3567874993 H        -5234.2945 eV

Volume:                              0.971998E+04 au^3   0.144035E+04 A^3
Pressure:                            0.411307E-04 au     0.121011E+10 Pa
>> Charges saved for restart in charges.bin

total energy  -1.9235679E+02 H       energy change -2.7869334E-03 H
gradient norm  4.2897616E-02 H/a0    max. gradient  1.0564506E-02 H/a0
step length    1.1773899E-01 a0      max. step      1.9192988E-02 a0

--------------------------------------------------------------------------------

***  Geometry step: 10

 iSCC Total electronic   Diff electronic      SCC error    
    1   -0.19435657E+03    0.00000000E+00    0.14615383E-01
    2   -0.19437277E+03   -0.16202194E-01    0.65781810E-02
    3   -0.19437285E+03   -0.78806412E-04    0.13638410E-02
    4   -0.19437287E+03   -0.19778043E-04    0.14490428E-03
    5   -0.19437287E+03   -0.81406705E-06    0.52966748E-04
    6   -0.19437287E+03   -0.30056157E-07    0.16324390E-04
    7   -0.19437287E+03   -0.95079145E-09    0.41354658E-05
    8   -0.19437287E+03   -0.62470917E-10    0.39834046E-06
    9   -0.19437287E+03   -0.49737992E-11    0.79339655E-07
   10   -0.19437287E+03   -0.19895197E-12    0.17076529E-07
   11   -0.19437287E+03    0.00000000E+00    0.32799012E-08

Total Energy:                     -192.3601150186 H        -5234.3851 eV
Extrapolated to 0K:               -192.3601150186 H        -5234.3851 eV
Total Mermin free energy:         -192.3601150186 H        -5234.3851 eV
Force related energy:             -192.3601150186 H        -5234.3851 eV

Volume:                              0.972055E+04 au^3   0.144044E+04 A^3
Pressure:                            0.443344E-04 au     0.130436E+10 Pa
>> Charges saved for restart in charges.bin

total energy  -1.9236012E+02 H       energy change -3.3275192E-03 H
gradient norm  4.0121068E-02 H/a0    max. gradient  1.3474284E-02 H/a0
step length    1.6599449E-01 a0      max. step      2.9231176E-02 a0

--------------------------------------------------------------------------------

***  Geometry step: 11

 iSCC Total electronic   Diff electronic      SCC error    
    1   -0.19437287E+03    0.00000000E+00    0.11654359E-01
    2   -0.19437281E+03    0.53546992E-04    0.51473740E-02
    3   -0.19437289E+03   -0.72540217E-04    0.15888453E-02
    4   -0.19437290E+03   -0.16706005E-04    0.15960786E-03
    5   -0.19437290E+03   -0.53504954E-06    0.30356687E-04
    6   -0.19437290E+03   -0.31588684E-07    0.79621533E-05
    7   -0.19437290E+03   -0.67544192E-09    0.27695836E-05
    8   -0.19437290E+03   -0.41751491E-10    0.46014296E-06
    9   -0.19437290E+03   -0.24726887E-11    0.64444382E-07
   10   -0.19437290E+03   -0.17053026E-12    0.13570434E-07
   11   -0.19437290E+03    0.00000000E+00    0.29245282E-08

Total Energy:                     -192.3628796073 H        -5234.4603 eV
Extrapolated to 0K:               -192.3628796073 H        -5234.4603 eV
Total Mermin free energy:         -192.3628796073 H        -5234.4603 eV
Force related energy:             -192.3628796073 H        -5234.4603 eV

Volume:                              0.973160E+04 au^3   0.144207E+04 A^3
Pressure:                            0.407240E-04 au     0.119814E+10 Pa
>> Charges saved for restart in charges.bin

total energy  -1.9236288E+02 H       energy change -2.7645888E-03 H
gradient norm  4.1756953E-02 H/a0    max. gradient  1.3927765E-02 H/a0
step length    1.7474932E-01 a0      max. step      3.1031992E-02 a0

--------------------------------------------------------------------------------

***  Geometry step: 12

 iSCC Total electronic   Diff electronic      SCC error    
    1   -0.19437290E+03    0.00000000E+00    0.73854028E-02
    2   -0.19435993E+03    0.12968671E-01    0.46515413E-02
    3   -0.19435998E+03   -0.44788279E-04    0.13671104E-02
    4   -0.19435999E+03   -0.10189744E-04    0.13499674E-03
    5   -0.19435999E+03   -0.34015051E-06    0.26873847E-04
    6   -0.19435999E+03   -0.21847626E-07    0.10521772E-04
    7   -0.19435999E+03   -0.28330760E-09    0.22083611E-05
    8   -0.19435999E+03   -0.16001422E-10    0.25324940E-06
    9   -0.19435999E+03   -0.13073986E-11    0.85499825E-07
   10   -0.19435999E+03   -0.11368684E-12    0.11054980E-07
   11   -0.19435999E+03    0.28421709E-13    0.17638935E-08

Total Energy:                     -192.3651940860 H        -5234.5233 eV
Extrapolated to 0K:               -192.3651940860 H        -5234.5233 eV
Total Mermin free energy:         -192.3651940860 H        -5234.5233 eV
Force related energy:             -192.3651940860 H        -5234.5233 eV

Volume:                              0.975273E+04 au^3   0.144521E+04 A^3
Pressure:                            0.324252E-04 au     0.953983E+09 Pa
>> Charges saved for restart in charges.bin

total energy  -1.9236519E+02 H       energy change -2.3144787E-03 H
gradient norm  3.7481932E-02 H/a0    max. gradient  1.3360684E-02 H/a0
step length    1.7482965E-01 a0      max. step      3.2726671E-02 a0

--------------------------------------------------------------------------------

***  Geometry step: 13

 iSCC Total electronic   Diff electronic      SCC error    
    1   -0.19435999E+03    0.00000000E+00    0.54212199E-02
    2   -0.19434360E+03    0.16387036E-01    0.33593187E-02
    3   -0.19434363E+03   -0.23490204E-04    0.96670551E-03
    4   -0.19434363E+03   -0.52780439E-05    0.90823844E-04
    5   -0.19434363E+03   -0.18244950E-06    0.30440266E-04
    6   -0.19434363E+03   -0.11528698E-07    0.94083197E-05
    7   -0.19434363E+03   -0.32005687E-09    0.20807324E-05
    8   -0.19434363E+03   -0.12903456E-10    0.22964597E-06
    9   -0.19434363E+03   -0.12789769E-11    0.50950400E-07
   10   -0.19434363E+03   -0.85265128E-13    0.80040485E-08

Total Energy:                     -192.3669065887 H        -5234.5699 eV
Extrapolated to 0K:               -192.3669065887 H        -5234.5699 eV
Total Mermin free energy:         -192.3669065887 H        -5234.5699 eV
Force related energy:             -192.3669065887 H        -5234.5699 eV

Volume:                              0.977729E+04 au^3   0.144885E+04 A^3
Pressure:                            0.235631E-04 au     0.693251E+09 Pa
>> Charges saved for restart in charges.bin

total energy  -1.9236691E+02 H       energy change -1.7125027E-03 H
gradient norm  2.8365190E-02 H/a0    max. gradient  7.6377964E-03 H/a0
step length    1.5586481E-01 a0      max. step      2.8744140E-02 a0

--------------------------------------------------------------------------------

***  Geometry step: 14

 iSCC Total electronic   Diff electronic      SCC error    
    1   -0.19434363E+03    0.00000000E+00    0.45202880E-02
    2   -0.19433289E+03    0.10742640E-01    0.21125341E-02
    3   -0.19433291E+03   -0.16313578E-04    0.65001250E-03
    4   -0.19433291E+03   -0.33875939E-05    0.84212500E-04
    5   -0.19433291E+03   -0.60967750E-07    0.22711224E-04
    6   -0.19433291E+03   -0.62550214E-08    0.66044006E-05
    7   -0.19433291E+03   -0.16797230E-09    0.15417449E-05
    8   -0.19433291E+03   -0.65369932E-11    0.21129789E-06
    9   -0.19433291E+03   -0.62527761E-12    0.50167958E-07
   10   -0.19433291E+03    0.28421709E-13    0.74753026E-08

Total Energy:                     -192.3680034479 H        -5234.5997 eV
Extrapolated to 0K:               -192.3680034479 H        -5234.5997 eV
Total Mermin free energy:         -192.3680034479 H        -5234.5997 eV
Force related energy:             -192.3680034479 H        -5234.5997 eV

Volume:                              0.979872E+04 au^3   0.145202E+04 A^3
Pressure:                            0.175992E-04 au     0.517787E+09 Pa
>> Charges saved for restart in charges.bin

total energy  -1.9236800E+02 H       energy change -1.0968592E-03 H
gradient norm  2.4048095E-02 H/a0    max. gradient  6.1301587E-03 H/a0
step length    1.0656177E-01 a0      max. step      2.1322605E-02 a0

--------------------------------------------------------------------------------

***  Geometry step: 15

 iSCC Total electronic   Diff electronic      SCC error    
    1   -0.19433291E+03    0.00000000E+00    0.62375474E-02
    2   -0.19432866E+03    0.42450030E-02    0.34790892E-02
    3   -0.19432869E+03   -0.28891533E-04    0.81705837E-03
    4   -0.19432870E+03   -0.61215966E-05    0.13054517E-03
    5   -0.19432870E+03   -0.10269414E-06    0.35145666E-04
    6   -0.19432870E+03   -0.96627559E-08    0.87495543E-05
    7   -0.19432870E+03   -0.23240432E-09    0.14759764E-05
    8   -0.19432870E+03   -0.73612227E-11    0.21505232E-06
    9   -0.19432870E+03   -0.16768809E-11    0.58352541E-07
   10   -0.19432870E+03    0.56843419E-13    0.63102865E-08

Total Energy:                     -192.3690918160 H        -5234.6293 eV
Extrapolated to 0K:               -192.3690918160 H        -5234.6293 eV
Total Mermin free energy:         -192.3690918160 H        -5234.6293 eV
Force related energy:             -192.3690918160 H        -5234.6293 eV

Volume:                              0.981939E+04 au^3   0.145508E+04 A^3
Pressure:                            0.145643E-04 au     0.428495E+09 Pa
>> Charges saved for restart in charges.bin

total energy  -1.9236909E+02 H       energy change -1.0883681E-03 H
gradient norm  2.5035958E-02 H/a0    max. gradient  6.1925036E-03 H/a0
step length    1.1270251E-01 a0      max. step      2.3053572E-02 a0

--------------------------------------------------------------------------------

***  Geometry step: 16

 iSCC Total electronic   Diff electronic      SCC error    
    1   -0.19432870E+03    0.00000000E+00    0.72091900E-02
    2   -0.19432866E+03    0.40077709E-04    0.40241429E-02
    3   -0.19432868E+03   -0.21990840E-04    0.82893141E-03
    4   -0.19432869E+03   -0.48902314E-05    0.11967781E-03
    5   -0.19432869E+03   -0.10079407E-06    0.28401225E-04
    6   -0.19432869E+03   -0.89427488E-08    0.70974783E-05
    7   -0.19432869E+03   -0.18422952E-09    0.16357908E-05
    8   -0.19432869E+03   -0.71338491E-11    0.18455717E-06
    9   -0.19432869E+03   -0.17621460E-11    0.49840125E-07
   10   -0.19432869E+03   -0.11368684E-12    0.72820132E-08

Total Energy:                     -192.3699883162 H        -5234.6537 eV
Extrapolated to 0K:               -192.3699883162 H        -5234.6537 eV
Total Mermin free energy:         -192.3699883162 H        -5234.6537 eV
Force related energy:             -192.3699883162 H        -5234.6537 eV

Volume:                              0.983819E+04 au^3   0.145787E+04 A^3
Pressure:                            0.136554E-04 au     0.401755E+09 Pa
>> Charges saved for restart in charges.bin

total energy  -1.9236999E+02 H       energy change -8.9650017E-04 H
gradient norm  2.5937696E-02 H/a0    max. gradient  6.0266809E-03 H/a0
step length    1.1210459E-01 a0      max. step      2.2629346E-02 a0

--------------------------------------------------------------------------------

***  Geometry step: 17

 iSCC Total electronic   Diff electronic      SCC error    
    1   -0.19432869E+03    0.00000000E+00    0.50307099E-02
    2   -0.19433036E+03   -0.16765616E-02    0.27920123E-02
    3   -0.19433037E+03   -0.10051807E-04    0.50940501E-03
    4   -0.19433037E+03   -0.21644869E-05    0.82042785E-04
    5   -0.19433037E+03   -0.63624100E-07    0.21154656E-04
    6   -0.19433037E+03   -0.52079940E-08    0.40134596E-05
    7   -0.19433037E+03   -0.10601298E-09    0.12262379E-05
    8   -0.19433037E+03   -0.41779913E-11    0.15090308E-06
    9   -0.19433037E+03   -0.88107299E-12    0.44233764E-07
   10   -0.19433037E+03    0.28421709E-13    0.48148419E-08

Total Energy:                     -192.3707705777 H        -5234.6750 eV
Extrapolated to 0K:               -192.3707705777 H        -5234.6750 eV
Total Mermin free energy:         -192.3707705777 H        -5234.6750 eV
Force related energy:             -192.3707705777 H        -5234.6750 eV

Volume:                              0.985271E+04 au^3   0.146002E+04 A^3
Pressure:                            0.136643E-04 au     0.402018E+09 Pa
>> Charges saved for restart in charges.bin

total energy  -1.9237077E+02 H       energy change -7.8226155E-04 H
gradient norm  2.2286703E-02 H/a0    max. gradient  4.6701261E-03 H/a0
step length    1.0070702E-01 a0      max. step      2.0306413E-02 a0

--------------------------------------------------------------------------------

***  Geometry step: 18

 iSCC Total electronic   Diff electronic      SCC error    
    1   -0.19433037E+03    0.00000000E+00    0.53131734E-02
    2   -0.19433052E+03   -0.15023669E-03    0.23473257E-02
    3   -0.19433054E+03   -0.15983096E-04    0.63408670E-03
    4   -0.19433054E+03   -0.33771690E-05    0.10041365E-03
    5   -0.19433054E+03   -0.79644138E-07    0.27290584E-04
    6   -0.19433054E+03   -0.68411055E-08    0.72108582E-05
    7   -0.19433054E+03   -0.15469936E-09    0.17795498E-05
    8   -0.19433054E+03   -0.41779913E-11    0.20807188E-06
    9   -0.19433054E+03   -0.13073986E-11    0.50174719E-07
   10   -0.19433054E+03    0.00000000E+00    0.67803834E-08

Total Energy:                     -192.3716747728 H        -5234.6996 eV
Extrapolated to 0K:               -192.3716747728 H        -5234.6996 eV
Total Mermin free energy:         -192.3716747728 H        -5234.6996 eV
Force related energy:             -192.3716747728 H        -5234.6996 eV

Volume:                              0.987251E+04 au^3   0.146296E+04 A^3
Pressure:                            0.126995E-04 au     0.373633E+09 Pa
>> Charges saved for restart in charges.bin

total energy  -1.9237167E+02 H       energy change -9.0419505E-04 H
gradient norm  2.0126232E-02 H/a0    max. gradient  3.9443338E-03 H/a0
step length    1.3695398E-01 a0      max. step      2.7180215E-02 a0

--------------------------------------------------------------------------------

***  Geometry step: 19

 iSCC Total electronic   Diff electronic      SCC error    
    1   -0.19433054E+03    0.00000000E+00    0.48928622E-02
    2   -0.19432886E+03    0.16871753E-02    0.21382636E-02
    3   -0.19432887E+03   -0.14756204E-04    0.55255184E-03
    4   -0.19432888E+03   -0.31671786E-05    0.80754089E-04
    5   -0.19432888E+03   -0.49415405E-07    0.14278138E-04
    6   -0.19432888E+03   -0.50361848E-08    0.48646640E-05
    7   -0.19432888E+03   -0.13380941E-09    0.15734757E-05
    8   -0.19432888E+03   -0.38937742E-11    0.16114818E-06
    9   -0.19432888E+03   -0.51159077E-12    0.50909424E-07
   10   -0.19432888E+03    0.56843419E-13    0.90411172E-08

Total Energy:                     -192.3723569045 H        -5234.7182 eV
Extrapolated to 0K:               -192.3723569045 H        -5234.7182 eV
Total Mermin free energy:         -192.3723569045 H        -5234.7182 eV
Force related energy:             -192.3723569045 H        -5234.7182 eV

Volume:                              0.988880E+04 au^3   0.146537E+04 A^3
Pressure:                            0.107811E-04 au     0.317190E+09 Pa
>> Charges saved for restart in charges.bin

total energy  -1.9237236E+02 H       energy change -6.8213167E-04 H
gradient norm  2.0454444E-02 H/a0    max. gradient  6.0340585E-03 H/a0
step length    1.1386446E-01 a0      max. step      2.1248740E-02 a0

--------------------------------------------------------------------------------

***  Geometry step: 20

 iSCC Total electronic   Diff electronic      SCC error    
    1   -0.19432888E+03    0.00000000E+00    0.58301909E-02
    2   -0.19432571E+03    0.31657913E-02    0.24677856E-02
    3   -0.19432572E+03   -0.15106038E-04    0.52501655E-03
    4   -0.19432573E+03   -0.33926633E-05    0.85323002E-04
    5   -0.19432573E+03   -0.66041878E-07    0.27788839E-04
    6   -0.19432573E+03   -0.54232601E-08    0.69817607E-05
    7   -0.19432573E+03   -0.14492230E-09    0.14487596E-05
    8   -0.19432573E+03   -0.34674486E-11    0.16750182E-06
    9   -0.19432573E+03   -0.10231815E-11    0.36316936E-07
   10   -0.19432573E+03   -0.85265128E-13    0.43783963E-08

Total Energy:                     -192.3729540239 H        -5234.7344 eV
Extrapolated to 0K:               -192.3729540239 H        -5234.7344 eV
Total Mermin free energy:         -192.3729540239 H        -5234.7344 eV
Force related energy:             -192.3729540239 H        -5234.7344 eV

Volume:                              0.990596E+04 au^3   0.146791E+04 A^3
Pressure:                            0.791613E-05 au     0.232901E+09 Pa
>> Charges saved for restart in charges.bin

total energy  -1.9237295E+02 H       energy change -5.9711946E-04 H
gradient norm  1.9359892E-02 H/a0    max. gradient  6.5119035E-03 H/a0
step length    1.1462382E-01 a0      max. step      1.9387903E-02 a0

--------------------------------------------------------------------------------

***  Geometry step: 21

 iSCC Total electronic   Diff electronic      SCC error    
    1   -0.19432573E+03    0.00000000E+00    0.31021253E-02
    2   -0.19432390E+03    0.18269722E-02    0.15551979E-02
    3   -0.19432391E+03   -0.64448731E-05    0.40130872E-03
    4   -0.19432391E+03   -0.14438487E-05    0.68987273E-04
    5   -0.19432391E+03   -0.37190460E-07    0.18199880E-04
    6   -0.19432391E+03   -0.29478144E-08    0.33445699E-05
    7   -0.19432391E+03   -0.74919626E-10    0.89872692E-06
    8   -0.19432391E+03   -0.18758328E-11    0.13826059E-06
    9   -0.19432391E+03   -0.45474735E-12    0.27046020E-07
   10   -0.19432391E+03   -0.11368684E-12    0.42672776E-08

Total Energy:                     -192.3733406493 H        -5234.7449 eV
Extrapolated to 0K:               -192.3733406493 H        -5234.7449 eV
Total Mermin free energy:         -192.3733406493 H        -5234.7449 eV
Force related energy:             -192.3733406493 H        -5234.7449 eV

Volume:                              0.991785E+04 au^3   0.146967E+04 A^3
Pressure:                            0.591033E-05 au     0.173888E+09 Pa
>> Charges saved for restart in charges.bin

total energy  -1.9237334E+02 H       energy change -3.8662538E-04 H
gradient norm  1.4661115E-02 H/a0    max. gradient  3.6489511E-03 H/a0
step length    7.8308972E-02 a0      max. step      1.3403422E-02 a0

--------------------------------------------------------------------------------

***  Geometry step: 22

 iSCC Total electronic   Diff electronic      SCC error    
    1   -0.19432391E+03    0.00000000E+00    0.41307310E-02
    2   -0.19432414E+03   -0.23544687E-03    0.15289983E-02
    3   -0.19432415E+03   -0.72951792E-05    0.34303044E-03
    4   -0.19432415E+03   -0.15403034E-05    0.79474322E-04
    5   -0.19432415E+03   -0.26195664E-07    0.15144054E-04
    6   -0.19432415E+03   -0.21694291E-08    0.37933693E-05
    7   -0.19432415E+03   -0.79069196E-10    0.11135980E-05
    8   -0.19432415E+03   -0.10800250E-11    0.12885984E-06
    9   -0.19432415E+03   -0.22737368E-12    0.27366900E-07
   10   -0.19432415E+03   -0.56843419E-13    0.36722256E-08

Total Energy:                     -192.3736254225 H        -5234.7527 eV
Extrapolated to 0K:               -192.3736254225 H        -5234.7527 eV
Total Mermin free energy:         -192.3736254225 H        -5234.7527 eV
Force related energy:             -192.3736254225 H        -5234.7527 eV

Volume:                              0.992663E+04 au^3   0.147098E+04 A^3
Pressure:                            0.478497E-05 au     0.140779E+09 Pa
>> Charges saved for restart in charges.bin

total energy  -1.9237363E+02 H       energy change -2.8477317E-04 H
gradient norm  1.0576156E-02 H/a0    max. gradient  2.3871729E-03 H/a0
step length    6.0018391E-02 a0      max. step      1.0123973E-02 a0

--------------------------------------------------------------------------------

***  Geometry step: 23

 iSCC Total electronic   Diff electronic      SCC error    
    1   -0.19432415E+03    0.00000000E+00    0.27310944E-02
    2   -0.19432692E+03   -0.27638149E-02    0.11951600E-02
    3   -0.19432692E+03   -0.50328797E-05    0.26500918E-03
    4   -0.19432692E+03   -0.10633597E-05    0.49030277E-04
    5   -0.19432692E+03   -0.13250258E-07    0.83485583E-05
    6   -0.19432692E+03   -0.10901999E-08    0.24783694E-05
    7   -0.19432692E+03   -0.45531579E-10    0.78553140E-06
    8   -0.19432692E+03   -0.71054274E-12    0.97469198E-07
    9   -0.19432692E+03   -0.11368684E-12    0.17952808E-07
   10   -0.19432692E+03   -0.56843419E-13    0.33282386E-08

Total Energy:                     -192.3737986019 H        -5234.7574 eV
Extrapolated to 0K:               -192.3737986019 H        -5234.7574 eV
Total Mermin free energy:         -192.3737986019 H        -5234.7574 eV
Force related energy:             -192.3737986019 H        -5234.7574 eV

Volume:                              0.993163E+04 au^3   0.147172E+04 A^3
Pressure:                            0.498318E-05 au     0.146610E+09 Pa
>> Charges saved for restart in charges.bin

total energy  -1.9237380E+02 H       energy change -1.7317946E-04 H
gradient norm  1.0603753E-02 H/a0    max. gradient  2.2060664E-03 H/a0
step length    4.2058931E-02 a0      max. step      7.3852937E-03 a0

--------------------------------------------------------------------------------

***  Geometry step: 24

 iSCC Total electronic   Diff electronic      SCC error    
    1   -0.19432692E+03    0.00000000E+00    0.20096910E-02
    2   -0.19433034E+03   -0.34192277E-02    0.10971599E-02
    3   -0.19433035E+03   -0.29307913E-05    0.24787234E-03
    4   -0.19433035E+03   -0.65325540E-06    0.31933582E-04
    5   -0.19433035E+03   -0.11609700E-07    0.10960335E-04
    6   -0.19433035E+03   -0.78065909E-09    0.20468290E-05
    7   -0.19433035E+03   -0.24812152E-10    0.40722907E-06
    8   -0.19433035E+03   -0.56843419E-12    0.91504040E-07
    9   -0.19433035E+03   -0.56843419E-13    0.21619899E-07
   10   -0.19433035E+03   -0.28421709E-13    0.24383997E-08

Total Energy:                     -192.3739454484 H        -5234.7614 eV
Extrapolated to 0K:               -192.3739454484 H        -5234.7614 eV
Total Mermin free energy:         -192.3739454484 H        -5234.7614 eV
Force related energy:             -192.3739454484 H        -5234.7614 eV

Volume:                              0.993581E+04 au^3   0.147233E+04 A^3
Pressure:                            0.570600E-05 au     0.167876E+09 Pa
>> Charges saved for restart in charges.bin

total energy  -1.9237395E+02 H       energy change -1.4684645E-04 H
gradient norm  1.0795149E-02 H/a0    max. gradient  2.5197022E-03 H/a0
step length    3.7602531E-02 a0      max. step      7.2358323E-03 a0

--------------------------------------------------------------------------------

***  Geometry step: 25

 iSCC Total electronic   Diff electronic      SCC error    
    1   -0.19433035E+03    0.00000000E+00    0.24993315E-02
    2   -0.19433372E+03   -0.33776451E-02    0.13761250E-02
    3   -0.19433373E+03   -0.35405394E-05    0.32614936E-03
    4   -0.19433373E+03   -0.82154673E-06    0.33670529E-04
    5   -0.19433373E+03   -0.21567303E-07    0.11889545E-04
    6   -0.19433373E+03   -0.11686723E-08    0.20362443E-05
    7   -0.19433373E+03   -0.29615421E-10    0.40117027E-06
    8   -0.19433373E+03   -0.11368684E-11    0.13918665E-06
    9   -0.19433373E+03   -0.14210855E-12    0.30587512E-07
   10   -0.19433373E+03    0.28421709E-13    0.29632510E-08

Total Energy:                     -192.3741291360 H        -5234.7664 eV
Extrapolated to 0K:               -192.3741291360 H        -5234.7664 eV
Total Mermin free energy:         -192.3741291360 H        -5234.7664 eV
Force related energy:             -192.3741291360 H        -5234.7664 eV

Volume:                              0.994297E+04 au^3   0.147340E+04 A^3
Pressure:                            0.641116E-05 au     0.188623E+09 Pa
>> Charges saved for restart in charges.bin

total energy  -1.9237413E+02 H       energy change -1.8368759E-04 H
gradient norm  1.0338208E-02 H/a0    max. gradient  2.9433947E-03 H/a0
step length    5.5618829E-02 a0      max. step      1.0490942E-02 a0

--------------------------------------------------------------------------------

***  Geometry step: 26

 iSCC Total electronic   Diff electronic      SCC error    
    1   -0.19433373E+03    0.00000000E+00    0.19137018E-02
    2   -0.19433423E+03   -0.50484012E-03    0.11028815E-02
    3   -0.19433424E+03   -0.31410389E-05    0.35968300E-03
    4   -0.19433424E+03   -0.75837559E-06    0.39114781E-04
    5   -0.19433424E+03   -0.14953400E-07    0.78982993E-05
    6   -0.19433424E+03   -0.11361294E-08    0.18039419E-05
    7   -0.19433424E+03   -0.26233238E-10    0.44301748E-06
    8   -0.19433424E+03   -0.71054274E-12    0.11667721E-06
    9   -0.19433424E+03   -0.22737368E-12    0.22103012E-07
   10   -0.19433424E+03    0.85265128E-13    0.31463552E-08

Total Energy:                     -192.3743008483 H        -5234.7711 eV
Extrapolated to 0K:               -192.3743008483 H        -5234.7711 eV
Total Mermin free energy:         -192.3743008483 H        -5234.7711 eV
Force related energy:             -192.3743008483 H        -5234.7711 eV

Volume:                              0.995216E+04 au^3   0.147476E+04 A^3
Pressure:                            0.592312E-05 au     0.174264E+09 Pa
>> Charges saved for restart in charges.bin

total energy  -1.9237430E+02 H       energy change -1.7171234E-04 H
gradient norm  1.0299768E-02 H/a0    max. gradient  1.9522602E-03 H/a0
step length    5.9552262E-02 a0      max. step      1.0703493E-02 a0

--------------------------------------------------------------------------------

***  Geometry step: 27

 iSCC Total electronic   Diff electronic      SCC error    
    1   -0.19433424E+03    0.00000000E+00    0.18768321E-02
    2   -0.19433275E+03    0.14825523E-02    0.11194854E-02
    3   -0.19433276E+03   -0.38373701E-05    0.39549264E-03
    4   -0.19433276E+03   -0.87952131E-06    0.46384695E-04
    5   -0.19433276E+03   -0.12995514E-07    0.49102201E-05
    6   -0.19433276E+03   -0.11480097E-08    0.10256080E-05
    7   -0.19433276E+03   -0.28904878E-10    0.41648491E-06
    8   -0.19433276E+03   -0.54001248E-12    0.10389289E-06
    9   -0.19433276E+03    0.00000000E+00    0.12673631E-07
   10   -0.19433276E+03    0.56843419E-13    0.29642662E-08

Total Energy:                     -192.3744892121 H        -5234.7762 eV
Extrapolated to 0K:               -192.3744892121 H        -5234.7762 eV
Total Mermin free energy:         -192.3744892121 H        -5234.7762 eV
Force related energy:             -192.3744892121 H        -5234.7762 eV

Volume:                              0.996328E+04 au^3   0.147641E+04 A^3
Pressure:                            0.473321E-05 au     0.139256E+09 Pa
>> Charges saved for restart in charges.bin

total energy  -1.9237449E+02 H       energy change -1.8836377E-04 H
gradient norm  1.1250339E-02 H/a0    max. gradient  3.4893528E-03 H/a0
step length    6.9713282E-02 a0      max. step      1.2502446E-02 a0

--------------------------------------------------------------------------------

***  Geometry step: 28

 iSCC Total electronic   Diff electronic      SCC error    
    1   -0.19433276E+03    0.00000000E+00    0.19503291E-02
    2   -0.19432919E+03    0.35693702E-02    0.99855302E-03
    3   -0.19432919E+03   -0.39814657E-05    0.36636459E-03
    4   -0.19432919E+03   -0.84519985E-06    0.39007773E-04
    5   -0.19432919E+03   -0.13814628E-07    0.60376682E-05
    6   -0.19432919E+03   -0.12317116E-08    0.17458421E-05
    7   -0.19432919E+03   -0.25011104E-10    0.56796485E-06
    8   -0.19432919E+03   -0.39790393E-12    0.86536601E-07
    9   -0.19432919E+03   -0.17053026E-12    0.23563882E-07
   10   -0.19432919E+03    0.85265128E-13    0.32773024E-08

Total Energy:                     -192.3746882681 H        -5234.7816 eV
Extrapolated to 0K:               -192.3746882681 H        -5234.7816 eV
Total Mermin free energy:         -192.3746882681 H        -5234.7816 eV
Force related energy:             -192.3746882681 H        -5234.7816 eV

Volume:                              0.997625E+04 au^3   0.147833E+04 A^3
Pressure:                            0.259875E-05 au     0.764578E+08 Pa
>> Charges saved for restart in charges.bin

total energy  -1.9237469E+02 H       energy change -1.9905609E-04 H
gradient norm  1.1796785E-02 H/a0    max. gradient  3.4224156E-03 H/a0
step length    8.0583720E-02 a0      max. step      1.4950881E-02 a0

--------------------------------------------------------------------------------

***  Geometry step: 29

 iSCC Total electronic   Diff electronic      SCC error    
    1   -0.19432919E+03    0.00000000E+00    0.15253461E-02
    2   -0.19432645E+03    0.27409296E-02    0.76153536E-03
    3   -0.19432646E+03   -0.24556437E-05    0.21655318E-03
    4   -0.19432646E+03   -0.53906467E-06    0.36366238E-04
    5   -0.19432646E+03   -0.14410290E-07    0.74450946E-05
    6   -0.19432646E+03   -0.11416148E-08    0.15590426E-05
    7   -0.19432646E+03   -0.36635583E-10    0.42351169E-06
    8   -0.19432646E+03   -0.56843419E-12    0.78209642E-07
    9   -0.19432646E+03    0.28421709E-13    0.15369635E-07
   10   -0.19432646E+03   -0.85265128E-13    0.24642173E-08

Total Energy:                     -192.3748765205 H        -5234.7867 eV
Extrapolated to 0K:               -192.3748765205 H        -5234.7867 eV
Total Mermin free energy:         -192.3748765205 H        -5234.7867 eV
Force related energy:             -192.3748765205 H        -5234.7867 eV

Volume:                              0.998658E+04 au^3   0.147986E+04 A^3
Pressure:                            0.677926E-06 au     0.199453E+08 Pa
>> Charges saved for restart in charges.bin

total energy  -1.9237488E+02 H       energy change -1.8825235E-04 H
gradient norm  1.0965611E-02 H/a0    max. gradient  2.7870826E-03 H/a0
step length    7.6501159E-02 a0      max. step      1.5276140E-02 a0

--------------------------------------------------------------------------------

***  Geometry step: 30

 iSCC Total electronic   Diff electronic      SCC error    
    1   -0.19432646E+03    0.00000000E+00    0.16413102E-02
    2   -0.19432611E+03    0.34745573E-03    0.89092075E-03
    3   -0.19432611E+03   -0.29806448E-05    0.26456016E-03
    4   -0.19432611E+03   -0.76026512E-06    0.35561498E-04
    5   -0.19432611E+03   -0.14958403E-07    0.67852960E-05
    6   -0.19432611E+03   -0.14443913E-08    0.12315815E-05
    7   -0.19432611E+03   -0.40529358E-10    0.40359189E-06
    8   -0.19432611E+03   -0.71054274E-12    0.68888104E-07
    9   -0.19432611E+03   -0.28421709E-13    0.14594880E-07
   10   -0.19432611E+03   -0.56843419E-13    0.25758284E-08

Total Energy:                     -192.3750608418 H        -5234.7917 eV
Extrapolated to 0K:               -192.3750608418 H        -5234.7917 eV
Total Mermin free energy:         -192.3750608418 H        -5234.7917 eV
Force related energy:             -192.3750608418 H        -5234.7917 eV

Volume:                              0.999411E+04 au^3   0.148097E+04 A^3
Pressure:                           -0.210058E-06 au    -0.618011E+07 Pa
>> Charges saved for restart in charges.bin

total energy  -1.9237506E+02 H       energy change -1.8432130E-04 H
gradient norm  9.8041406E-03 H/a0    max. gradient  2.7908496E-03 H/a0
step length    7.9247518E-02 a0      max. step      1.6690020E-02 a0

--------------------------------------------------------------------------------

***  Geometry step: 31

 iSCC Total electronic   Diff electronic      SCC error    
    1   -0.19432611E+03    0.00000000E+00    0.19704797E-02
    2   -0.19432836E+03   -0.22459500E-02    0.84018853E-03
    3   -0.19432836E+03   -0.24166831E-05    0.20502170E-03
    4   -0.19432836E+03   -0.57535314E-06    0.27721423E-04
    5   -0.19432836E+03   -0.74318507E-08    0.44573388E-05
    6   -0.19432836E+03   -0.74854256E-09    0.72260029E-06
    7   -0.19432836E+03   -0.25352165E-10    0.30462815E-06
    8   -0.19432836E+03   -0.28421709E-12    0.59919047E-07
    9   -0.19432836E+03   -0.28421709E-13    0.11728874E-07
   10   -0.19432836E+03   -0.85265128E-13    0.16384485E-08

Total Energy:                     -192.3752080257 H        -5234.7958 eV
Extrapolated to 0K:               -192.3752080257 H        -5234.7958 eV
Total Mermin free energy:         -192.3752080257 H        -5234.7958 eV
Force related energy:             -192.3752080257 H        -5234.7958 eV

Volume:                              0.999697E+04 au^3   0.148140E+04 A^3
Pressure:                            0.132916E-06 au     0.391052E+07 Pa
>> Charges saved for restart in charges.bin

total energy  -1.9237521E+02 H       energy change -1.4718386E-04 H
gradient norm  9.8841656E-03 H/a0    max. gradient  2.5640506E-03 H/a0
step length    6.1167662E-02 a0      max. step      1.3070741E-02 a0

--------------------------------------------------------------------------------

***  Geometry step: 32

 iSCC Total electronic   Diff electronic      SCC error    
    1   -0.19432836E+03    0.00000000E+00    0.25722003E-02
    2   -0.19433262E+03   -0.42568930E-02    0.10988060E-02
    3   -0.19433262E+03   -0.41053694E-05    0.27889197E-03
    4   -0.19433262E+03   -0.95804134E-06    0.34556605E-04
    5   -0.19433262E+03   -0.83729503E-08    0.57019375E-05
    6   -0.19433262E+03   -0.81465146E-09    0.14412397E-05
    7   -0.19433262E+03   -0.25323743E-10    0.49133631E-06
    8   -0.19433262E+03   -0.22737368E-12    0.80299404E-07
    9   -0.19433262E+03    0.28421709E-13    0.17316077E-07
   10   -0.19433262E+03   -0.85265128E-13    0.30647040E-08

Total Energy:                     -192.3753829304 H        -5234.8005 eV
Extrapolated to 0K:               -192.3753829304 H        -5234.8005 eV
Total Mermin free energy:         -192.3753829304 H        -5234.8005 eV
Force related energy:             -192.3753829304 H        -5234.8005 eV

Volume:                              0.999832E+04 au^3   0.148160E+04 A^3
Pressure:                            0.127411E-05 au     0.374857E+08 Pa
>> Charges saved for restart in charges.bin

total energy  -1.9237538E+02 H       energy change -1.7490478E-04 H
gradient norm  1.1119336E-02 H/a0    max. gradient  2.8284871E-03 H/a0
step length    7.4766040E-02 a0      max. step      1.5952307E-02 a0

--------------------------------------------------------------------------------

***  Geometry step: 33

 iSCC Total electronic   Diff electronic      SCC error    
    1   -0.19433262E+03    0.00000000E+00    0.16914936E-02
    2   -0.19433674E+03   -0.41154135E-02    0.80399748E-03
    3   -0.19433674E+03   -0.21515029E-05    0.29592838E-03
    4   -0.19433674E+03   -0.45977842E-06    0.36105298E-04
    5   -0.19433674E+03   -0.67667543E-08    0.51031085E-05
    6   -0.19433674E+03   -0.59600325E-09    0.10985052E-05
    7   -0.19433674E+03   -0.14097168E-10    0.37901258E-06
    8   -0.19433674E+03   -0.22737368E-12    0.73632788E-07
    9   -0.19433674E+03   -0.28421709E-13    0.13621419E-07
   10   -0.19433674E+03   -0.28421709E-13    0.21246280E-08

Total Energy:                     -192.3755556168 H        -5234.8052 eV
Extrapolated to 0K:               -192.3755556168 H        -5234.8052 eV
Total Mermin free energy:         -192.3755556168 H        -5234.8052 eV
Force related energy:             -192.3755556168 H        -5234.8052 eV

Volume:                              0.999912E+04 au^3   0.148172E+04 A^3
Pressure:                            0.265226E-05 au     0.780323E+08 Pa
>> Charges saved for restart in charges.bin

total energy  -1.9237556E+02 H       energy change -1.7268634E-04 H
gradient norm  1.1549833E-02 H/a0    max. gradient  2.6490542E-03 H/a0
step length    7.5832926E-02 a0      max. step      1.6137150E-02 a0

--------------------------------------------------------------------------------

***  Geometry step: 34

 iSCC Total electronic   Diff electronic      SCC error    
    1   -0.19433674E+03    0.00000000E+00    0.19512563E-02
    2   -0.19434010E+03   -0.33567160E-02    0.12383984E-02
    3   -0.19434010E+03   -0.27688610E-05    0.38241808E-03
    4   -0.19434010E+03   -0.57471314E-06    0.41382933E-04
    5   -0.19434010E+03   -0.20434783E-07    0.12902436E-04
    6   -0.19434010E+03   -0.11692123E-08    0.21469617E-05
    7   -0.19434010E+03   -0.26631142E-10    0.54090547E-06
    8   -0.19434010E+03   -0.56843419E-12    0.12047187E-06
    9   -0.19434010E+03   -0.85265128E-13    0.18416180E-07
   10   -0.19434010E+03    0.28421709E-13    0.31895966E-08

Total Energy:                     -192.3757899068 H        -5234.8116 eV
Extrapolated to 0K:               -192.3757899068 H        -5234.8116 eV
Total Mermin free energy:         -192.3757899068 H        -5234.8116 eV
Force related energy:             -192.3757899068 H        -5234.8116 eV

Volume:                              0.100017E+05 au^3   0.148209E+04 A^3
Pressure:                            0.367622E-05 au     0.108158E+09 Pa
>> Charges saved for restart in charges.bin

total energy  -1.9237579E+02 H       energy change -2.3429001E-04 H
gradient norm  1.1292020E-02 H/a0    max. gradient  2.7810288E-03 H/a0
step length    1.1323878E-01 a0      max. step      2.4108285E-02 a0

--------------------------------------------------------------------------------

***  Geometry step: 35

 iSCC Total electronic   Diff electronic      SCC error    
    1   -0.19434010E+03    0.00000000E+00    0.26235041E-02
    2   -0.19434097E+03   -0.86897338E-03    0.14828731E-02
    3   -0.19434097E+03   -0.31897526E-05    0.30310016E-03
    4   -0.19434097E+03   -0.74708512E-06    0.38733033E-04
    5   -0.19434097E+03   -0.29684429E-07    0.17279811E-04
    6   -0.19434097E+03   -0.16155752E-08    0.30487574E-05
    7   -0.19434097E+03   -0.38454573E-10    0.50459599E-06
    8   -0.19434097E+03   -0.82422957E-12    0.11736551E-06
    9   -0.19434097E+03   -0.11368684E-12    0.19159799E-07
   10   -0.19434097E+03   -0.14210855E-12    0.30696334E-08

Total Energy:                     -192.3760086421 H        -5234.8175 eV
Extrapolated to 0K:               -192.3760086421 H        -5234.8175 eV
Total Mermin free energy:         -192.3760086421 H        -5234.8175 eV
Force related energy:             -192.3760086421 H        -5234.8175 eV

Volume:                              0.100057E+05 au^3   0.148269E+04 A^3
Pressure:                            0.385809E-05 au     0.113509E+09 Pa
>> Charges saved for restart in charges.bin

total energy  -1.9237601E+02 H       energy change -2.1873535E-04 H
gradient norm  1.0308660E-02 H/a0    max. gradient  1.9524054E-03 H/a0
step length    1.1955057E-01 a0      max. step      2.5520361E-02 a0

--------------------------------------------------------------------------------

***  Geometry step: 36

 iSCC Total electronic   Diff electronic      SCC error    
    1   -0.19434097E+03    0.00000000E+00    0.29438070E-02
    2   -0.19433913E+03    0.18425946E-02    0.14968072E-02
    3   -0.19433914E+03   -0.35271537E-05    0.34337763E-03
    4   -0.19433914E+03   -0.82741875E-06    0.38819031E-04
    5   -0.19433914E+03   -0.26296618E-07    0.16389645E-04
    6   -0.19433914E+03   -0.14882744E-08    0.29697578E-05
    7   -0.19433914E+03   -0.34020786E-10    0.59763902E-06
    8   -0.19433914E+03   -0.90949470E-12    0.10938173E-06
    9   -0.19433914E+03   -0.14210855E-12    0.24581245E-07
   10   -0.19433914E+03   -0.11368684E-12    0.23176394E-08

Total Energy:                     -192.3761731162 H        -5234.8220 eV
Extrapolated to 0K:               -192.3761731162 H        -5234.8220 eV
Total Mermin free energy:         -192.3761731162 H        -5234.8220 eV
Force related energy:             -192.3761731162 H        -5234.8220 eV

Volume:                              0.100107E+05 au^3   0.148343E+04 A^3
Pressure:                            0.281470E-05 au     0.828114E+08 Pa
>> Charges saved for restart in charges.bin

total energy  -1.9237617E+02 H       energy change -1.6447406E-04 H
gradient norm  9.9430576E-03 H/a0    max. gradient  2.7882209E-03 H/a0
step length    1.0107463E-01 a0      max. step      2.1346154E-02 a0

--------------------------------------------------------------------------------

***  Geometry step: 37

 iSCC Total electronic   Diff electronic      SCC error    
    1   -0.19433914E+03    0.00000000E+00    0.23300047E-02
    2   -0.19433779E+03    0.13457111E-02    0.10583185E-02
    3   -0.19433779E+03   -0.23323232E-05    0.27695750E-03
    4   -0.19433779E+03   -0.50972855E-06    0.34685026E-04
    5   -0.19433779E+03   -0.11703634E-07    0.92295023E-05
    6   -0.19433779E+03   -0.81780627E-09    0.17560845E-05
    7   -0.19433779E+03   -0.15489832E-10    0.36649074E-06
    8   -0.19433779E+03   -0.54001248E-12    0.87418682E-07
    9   -0.19433779E+03   -0.85265128E-13    0.19013779E-07
   10   -0.19433779E+03    0.85265128E-13    0.19399451E-08

Total Energy:                     -192.3763040288 H        -5234.8256 eV
Extrapolated to 0K:               -192.3763040288 H        -5234.8256 eV
Total Mermin free energy:         -192.3763040288 H        -5234.8256 eV
Force related energy:             -192.3763040288 H        -5234.8256 eV

Volume:                              0.100143E+05 au^3   0.148397E+04 A^3
Pressure:                            0.195175E-05 au     0.574226E+08 Pa
>> Charges saved for restart in charges.bin

total energy  -1.9237630E+02 H       energy change -1.3091260E-04 H
gradient norm  8.8932396E-03 H/a0    max. gradient  2.3478689E-03 H/a0
step length    7.0596962E-02 a0      max. step      1.4567274E-02 a0

--------------------------------------------------------------------------------

***  Geometry step: 38

 iSCC Total electronic   Diff electronic      SCC error    
    1   -0.19433779E+03    0.00000000E+00    0.23528378E-02
    2   -0.19433741E+03    0.38448516E-03    0.86947552E-03
    3   -0.19433741E+03   -0.27469129E-05    0.22864713E-03
    4   -0.19433741E+03   -0.55288604E-06    0.43194454E-04
    5   -0.19433741E+03   -0.85362331E-08    0.67080690E-05
    6   -0.19433741E+03   -0.81286089E-09    0.17434703E-05
    7   -0.19433741E+03   -0.20634161E-10    0.45969813E-06
    8   -0.19433741E+03   -0.51159077E-12    0.78425522E-07
    9   -0.19433741E+03    0.00000000E+00    0.14069728E-07
   10   -0.19433741E+03    0.28421709E-13    0.19171638E-08

Total Energy:                     -192.3764338624 H        -5234.8291 eV
Extrapolated to 0K:               -192.3764338624 H        -5234.8291 eV
Total Mermin free energy:         -192.3764338624 H        -5234.8291 eV
Force related energy:             -192.3764338624 H        -5234.8291 eV

Volume:                              0.100179E+05 au^3   0.148450E+04 A^3
Pressure:                            0.139497E-05 au     0.410414E+08 Pa
>> Charges saved for restart in charges.bin

total energy  -1.9237643E+02 H       energy change -1.2983362E-04 H
gradient norm  8.1042436E-03 H/a0    max. gradient  1.7382909E-03 H/a0
step length    6.9849485E-02 a0      max. step      1.4115376E-02 a0

--------------------------------------------------------------------------------

***  Geometry step: 39

 iSCC Total electronic   Diff electronic      SCC error    
    1   -0.19433741E+03    0.00000000E+00    0.17107277E-02
    2   -0.19433861E+03   -0.11948088E-02    0.59079494E-03
    3   -0.19433861E+03   -0.17229615E-05    0.12964497E-03
    4   -0.19433861E+03   -0.35168046E-06    0.26490934E-04
    5   -0.19433861E+03   -0.52524172E-08    0.46812139E-05
    6   -0.19433861E+03   -0.37852033E-09    0.12087212E-05
    7   -0.19433861E+03   -0.14722445E-10    0.28694803E-06
    8   -0.19433861E+03   -0.25579538E-12    0.80650127E-07
    9   -0.19433861E+03   -0.11368684E-12    0.11556381E-07
   10   -0.19433861E+03   -0.56843419E-13    0.22974898E-08

Total Energy:                     -192.3765388616 H        -5234.8320 eV
Extrapolated to 0K:               -192.3765388616 H        -5234.8320 eV
Total Mermin free energy:         -192.3765388616 H        -5234.8320 eV
Force related energy:             -192.3765388616 H        -5234.8320 eV

Volume:                              0.100209E+05 au^3   0.148495E+04 A^3
Pressure:                            0.132783E-05 au     0.390662E+08 Pa
>> Charges saved for restart in charges.bin

total energy  -1.9237654E+02 H       energy change -1.0499922E-04 H
gradient norm  7.8773103E-03 H/a0    max. gradient  1.8084332E-03 H/a0
step length    5.6451260E-02 a0      max. step      1.1263535E-02 a0

--------------------------------------------------------------------------------

***  Geometry step: 40

 iSCC Total electronic   Diff electronic      SCC error    
    1   -0.19433861E+03    0.00000000E+00    0.20458935E-02
    2   -0.19434154E+03   -0.29318285E-02    0.97493614E-03
    3   -0.19434154E+03   -0.25584572E-05    0.23508436E-03
    4   -0.19434154E+03   -0.53321943E-06    0.38578576E-04
    5   -0.19434154E+03   -0.10258105E-07    0.10141329E-04
    6   -0.19434154E+03   -0.83917939E-09    0.22147440E-05
    7   -0.19434154E+03   -0.22993163E-10    0.45752842E-06
    8   -0.19434154E+03   -0.51159077E-12    0.10709355E-06
    9   -0.19434154E+03   -0.85265128E-13    0.19501851E-07
   10   -0.19434154E+03    0.56843419E-13    0.22298550E-08

Total Energy:                     -192.3766502195 H        -5234.8350 eV
Extrapolated to 0K:               -192.3766502195 H        -5234.8350 eV
Total Mermin free energy:         -192.3766502195 H        -5234.8350 eV
Force related energy:             -192.3766502195 H        -5234.8350 eV

Volume:                              0.100245E+05 au^3   0.148548E+04 A^3
Pressure:                            0.172669E-05 au     0.508010E+08 Pa
>> Charges saved for restart in charges.bin

total energy  -1.9237665E+02 H       energy change -1.1135785E-04 H
gradient norm  8.0808005E-03 H/a0    max. gradient  1.7183621E-03 H/a0
step length    6.8868491E-02 a0      max. step      1.4273045E-02 a0

--------------------------------------------------------------------------------

***  Geometry step: 41

 iSCC Total electronic   Diff electronic      SCC error    
    1   -0.19434154E+03    0.00000000E+00    0.20777736E-02
    2   -0.19434425E+03   -0.27033338E-02    0.98341320E-03
    3   -0.19434425E+03   -0.14947358E-05    0.16794115E-03
    4   -0.19434425E+03   -0.31792899E-06    0.29649181E-04
    5   -0.19434425E+03   -0.72490991E-08    0.84775775E-05
    6   -0.19434425E+03   -0.62416916E-09    0.15782241E-05
    7   -0.19434425E+03   -0.10544454E-10    0.27291890E-06
    8   -0.19434425E+03   -0.22737368E-12    0.71339787E-07
    9   -0.19434425E+03   -0.85265128E-13    0.15310989E-07
   10   -0.19434425E+03    0.11368684E-12    0.13675336E-08

Total Energy:                     -192.3767366058 H        -5234.8373 eV
Extrapolated to 0K:               -192.3767366058 H        -5234.8373 eV
Total Mermin free energy:         -192.3767366058 H        -5234.8373 eV
Force related energy:             -192.3767366058 H        -5234.8373 eV

Volume:                              0.100277E+05 au^3   0.148596E+04 A^3
Pressure:                            0.230768E-05 au     0.678944E+08 Pa
>> Charges saved for restart in charges.bin

total energy  -1.9237674E+02 H       energy change -8.6386350E-05 H
gradient norm  7.6470374E-03 H/a0    max. gradient  1.6618436E-03 H/a0
step length    5.7141122E-02 a0      max. step      1.1874167E-02 a0

--------------------------------------------------------------------------------

***  Geometry step: 42

 iSCC Total electronic   Diff electronic      SCC error    
    1   -0.19434425E+03    0.00000000E+00    0.19757844E-02
    2   -0.19434625E+03   -0.20029617E-02    0.94948671E-03
    3   -0.19434625E+03   -0.18241670E-05    0.23600906E-03
    4   -0.19434625E+03   -0.41439307E-06    0.30493025E-04
    5   -0.19434625E+03   -0.95288613E-08    0.68156176E-05
    6   -0.19434625E+03   -0.78310336E-09    0.14459917E-05
    7   -0.19434625E+03   -0.15660362E-10    0.33982374E-06
    8   -0.19434625E+03   -0.36948222E-12    0.75499611E-07
    9   -0.19434625E+03    0.00000000E+00    0.18631125E-07
   10   -0.19434625E+03    0.00000000E+00    0.16081247E-08

Total Energy:                     -192.3768337647 H        -5234.8400 eV
Extrapolated to 0K:               -192.3768337647 H        -5234.8400 eV
Total Mermin free energy:         -192.3768337647 H        -5234.8400 eV
Force related energy:             -192.3768337647 H        -5234.8400 eV

Volume:                              0.100328E+05 au^3   0.148670E+04 A^3
Pressure:                            0.250234E-05 au     0.736213E+08 Pa
>> Charges saved for restart in charges.bin

total energy  -1.9237683E+02 H       energy change -9.7158911E-05 H
gradient norm  7.0449783E-03 H/a0    max. gradient  2.0845482E-03 H/a0
step length    6.9776588E-02 a0      max. step      1.4189476E-02 a0

--------------------------------------------------------------------------------

***  Geometry step: 43

 iSCC Total electronic   Diff electronic      SCC error    
    1   -0.19434625E+03    0.00000000E+00    0.11752991E-02
    2   -0.19434678E+03   -0.52324138E-03    0.59510050E-03
    3   -0.19434678E+03   -0.15742923E-05    0.21138675E-03
    4   -0.19434678E+03   -0.36568935E-06    0.21291512E-04
    5   -0.19434678E+03   -0.61972401E-08    0.37197043E-05
    6   -0.19434678E+03   -0.54291149E-09    0.97858214E-06
    7   -0.19434678E+03   -0.12676082E-10    0.31960686E-06
    8   -0.19434678E+03   -0.31263880E-12    0.62403746E-07
    9   -0.19434678E+03   -0.28421709E-13    0.12877139E-07
   10   -0.19434678E+03    0.28421709E-13    0.18901827E-08

Total Energy:                     -192.3769184157 H        -5234.8423 eV
Extrapolated to 0K:               -192.3769184157 H        -5234.8423 eV
Total Mermin free energy:         -192.3769184157 H        -5234.8423 eV
Force related energy:             -192.3769184157 H        -5234.8423 eV

Volume:                              0.100382E+05 au^3   0.148751E+04 A^3
Pressure:                            0.224387E-05 au     0.660168E+08 Pa
>> Charges saved for restart in charges.bin

total energy  -1.9237692E+02 H       energy change -8.4650923E-05 H
gradient norm  7.1256646E-03 H/a0    max. gradient  2.5832500E-03 H/a0
step length    6.5979800E-02 a0      max. step      1.3521181E-02 a0

--------------------------------------------------------------------------------

***  Geometry step: 44

 iSCC Total electronic   Diff electronic      SCC error    
    1   -0.19434678E+03    0.00000000E+00    0.14470616E-02
    2   -0.19434587E+03    0.91416495E-03    0.55485417E-03
    3   -0.19434587E+03   -0.17228079E-05    0.18853003E-03
    4   -0.19434587E+03   -0.40025193E-06    0.20429210E-04
    5   -0.19434587E+03   -0.53406097E-08    0.40228645E-05
    6   -0.19434587E+03   -0.42882675E-09    0.74833526E-06
    7   -0.19434587E+03   -0.79580786E-11    0.22299970E-06
    8   -0.19434587E+03   -0.17053026E-12    0.53502009E-07
    9   -0.19434587E+03   -0.56843419E-13    0.12038929E-07
   10   -0.19434587E+03    0.28421709E-13    0.17606112E-08

Total Energy:                     -192.3770041661 H        -5234.8446 eV
Extrapolated to 0K:               -192.3770041661 H        -5234.8446 eV
Total Mermin free energy:         -192.3770041661 H        -5234.8446 eV
Force related energy:             -192.3770041661 H        -5234.8446 eV

Volume:                              0.100449E+05 au^3   0.148851E+04 A^3
Pressure:                            0.136509E-05 au     0.401623E+08 Pa
>> Charges saved for restart in charges.bin

total energy  -1.9237700E+02 H       energy change -8.5750389E-05 H
gradient norm  7.4199725E-03 H/a0    max. gradient  2.2719629E-03 H/a0
step length    7.3273487E-02 a0      max. step      1.5476574E-02 a0

--------------------------------------------------------------------------------

***  Geometry step: 45

 iSCC Total electronic   Diff electronic      SCC error    
    1   -0.19434587E+03    0.00000000E+00    0.11271084E-02
    2   -0.19434464E+03    0.12322681E-02    0.48385455E-03
    3   -0.19434464E+03   -0.98867312E-06    0.10488723E-03
    4   -0.19434464E+03   -0.21951661E-06    0.15643939E-04
    5   -0.19434464E+03   -0.19809931E-08    0.34072093E-05
    6   -0.19434464E+03   -0.12298074E-09    0.59979300E-06
    7   -0.19434464E+03   -0.23590019E-11    0.10995740E-06
    8   -0.19434464E+03   -0.11368684E-12    0.25307492E-07
    9   -0.19434464E+03    0.28421709E-13    0.64965548E-08

Total Energy:                     -192.3770793487 H        -5234.8467 eV
Extrapolated to 0K:               -192.3770793487 H        -5234.8467 eV
Total Mermin free energy:         -192.3770793487 H        -5234.8467 eV
Force related energy:             -192.3770793487 H        -5234.8467 eV

Volume:                              0.100502E+05 au^3   0.148929E+04 A^3
Pressure:                            0.517534E-06 au     0.152264E+08 Pa
>> Charges saved for restart in charges.bin

total energy  -1.9237708E+02 H       energy change -7.5182644E-05 H
gradient norm  6.9899684E-03 H/a0    max. gradient  1.9990832E-03 H/a0
step length    5.9695697E-02 a0      max. step      1.2786903E-02 a0

--------------------------------------------------------------------------------

***  Geometry step: 46

 iSCC Total electronic   Diff electronic      SCC error    
    1   -0.19434464E+03    0.00000000E+00    0.18437394E-02
    2   -0.19434351E+03    0.11306234E-02    0.81299473E-03
    3   -0.19434351E+03   -0.16668771E-05    0.14458363E-03
    4   -0.19434351E+03   -0.38396968E-06    0.23029623E-04
    5   -0.19434351E+03   -0.27727936E-08    0.51359213E-05
    6   -0.19434351E+03   -0.18150104E-09    0.91918334E-06
    7   -0.19434351E+03   -0.50874860E-11    0.22108735E-06
    8   -0.19434351E+03   -0.22737368E-12    0.48035212E-07
    9   -0.19434351E+03    0.00000000E+00    0.12412366E-07
   10   -0.19434351E+03   -0.28421709E-13    0.14037926E-08

Total Energy:                     -192.3771680073 H        -5234.8491 eV
Extrapolated to 0K:               -192.3771680073 H        -5234.8491 eV
Total Mermin free energy:         -192.3771680073 H        -5234.8491 eV
Force related energy:             -192.3771680073 H        -5234.8491 eV

Volume:                              0.100560E+05 au^3   0.149014E+04 A^3
Pressure:                           -0.361427E-06 au    -0.106335E+08 Pa
>> Charges saved for restart in charges.bin

total energy  -1.9237717E+02 H       energy change -8.8658643E-05 H
gradient norm  6.7088245E-03 H/a0    max. gradient  1.8838289E-03 H/a0
step length    7.5220339E-02 a0      max. step      1.6155762E-02 a0

--------------------------------------------------------------------------------

***  Geometry step: 47

 iSCC Total electronic   Diff electronic      SCC error    
    1   -0.19434351E+03    0.00000000E+00    0.13583448E-02
    2   -0.19434351E+03   -0.30643677E-05    0.60312706E-03
    3   -0.19434351E+03   -0.12460485E-05    0.14027304E-03
    4   -0.19434351E+03   -0.30925912E-06    0.16499631E-04
    5   -0.19434351E+03   -0.25245583E-08    0.30418053E-05
    6   -0.19434351E+03   -0.23061375E-09    0.71634445E-06
    7   -0.19434351E+03   -0.44053650E-11    0.27734520E-06
    8   -0.19434351E+03   -0.56843419E-13    0.42450794E-07
    9   -0.19434351E+03    0.00000000E+00    0.87624987E-08

Total Energy:                     -192.3772367084 H        -5234.8510 eV
Extrapolated to 0K:               -192.3772367084 H        -5234.8510 eV
Total Mermin free energy:         -192.3772367084 H        -5234.8510 eV
Force related energy:             -192.3772367084 H        -5234.8510 eV

Volume:                              0.100595E+05 au^3   0.149066E+04 A^3
Pressure:                           -0.740753E-06 au    -0.217937E+08 Pa
>> Charges saved for restart in charges.bin

total energy  -1.9237724E+02 H       energy change -6.8701081E-05 H
gradient norm  6.7072418E-03 H/a0    max. gradient  1.1968678E-03 H/a0
step length    5.9266293E-02 a0      max. step      1.2987658E-02 a0

--------------------------------------------------------------------------------

***  Geometry step: 48

 iSCC Total electronic   Diff electronic      SCC error    
    1   -0.19434351E+03    0.00000000E+00    0.14190557E-02
    2   -0.19434506E+03   -0.15521897E-02    0.57249147E-03
    3   -0.19434507E+03   -0.16795549E-05    0.16150203E-03
    4   -0.19434507E+03   -0.43633639E-06    0.19849457E-04
    5   -0.19434507E+03   -0.53086922E-08    0.25948292E-05
    6   -0.19434507E+03   -0.51659299E-09    0.66266256E-06
    7   -0.19434507E+03   -0.96349595E-11    0.28177607E-06
    8   -0.19434507E+03   -0.25579538E-12    0.44231530E-07
    9   -0.19434507E+03    0.85265128E-13    0.89587600E-08

Total Energy:                     -192.3773224442 H        -5234.8533 eV
Extrapolated to 0K:               -192.3773224442 H        -5234.8533 eV
Total Mermin free energy:         -192.3773224442 H        -5234.8533 eV
Force related energy:             -192.3773224442 H        -5234.8533 eV

Volume:                              0.100622E+05 au^3   0.149107E+04 A^3
Pressure:                           -0.605142E-06 au    -0.178039E+08 Pa
>> Charges saved for restart in charges.bin

total energy  -1.9237732E+02 H       energy change -8.5735778E-05 H
gradient norm  7.0597278E-03 H/a0    max. gradient  1.9453380E-03 H/a0
step length    7.3475723E-02 a0      max. step      1.6319243E-02 a0

--------------------------------------------------------------------------------

***  Geometry step: 49

 iSCC Total electronic   Diff electronic      SCC error    
    1   -0.19434507E+03    0.00000000E+00    0.14794435E-02
    2   -0.19434815E+03   -0.30846440E-02    0.59993023E-03
    3   -0.19434815E+03   -0.20748271E-05    0.17328596E-03
    4   -0.19434815E+03   -0.51354650E-06    0.26341441E-04
    5   -0.19434815E+03   -0.71873103E-08    0.46174199E-05
    6   -0.19434815E+03   -0.63758421E-09    0.93013481E-06
    7   -0.19434815E+03   -0.19809931E-10    0.26973767E-06
    8   -0.19434815E+03   -0.36948222E-12    0.84530547E-07
    9   -0.19434815E+03   -0.56843419E-13    0.14614028E-07
   10   -0.19434815E+03    0.56843419E-13    0.22951139E-08

Total Energy:                     -192.3774101838 H        -5234.8557 eV
Extrapolated to 0K:               -192.3774101838 H        -5234.8557 eV
Total Mermin free energy:         -192.3774101838 H        -5234.8557 eV
Force related energy:             -192.3774101838 H        -5234.8557 eV

Volume:                              0.100643E+05 au^3   0.149137E+04 A^3
Pressure:                            0.953827E-07 au     0.280625E+07 Pa
>> Charges saved for restart in charges.bin

total energy  -1.9237741E+02 H       energy change -8.7739575E-05 H
gradient norm  7.5597876E-03 H/a0    max. gradient  2.1922239E-03 H/a0
step length    9.0505159E-02 a0      max. step      2.0202267E-02 a0

--------------------------------------------------------------------------------

***  Geometry step: 50

 iSCC Total electronic   Diff electronic      SCC error    
    1   -0.19434815E+03    0.00000000E+00    0.90009496E-03
    2   -0.19435018E+03   -0.20270750E-02    0.37095139E-03
    3   -0.19435018E+03   -0.78872023E-06    0.10301495E-03
    4   -0.19435018E+03   -0.16445992E-06    0.11879747E-04
    5   -0.19435018E+03   -0.18519586E-08    0.19360159E-05
    6   -0.19435018E+03   -0.17450930E-09    0.57093933E-06
    7   -0.19435018E+03   -0.23021585E-11    0.13125352E-06
    8   -0.19435018E+03   -0.17053026E-12    0.29157504E-07
    9   -0.19435018E+03    0.00000000E+00    0.89798897E-08

Total Energy:                     -192.3774825213 H        -5234.8576 eV
Extrapolated to 0K:               -192.3774825213 H        -5234.8576 eV
Total Mermin free energy:         -192.3774825213 H        -5234.8576 eV
Force related energy:             -192.3774825213 H        -5234.8576 eV

Volume:                              0.100656E+05 au^3   0.149157E+04 A^3
Pressure:                            0.665360E-06 au     0.195755E+08 Pa
>> Charges saved for restart in charges.bin

total energy  -1.9237748E+02 H       energy change -7.2337512E-05 H
gradient norm  7.1438462E-03 H/a0    max. gradient  2.3566575E-03 H/a0
step length    6.6766831E-02 a0      max. step      1.4888476E-02 a0

--------------------------------------------------------------------------------

***  Geometry step: 51

 iSCC Total electronic   Diff electronic      SCC error    
    1   -0.19435018E+03    0.00000000E+00    0.14063017E-02
    2   -0.19435211E+03   -0.19268692E-02    0.79885233E-03
    3   -0.19435211E+03   -0.26199316E-05    0.19910776E-03
    4   -0.19435211E+03   -0.57301489E-06    0.17652743E-04
    5   -0.19435211E+03   -0.57385989E-08    0.56220634E-05
    6   -0.19435211E+03   -0.42106763E-09    0.14099446E-05
    7   -0.19435211E+03   -0.59401373E-11    0.37321975E-06
    8   -0.19435211E+03   -0.11368684E-12    0.52592393E-07
    9   -0.19435211E+03   -0.56843419E-13    0.18151762E-07
   10   -0.19435211E+03    0.56843419E-13    0.14979120E-08

Total Energy:                     -192.3775852645 H        -5234.8604 eV
Extrapolated to 0K:               -192.3775852645 H        -5234.8604 eV
Total Mermin free energy:         -192.3775852645 H        -5234.8604 eV
Force related energy:             -192.3775852645 H        -5234.8604 eV

Volume:                              0.100671E+05 au^3   0.149179E+04 A^3
Pressure:                            0.123879E-05 au     0.364465E+08 Pa
>> Charges saved for restart in charges.bin

total energy  -1.9237759E+02 H       energy change -1.0274325E-04 H
gradient norm  7.0992273E-03 H/a0    max. gradient  1.7814607E-03 H/a0
step length    9.5893944E-02 a0      max. step      2.1491888E-02 a0

--------------------------------------------------------------------------------

***  Geometry step: 52

 iSCC Total electronic   Diff electronic      SCC error    
    1   -0.19435211E+03    0.00000000E+00    0.18137691E-02
    2   -0.19435198E+03    0.13424877E-03    0.10442636E-02
    3   -0.19435198E+03   -0.16242777E-05    0.23057734E-03
    4   -0.19435198E+03   -0.38643611E-06    0.21198128E-04
[...]

Total Energy:                     -192.3795474652 H        -5234.9138 eV
Extrapolated to 0K:               -192.3795474652 H        -5234.9138 eV
Total Mermin free energy:         -192.3795474652 H        -5234.9138 eV
Force related energy:             -192.3795474652 H        -5234.9138 eV

Volume:                              0.100397E+05 au^3   0.148773E+04 A^3
Pressure:                            0.618028E-08 au     0.181830E+06 Pa
>> Charges saved for restart in charges.bin

total energy  -1.9237955E+02 H       energy change -1.2411689E-06 H
gradient norm  6.8912674E-04 H/a0    max. gradient  1.1777806E-04 H/a0
step length    5.0720608E-03 a0      max. step      9.7308126E-04 a0

--------------------------------------------------------------------------------

***  Geometry step: 150

 iSCC Total electronic   Diff electronic      SCC error    
    1   -0.19435476E+03    0.00000000E+00    0.12380364E-03
    2   -0.19435475E+03    0.10667475E-04    0.66685342E-04
    3   -0.19435475E+03   -0.11348675E-07    0.16377137E-04
    4   -0.19435475E+03   -0.23624409E-08    0.15868188E-05
    5   -0.19435475E+03   -0.30951242E-10    0.56129994E-06
    6   -0.19435475E+03   -0.15631940E-11    0.74555377E-07
    7   -0.19435475E+03   -0.85265128E-13    0.92289172E-08

Total Energy:                     -192.3795483585 H        -5234.9139 eV
Extrapolated to 0K:               -192.3795483585 H        -5234.9139 eV
Total Mermin free energy:         -192.3795483585 H        -5234.9139 eV
Force related energy:             -192.3795483585 H        -5234.9139 eV

Volume:                              0.100394E+05 au^3   0.148768E+04 A^3
Pressure:                            0.189676E-07 au     0.558046E+06 Pa
>> Charges saved for restart in charges.bin

total energy  -1.9237955E+02 H       energy change -8.9330052E-07 H
gradient norm  7.1969962E-04 H/a0    max. gradient  1.4317776E-04 H/a0
step length    5.1405801E-03 a0      max. step      1.0836376E-03 a0

--------------------------------------------------------------------------------

***  Geometry step: 151

 iSCC Total electronic   Diff electronic      SCC error    
    1   -0.19435475E+03    0.00000000E+00    0.13396554E-03
    2   -0.19435476E+03   -0.41468753E-05    0.51507575E-04
    3   -0.19435476E+03   -0.17556857E-07    0.16680528E-04
    4   -0.19435476E+03   -0.36299639E-08    0.22012780E-05
    5   -0.19435476E+03   -0.45218940E-10    0.33408371E-06
    6   -0.19435476E+03   -0.32969183E-11    0.64012495E-07
    7   -0.19435476E+03   -0.28421709E-13    0.11436037E-07
    8   -0.19435476E+03    0.11368684E-12    0.42993147E-08

Total Energy:                     -192.3795495624 H        -5234.9139 eV
Extrapolated to 0K:               -192.3795495624 H        -5234.9139 eV
Total Mermin free energy:         -192.3795495624 H        -5234.9139 eV
Force related energy:             -192.3795495624 H        -5234.9139 eV

Volume:                              0.100390E+05 au^3   0.148762E+04 A^3
Pressure:                            0.446956E-07 au     0.131499E+07 Pa
>> Charges saved for restart in charges.bin

total energy  -1.9237955E+02 H       energy change -1.2039169E-06 H
gradient norm  7.6599963E-04 H/a0    max. gradient  1.5454814E-04 H/a0
step length    8.0929724E-03 a0      max. step      1.6469047E-03 a0

--------------------------------------------------------------------------------

***  Geometry step: 152

 iSCC Total electronic   Diff electronic      SCC error    
    1   -0.19435476E+03    0.00000000E+00    0.13598310E-03
    2   -0.19435459E+03    0.16491944E-03    0.66009445E-04
    3   -0.19435459E+03   -0.17276989E-07    0.13500539E-04
    4   -0.19435459E+03   -0.35224446E-08    0.27320277E-05
    5   -0.19435459E+03   -0.46156856E-10    0.43306183E-06
    6   -0.19435459E+03   -0.37800874E-11    0.11102224E-06
    7   -0.19435459E+03   -0.28421709E-13    0.12824349E-07
    8   -0.19435459E+03    0.00000000E+00    0.32987622E-08

Total Energy:                     -192.3795507322 H        -5234.9139 eV
Extrapolated to 0K:               -192.3795507322 H        -5234.9139 eV
Total Mermin free energy:         -192.3795507322 H        -5234.9139 eV
Force related energy:             -192.3795507322 H        -5234.9139 eV

Volume:                              0.100387E+05 au^3   0.148758E+04 A^3
Pressure:                            0.202911E-08 au     0.596985E+05 Pa
>> Charges saved for restart in charges.bin

total energy  -1.9237955E+02 H       energy change -1.1697977E-06 H
gradient norm  7.5442562E-04 H/a0    max. gradient  1.3692720E-04 H/a0
step length    1.0027812E-02 a0      max. step      2.1577609E-03 a0

--------------------------------------------------------------------------------

***  Geometry step: 153

 iSCC Total electronic   Diff electronic      SCC error    
    1   -0.19435459E+03    0.00000000E+00    0.23892090E-03
    2   -0.19435440E+03    0.18932265E-03    0.82752309E-04
    3   -0.19435440E+03   -0.30115984E-07    0.19530107E-04
    4   -0.19435440E+03   -0.58474541E-08    0.35241705E-05
    5   -0.19435440E+03   -0.69832140E-10    0.58848020E-06
    6   -0.19435440E+03   -0.52011728E-11    0.13456680E-06
    7   -0.19435440E+03   -0.19895197E-12    0.15224078E-07
    8   -0.19435440E+03   -0.28421709E-13    0.49875890E-08

Total Energy:                     -192.3795519214 H        -5234.9140 eV
Extrapolated to 0K:               -192.3795519214 H        -5234.9140 eV
Total Mermin free energy:         -192.3795519214 H        -5234.9140 eV
Force related energy:             -192.3795519214 H        -5234.9140 eV

Volume:                              0.100385E+05 au^3   0.148755E+04 A^3
Pressure:                           -0.636854E-07 au    -0.187369E+07 Pa
>> Charges saved for restart in charges.bin

total energy  -1.9237955E+02 H       energy change -1.1892147E-06 H
gradient norm  7.0546166E-04 H/a0    max. gradient  1.2413353E-04 H/a0
step length    1.0828353E-02 a0      max. step      2.5135620E-03 a0

--------------------------------------------------------------------------------

***  Geometry step: 154

 iSCC Total electronic   Diff electronic      SCC error    
    1   -0.19435440E+03    0.00000000E+00    0.12945019E-03
    2   -0.19435428E+03    0.11968954E-03    0.69641644E-04
    3   -0.19435428E+03   -0.18159085E-07    0.18864599E-04
    4   -0.19435428E+03   -0.40032546E-08    0.21604092E-05
    5   -0.19435428E+03   -0.51812776E-10    0.60036943E-06
    6   -0.19435428E+03   -0.34390268E-11    0.77657174E-07
    7   -0.19435428E+03    0.56843419E-13    0.13074912E-07
    8   -0.19435428E+03   -0.28421709E-13    0.44561888E-08

Total Energy:                     -192.3795528141 H        -5234.9140 eV
Extrapolated to 0K:               -192.3795528141 H        -5234.9140 eV
Total Mermin free energy:         -192.3795528141 H        -5234.9140 eV
Force related energy:             -192.3795528141 H        -5234.9140 eV

Volume:                              0.100386E+05 au^3   0.148756E+04 A^3
Pressure:                           -0.110083E-06 au    -0.323876E+07 Pa
>> Charges saved for restart in charges.bin

total energy  -1.9237955E+02 H       energy change -8.9271143E-07 H
gradient norm  6.1503414E-04 H/a0    max. gradient  1.1433263E-04 H/a0
step length    3.1077752E-03 a0      max. step      7.6420173E-04 a0

--------------------------------------------------------------------------------

***  Geometry step: 155

 iSCC Total electronic   Diff electronic      SCC error    
    1   -0.19435428E+03    0.00000000E+00    0.14344765E-03
    2   -0.19435422E+03    0.62714681E-04    0.64729220E-04
    3   -0.19435422E+03   -0.18011292E-07    0.20558783E-04
    4   -0.19435422E+03   -0.40386112E-08    0.22954693E-05
    5   -0.19435422E+03   -0.49112714E-10    0.53536402E-06
    6   -0.19435422E+03   -0.34674486E-11    0.60673180E-07
    7   -0.19435422E+03   -0.11368684E-12    0.10995603E-07
    8   -0.19435422E+03    0.28421709E-13    0.38959653E-08

Total Energy:                     -192.3795536249 H        -5234.9140 eV
Extrapolated to 0K:               -192.3795536249 H        -5234.9140 eV
Total Mermin free energy:         -192.3795536249 H        -5234.9140 eV
Force related energy:             -192.3795536249 H        -5234.9140 eV

Volume:                              0.100386E+05 au^3   0.148757E+04 A^3
Pressure:                           -0.138035E-06 au    -0.406114E+07 Pa
>> Charges saved for restart in charges.bin

total energy  -1.9237955E+02 H       energy change -8.1077769E-07 H
gradient norm  5.9177777E-04 H/a0    max. gradient  1.4326188E-04 H/a0
step length    3.7616883E-03 a0      max. step      8.3181954E-04 a0

--------------------------------------------------------------------------------

***  Geometry step: 156

 iSCC Total electronic   Diff electronic      SCC error    
    1   -0.19435422E+03    0.00000000E+00    0.12201531E-03
    2   -0.19435422E+03   -0.30042687E-05    0.54514457E-04
    3   -0.19435422E+03   -0.99941246E-08    0.19451722E-04
    4   -0.19435422E+03   -0.21614426E-08    0.21987009E-05
    5   -0.19435422E+03   -0.37033487E-10    0.26241928E-06
    6   -0.19435422E+03   -0.34106051E-11    0.60138704E-07
    7   -0.19435422E+03    0.00000000E+00    0.88626102E-08

Total Energy:                     -192.3795543429 H        -5234.9140 eV
Extrapolated to 0K:               -192.3795543429 H        -5234.9140 eV
Total Mermin free energy:         -192.3795543429 H        -5234.9140 eV
Force related energy:             -192.3795543429 H        -5234.9140 eV

Volume:                              0.100386E+05 au^3   0.148756E+04 A^3
Pressure:                           -0.133936E-06 au    -0.394052E+07 Pa
>> Charges saved for restart in charges.bin

total energy  -1.9237955E+02 H       energy change -7.1803956E-07 H
gradient norm  6.1137956E-04 H/a0    max. gradient  1.5585594E-04 H/a0
step length    4.4703983E-03 a0      max. step      9.6510082E-04 a0

--------------------------------------------------------------------------------

***  Geometry step: 157

 iSCC Total electronic   Diff electronic      SCC error    
    1   -0.19435422E+03    0.00000000E+00    0.14173220E-03
    2   -0.19435430E+03   -0.77844232E-04    0.58017957E-04
    3   -0.19435430E+03   -0.16468164E-07    0.19602570E-04
    4   -0.19435430E+03   -0.28609577E-08    0.25446181E-05
    5   -0.19435430E+03   -0.72276407E-10    0.44961114E-06
    6   -0.19435430E+03   -0.66222583E-11    0.11091284E-06
    7   -0.19435430E+03   -0.14210855E-12    0.13841272E-07
    8   -0.19435430E+03    0.11368684E-12    0.36732652E-08

Total Energy:                     -192.3795553321 H        -5234.9141 eV
Extrapolated to 0K:               -192.3795553321 H        -5234.9141 eV
Total Mermin free energy:         -192.3795553321 H        -5234.9141 eV
Force related energy:             -192.3795553321 H        -5234.9141 eV

Volume:                              0.100384E+05 au^3   0.148754E+04 A^3
Pressure:                           -0.130200E-06 au    -0.383063E+07 Pa
>> Charges saved for restart in charges.bin

total energy  -1.9237956E+02 H       energy change -9.8916388E-07 H
gradient norm  6.5744308E-04 H/a0    max. gradient  1.6773848E-04 H/a0
step length    1.0893984E-02 a0      max. step      2.4326260E-03 a0

--------------------------------------------------------------------------------

***  Geometry step: 158

 iSCC Total electronic   Diff electronic      SCC error    
    1   -0.19435430E+03    0.00000000E+00    0.13940352E-03
    2   -0.19435450E+03   -0.19585272E-03    0.64582920E-04
    3   -0.19435450E+03   -0.12386437E-07    0.20491238E-04
    4   -0.19435450E+03   -0.24303120E-08    0.28132619E-05
    5   -0.19435450E+03   -0.65710992E-10    0.63600063E-06
    6   -0.19435450E+03   -0.59401373E-11    0.12913716E-06
    7   -0.19435450E+03   -0.17053026E-12    0.11908779E-07
    8   -0.19435450E+03    0.11368684E-12    0.34193586E-08

Total Energy:                     -192.3795560860 H        -5234.9141 eV
Extrapolated to 0K:               -192.3795560860 H        -5234.9141 eV
Total Mermin free energy:         -192.3795560860 H        -5234.9141 eV
Force related energy:             -192.3795560860 H        -5234.9141 eV

Volume:                              0.100381E+05 au^3   0.148749E+04 A^3
Pressure:                           -0.381761E-07 au    -0.112318E+07 Pa
>> Charges saved for restart in charges.bin

total energy  -1.9237956E+02 H       energy change -7.5389190E-07 H
gradient norm  6.2302074E-04 H/a0    max. gradient  1.4408483E-04 H/a0
step length    9.2047227E-03 a0      max. step      1.8601000E-03 a0

--------------------------------------------------------------------------------

***  Geometry step: 159

 iSCC Total electronic   Diff electronic      SCC error    
    1   -0.19435450E+03    0.00000000E+00    0.10829831E-03
    2   -0.19435458E+03   -0.83601965E-04    0.62102103E-04
    3   -0.19435458E+03   -0.95765813E-08    0.16505894E-04
    4   -0.19435458E+03   -0.21049971E-08    0.15414847E-05
    5   -0.19435458E+03   -0.26943781E-10    0.56236364E-06
    6   -0.19435458E+03   -0.15063506E-11    0.95260767E-07
    7   -0.19435458E+03   -0.56843419E-13    0.89533518E-08

Total Energy:                     -192.3795566608 H        -5234.9141 eV
Extrapolated to 0K:               -192.3795566608 H        -5234.9141 eV
Total Mermin free energy:         -192.3795566608 H        -5234.9141 eV
Force related energy:             -192.3795566608 H        -5234.9141 eV

Volume:                              0.100381E+05 au^3   0.148749E+04 A^3
Pressure:                           -0.100162E-07 au    -0.294686E+06 Pa
>> Charges saved for restart in charges.bin

total energy  -1.9237956E+02 H       energy change -5.7483268E-07 H
gradient norm  5.3062051E-04 H/a0    max. gradient  1.0213689E-04 H/a0
step length    1.9928588E-03 a0      max. step      3.4795236E-04 a0

--------------------------------------------------------------------------------

***  Geometry step: 160

 iSCC Total electronic   Diff electronic      SCC error    
    1   -0.19435458E+03    0.00000000E+00    0.14806307E-03
    2   -0.19435465E+03   -0.66791229E-04    0.88978026E-04
    3   -0.19435465E+03   -0.20657410E-07    0.22119196E-04
    4   -0.19435465E+03   -0.46487401E-08    0.19568114E-05
    5   -0.19435465E+03   -0.77790219E-10    0.79003071E-06
    6   -0.19435465E+03   -0.35527137E-11    0.11494379E-06
    7   -0.19435465E+03   -0.28421709E-13    0.13134566E-07
    8   -0.19435465E+03   -0.17053026E-12    0.54341580E-08

Total Energy:                     -192.3795573130 H        -5234.9141 eV
Extrapolated to 0K:               -192.3795573130 H        -5234.9141 eV
Total Mermin free energy:         -192.3795573130 H        -5234.9141 eV
Force related energy:             -192.3795573130 H        -5234.9141 eV

Volume:                              0.100381E+05 au^3   0.148749E+04 A^3
Pressure:                           -0.149469E-07 au    -0.439753E+06 Pa
>> Charges saved for restart in charges.bin

total energy  -1.9237956E+02 H       energy change -6.5214337E-07 H
gradient norm  5.6822457E-04 H/a0    max. gradient  1.9920429E-04 H/a0
step length    3.4973532E-03 a0      max. step      6.4687677E-04 a0

--------------------------------------------------------------------------------

***  Geometry step: 161

 iSCC Total electronic   Diff electronic      SCC error    
    1   -0.19435465E+03    0.00000000E+00    0.98862321E-04
    2   -0.19435466E+03   -0.99965898E-05    0.44453494E-04
    3   -0.19435466E+03   -0.70186275E-08    0.14171739E-04
    4   -0.19435466E+03   -0.16941897E-08    0.15231333E-05
    5   -0.19435466E+03   -0.26119551E-10    0.31324540E-06
    6   -0.19435466E+03   -0.15347723E-11    0.43216373E-07
    7   -0.19435466E+03    0.00000000E+00    0.73160975E-08

Total Energy:                     -192.3795577186 H        -5234.9141 eV
Extrapolated to 0K:               -192.3795577186 H        -5234.9141 eV
Total Mermin free energy:         -192.3795577186 H        -5234.9141 eV
Force related energy:             -192.3795577186 H        -5234.9141 eV

Volume:                              0.100381E+05 au^3   0.148750E+04 A^3
Pressure:                            0.713225E-08 au     0.209838E+06 Pa
>> Charges saved for restart in charges.bin

total energy  -1.9237956E+02 H       energy change -4.0562705E-07 H
gradient norm  5.1314501E-04 H/a0    max. gradient  1.0168581E-04 H/a0
step length    2.9925833E-03 a0      max. step      6.5261980E-04 a0

--------------------------------------------------------------------------------

***  Geometry step: 162

 iSCC Total electronic   Diff electronic      SCC error    
    1   -0.19435466E+03    0.00000000E+00    0.10864939E-03
    2   -0.19435453E+03    0.12409102E-03    0.46503049E-04
    3   -0.19435453E+03   -0.90371373E-08    0.11255330E-04
    4   -0.19435453E+03   -0.17698767E-08    0.18458059E-05
    5   -0.19435453E+03   -0.17877255E-10    0.21182407E-06
    6   -0.19435453E+03   -0.16484591E-11    0.41041911E-07
    7   -0.19435453E+03   -0.56843419E-13    0.78041165E-08

Total Energy:                     -192.3795584179 H        -5234.9141 eV
Extrapolated to 0K:               -192.3795584179 H        -5234.9141 eV
Total Mermin free energy:         -192.3795584179 H        -5234.9141 eV
Force related energy:             -192.3795584179 H        -5234.9141 eV

Volume:                              0.100379E+05 au^3   0.148747E+04 A^3
Pressure:                           -0.284072E-07 au    -0.835767E+06 Pa
>> Charges saved for restart in charges.bin

total energy  -1.9237956E+02 H       energy change -6.9933677E-07 H
gradient norm  5.3379894E-04 H/a0    max. gradient  1.0449637E-04 H/a0
step length    1.1215192E-02 a0      max. step      2.6290478E-03 a0

--------------------------------------------------------------------------------

***  Geometry step: 163

 iSCC Total electronic   Diff electronic      SCC error    
    1   -0.19435453E+03    0.00000000E+00    0.82230888E-04
    2   -0.19435442E+03    0.11317319E-03    0.51890406E-04
    3   -0.19435442E+03   -0.62681238E-08    0.17318228E-04
    4   -0.19435442E+03   -0.14023556E-08    0.23038277E-05
    5   -0.19435442E+03   -0.21856295E-10    0.45664984E-06
    6   -0.19435442E+03   -0.21032065E-11    0.66955431E-07
    7   -0.19435442E+03   -0.85265128E-13    0.66172876E-08

Total Energy:                     -192.3795588042 H        -5234.9141 eV
Extrapolated to 0K:               -192.3795588042 H        -5234.9141 eV
Total Mermin free energy:         -192.3795588042 H        -5234.9141 eV
Force related energy:             -192.3795588042 H        -5234.9141 eV

Volume:                              0.100380E+05 au^3   0.148748E+04 A^3
Pressure:                           -0.575981E-07 au    -0.169460E+07 Pa
>> Charges saved for restart in charges.bin

total energy  -1.9237956E+02 H       energy change -3.8625143E-07 H
gradient norm  4.5849005E-04 H/a0    max. gradient  8.6468295E-05 H/a0
step length    1.3108305E-03 a0      max. step      2.5170965E-04 a0

Geometry converged

--------------------------------------------------------------------------------
DFTB+ running times                          cpu [s]             wall clock [s]
--------------------------------------------------------------------------------
Pre-SCC initialisation                 +       5.75 (  0.2%)       2.60 (  0.8%)
SCC                                    +    2120.03 ( 91.8%)     275.93 ( 89.6%)
Post-SCC processing                    +     182.50 (  7.9%)      29.45 (  9.6%)
--------------------------------------------------------------------------------
Missing                                +       0.06 (  0.0%)       0.01 (  0.0%)
Total                                  =    2308.34 (100.0%)     307.99 (100.0%)
--------------------------------------------------------------------------------
