|===============================================================================
|
|  DFTB+ release 24.1
|
|  Copyright (C) 2006 - 2024  DFTB+ developers group
|
|===============================================================================
|
|  When publishing results obtained with DFTB+, please cite the following
|  reference:
|
|  * DFTB+, a software package for efficient approximate density functional
|    theory based atomistic simulations, J. Chem. Phys. 152, 124101 (2020).
|    [doi: 10.1063/1.5143190]
|
|  You should also cite additional publications crediting the parametrization
|  data you use. Please consult the documentation of the SK-files for the
|  references.
|
|===============================================================================

Reading input file 'dftb_in.hsd'
Parser version: 14

--------------------------------------------------------------------------------
Reading SK-files:
./SKFiles/Ge-Ge.skf
./SKFiles/Ge-Si.skf
./SKFiles/Ge-O.skf
./SKFiles/Si-Si.skf
./SKFiles/Si-O.skf
./SKFiles/O-O.skf
Done.


Processed input in HSD format written to 'dftb_pin.hsd'

Starting initialization...
--------------------------------------------------------------------------------
WARNING!
-> Dipole printed for extended system : value printed is not well defined
MPI processes:               1
OpenMP threads:              8
BLACS orbital grid size:     1 x 1
BLACS atom grid size:        1 x 1
Chosen random seed:          154146130
Current stacksize:           unlimited
Mode:                        Static calculation
Self consistent charges:     Yes
SCC-tolerance:                 0.100000E-07
Max. scc iterations:                    500
Shell resolved Hubbard:      No
Spin polarisation:           No
Nr. of up electrons:           192.000000
Nr. of down electrons:         192.000000
Periodic boundaries:         Yes
Electronic solver:           Relatively robust
Mixer:                       Broyden mixer
Mixing parameter:                  0.200000
Maximal SCC-cycles:                     500
Nr. of chrg. vec. in memory:            500
Electronic temperature:              0.100000E-07 H      0.272114E-06 eV
Initial charges:             Set automatically (system chrg:   0.000E+00)
Included shells:            Ge:  s, p, d
                            Si:  s, p, d
                             O:  s, p
K-points and weights:           1:  0.500000  0.500000  0.500000     1.000000

K-points in absolute space:     1:  0.025319  0.017606  0.037774

Extra options:
                             Mulliken analysis
Force type                   original

--------------------------------------------------------------------------------

***  Geometry step: 0

 iSCC Total electronic   Diff electronic      SCC error    
    1    0.00000000E+00    0.00000000E+00    0.14596875E+01
    2   -0.19479959E+03   -0.19479959E+03    0.99393790E+00
    3   -0.19516653E+03   -0.36693755E+00    0.61800282E-01
    4   -0.19548236E+03   -0.31582796E+00    0.28698960E-01
    5   -0.19548451E+03   -0.21473044E-02    0.78913955E-02
    6   -0.19548466E+03   -0.15692297E-03    0.17569245E-02
    7   -0.19548467E+03   -0.49837809E-05    0.44544323E-03
    8   -0.19548467E+03   -0.11670880E-05    0.58954189E-04
    9   -0.19548467E+03   -0.74163182E-07    0.32145192E-04
   10   -0.19548467E+03    0.52580162E-11    0.12047900E-05
   11   -0.19548467E+03   -0.28927616E-09    0.31945694E-06
   12   -0.19548467E+03   -0.35242920E-11    0.14414586E-06
   13   -0.19548467E+03    0.85265128E-13    0.19319079E-07
   14   -0.19548467E+03   -0.11368684E-12    0.12930994E-08

Total Energy:                     -191.8768306867 H        -5221.2342 eV
Extrapolated to 0K:               -191.8768306867 H        -5221.2342 eV
Total Mermin free energy:         -191.8768306867 H        -5221.2342 eV
Force related energy:             -191.8768306867 H        -5221.2342 eV

Volume:                              0.913789E+04 au^3   0.135410E+04 A^3
Pressure:                            0.714701E-03 au     0.210272E+11 Pa
>> Charges saved for restart in charges.bin

total energy  -1.9187683E+02 H       energy change -1.9187683E+02 H
gradient norm  7.5918335E-01 H/a0    max. gradient  2.8986995E-01 H/a0
step length    0.0000000E+00 a0      max. step      0.0000000E+00 a0

--------------------------------------------------------------------------------

***  Geometry step: 1

 iSCC Total electronic   Diff electronic      SCC error    
    1   -0.19548467E+03    0.00000000E+00    0.67771950E-01
    2   -0.19519139E+03    0.29327836E+00    0.34873903E-01
    3   -0.19519588E+03   -0.44917703E-02    0.10743216E-01
    4   -0.19519696E+03   -0.10760669E-02    0.90808696E-03
    5   -0.19519697E+03   -0.13387518E-04    0.32118525E-03
    6   -0.19519697E+03   -0.53901266E-06    0.10543263E-03
    7   -0.19519697E+03   -0.33919690E-07    0.16333004E-04
    8   -0.19519697E+03   -0.27748115E-08    0.21005740E-05
    9   -0.19519697E+03   -0.16069635E-09    0.72908751E-06
   10   -0.19519697E+03   -0.35811354E-11    0.21643680E-06
   11   -0.19519697E+03   -0.28421709E-13    0.28680403E-07
   12   -0.19519697E+03   -0.28421709E-13    0.42946833E-08

Total Energy:                     -192.0481923696 H        -5225.8972 eV
Extrapolated to 0K:               -192.0481923696 H        -5225.8972 eV
Total Mermin free energy:         -192.0481923696 H        -5225.8972 eV
Force related energy:             -192.0481923696 H        -5225.8972 eV

Volume:                              0.936999E+04 au^3   0.138849E+04 A^3
Pressure:                            0.498044E-03 au     0.146530E+11 Pa
>> Charges saved for restart in charges.bin

total energy  -1.9204819E+02 H       energy change -1.7136168E-01 H
gradient norm  4.9314099E-01 H/a0    max. gradient  1.5857215E-01 H/a0
step length    5.3879356E-01 a0      max. step      2.0572114E-01 a0

--------------------------------------------------------------------------------

***  Geometry step: 2

 iSCC Total electronic   Diff electronic      SCC error    
    1   -0.19519697E+03    0.00000000E+00    0.59545444E-01
    2   -0.19509902E+03    0.97950437E-01    0.34004736E-01
    3   -0.19510152E+03   -0.25019021E-02    0.74261353E-02
    4   -0.19510216E+03   -0.63810534E-03    0.65253063E-03
    5   -0.19510217E+03   -0.58715719E-05    0.19637012E-03
    6   -0.19510217E+03   -0.26525660E-06    0.59420667E-04
    7   -0.19510217E+03   -0.14299246E-07    0.11349725E-04
    8   -0.19510217E+03   -0.13559429E-08    0.10105051E-05
    9   -0.19510217E+03   -0.96747499E-10    0.31581896E-06
   10   -0.19510217E+03   -0.16768809E-11    0.11108386E-06
   11   -0.19510217E+03   -0.11368684E-12    0.23367010E-07
   12   -0.19510217E+03    0.85265128E-13    0.35834331E-08

Total Energy:                     -192.1730984093 H        -5229.2961 eV
Extrapolated to 0K:               -192.1730984093 H        -5229.2961 eV
Total Mermin free energy:         -192.1730984093 H        -5229.2961 eV
Force related energy:             -192.1730984093 H        -5229.2961 eV

Volume:                              0.937562E+04 au^3   0.138932E+04 A^3
Pressure:                            0.416406E-03 au     0.122511E+11 Pa
>> Charges saved for restart in charges.bin

total energy  -1.9217310E+02 H       energy change -1.2490604E-01 H
gradient norm  2.7503681E-01 H/a0    max. gradient  5.4068018E-02 H/a0
step length    4.0967724E-01 a0      max. step      7.5305901E-02 a0

--------------------------------------------------------------------------------

***  Geometry step: 3

 iSCC Total electronic   Diff electronic      SCC error    
    1   -0.19510217E+03    0.00000000E+00    0.63907173E-01
    2   -0.19485904E+03    0.24312574E+00    0.36361768E-01
    3   -0.19486116E+03   -0.21138116E-02    0.60312411E-02
    4   -0.19486175E+03   -0.59462619E-03    0.65953484E-03
    5   -0.19486176E+03   -0.61137829E-05    0.18121459E-03
    6   -0.19486176E+03   -0.31436272E-06    0.89732580E-04
    7   -0.19486176E+03   -0.10411469E-07    0.93367964E-05
    8   -0.19486176E+03   -0.13910153E-08    0.13951379E-05
    9   -0.19486176E+03   -0.83673513E-10    0.42756857E-06
   10   -0.19486176E+03   -0.88107299E-12    0.48843581E-07
   11   -0.19486176E+03   -0.28421709E-13    0.16771129E-07
   12   -0.19486176E+03   -0.56843419E-13    0.35644296E-08

Total Energy:                     -192.2591086167 H        -5231.6365 eV
Extrapolated to 0K:               -192.2591086167 H        -5231.6365 eV
Total Mermin free energy:         -192.2591086167 H        -5231.6365 eV
Force related energy:             -192.2591086167 H        -5231.6365 eV

Volume:                              0.948501E+04 au^3   0.140553E+04 A^3
Pressure:                            0.284310E-03 au     0.836470E+10 Pa
>> Charges saved for restart in charges.bin

total energy  -1.9225911E+02 H       energy change -8.6010207E-02 H
gradient norm  2.1879220E-01 H/a0    max. gradient  1.0944967E-01 H/a0
step length    5.3405942E-01 a0      max. step      1.0082101E-01 a0

--------------------------------------------------------------------------------

***  Geometry step: 4

 iSCC Total electronic   Diff electronic      SCC error    
    1   -0.19486176E+03    0.00000000E+00    0.49548435E-01
    2   -0.19461802E+03    0.24373906E+00    0.28865931E-01
    3   -0.19461899E+03   -0.97195748E-03    0.50396609E-02
    4   -0.19461923E+03   -0.24091772E-03    0.50332402E-03
    5   -0.19461924E+03   -0.60863181E-05    0.19140298E-03
    6   -0.19461924E+03   -0.22843403E-06    0.92176199E-04
    7   -0.19461924E+03   -0.48477204E-08    0.61917211E-05
    8   -0.19461924E+03   -0.12136354E-08    0.18242130E-05
    9   -0.19461924E+03   -0.50221161E-10    0.31273986E-06
   10   -0.19461924E+03   -0.54001248E-12    0.73293668E-07
   11   -0.19461924E+03   -0.56843419E-13    0.13725705E-07
   12   -0.19461924E+03    0.85265128E-13    0.37431627E-08

Total Energy:                     -192.3056080996 H        -5232.9018 eV
Extrapolated to 0K:               -192.3056080996 H        -5232.9018 eV
Total Mermin free energy:         -192.3056080996 H        -5232.9018 eV
Force related energy:             -192.3056080996 H        -5232.9018 eV

Volume:                              0.959864E+04 au^3   0.142237E+04 A^3
Pressure:                            0.168076E-03 au     0.494497E+10 Pa
>> Charges saved for restart in charges.bin

total energy  -1.9230561E+02 H       energy change -4.6499483E-02 H
gradient norm  1.8866219E-01 H/a0    max. gradient  9.9017259E-02 H/a0
step length    4.9209479E-01 a0      max. step      1.1051454E-01 a0

--------------------------------------------------------------------------------

***  Geometry step: 5

 iSCC Total electronic   Diff electronic      SCC error    
    1   -0.19461924E+03    0.00000000E+00    0.24085769E-01
    2   -0.19447637E+03    0.14286942E+00    0.11948713E-01
    3   -0.19447684E+03   -0.46890735E-03    0.19963890E-02
    4   -0.19447696E+03   -0.12155566E-03    0.33950337E-03
    5   -0.19447696E+03   -0.16094213E-05    0.92829347E-04
    6   -0.19447696E+03   -0.10265967E-06    0.49259062E-04
    7   -0.19447696E+03   -0.24016344E-08    0.67029562E-05
    8   -0.19447696E+03   -0.25272584E-09    0.10740609E-05
    9   -0.19447696E+03   -0.18104629E-10    0.19887605E-06
   10   -0.19447696E+03   -0.31263880E-12    0.47959469E-07
   11   -0.19447696E+03    0.56843419E-13    0.97271160E-08

Total Energy:                     -192.3312548002 H        -5233.5997 eV
Extrapolated to 0K:               -192.3312548002 H        -5233.5997 eV
Total Mermin free energy:         -192.3312548002 H        -5233.5997 eV
Force related energy:             -192.3312548002 H        -5233.5997 eV

Volume:                              0.965631E+04 au^3   0.143092E+04 A^3
Pressure:                            0.103917E-03 au     0.305735E+10 Pa
>> Charges saved for restart in charges.bin

total energy  -1.9233125E+02 H       energy change -2.5646701E-02 H
gradient norm  1.0757052E-01 H/a0    max. gradient  3.3024198E-02 H/a0
step length    3.4686553E-01 a0      max. step      6.1022349E-02 a0

--------------------------------------------------------------------------------

***  Geometry step: 6

 iSCC Total electronic   Diff electronic      SCC error    
    1   -0.19447696E+03    0.00000000E+00    0.17015228E-01
    2   -0.19436779E+03    0.10917365E+00    0.74911813E-02
    3   -0.19436810E+03   -0.31308465E-03    0.25667078E-02
    4   -0.19436817E+03   -0.69764595E-04    0.31480372E-03
    5   -0.19436817E+03   -0.74510376E-06    0.35727984E-04
    6   -0.19436817E+03   -0.72170764E-07    0.13081121E-04
    7   -0.19436817E+03   -0.80777340E-09    0.48643270E-05
    8   -0.19436817E+03   -0.91404218E-10    0.57886835E-06
    9   -0.19436817E+03   -0.35527137E-11    0.88224114E-07
   10   -0.19436817E+03   -0.28421709E-12    0.23164822E-07
   11   -0.19436817E+03    0.56843419E-13    0.65622774E-08

Total Energy:                     -192.3441939407 H        -5233.9518 eV
Extrapolated to 0K:               -192.3441939407 H        -5233.9518 eV
Total Mermin free energy:         -192.3441939407 H        -5233.9518 eV
Force related energy:             -192.3441939407 H        -5233.9518 eV

Volume:                              0.971332E+04 au^3   0.143937E+04 A^3
Pressure:                            0.538562E-04 au     0.158450E+10 Pa
>> Charges saved for restart in charges.bin

total energy  -1.9234419E+02 H       energy change -1.2939140E-02 H
gradient norm  7.0453804E-02 H/a0    max. gradient  1.8183833E-02 H/a0
step length    2.8368145E-01 a0      max. step      6.3097514E-02 a0

--------------------------------------------------------------------------------

***  Geometry step: 7

 iSCC Total electronic   Diff electronic      SCC error    
    1   -0.19436817E+03    0.00000000E+00    0.11368967E-01
    2   -0.19434293E+03    0.25238468E-01    0.68520879E-02
    3   -0.19434314E+03   -0.20927867E-03    0.17998555E-02
    4   -0.19434319E+03   -0.49502804E-04    0.33286130E-03
    5   -0.19434319E+03   -0.57931302E-06    0.57244463E-04
    6   -0.19434319E+03   -0.56319863E-07    0.25881904E-04
    7   -0.19434319E+03   -0.99058184E-09    0.53729827E-05
    8   -0.19434319E+03   -0.62925665E-10    0.66533334E-06
    9   -0.19434319E+03   -0.93507424E-11    0.17291397E-06
   10   -0.19434319E+03   -0.22737368E-12    0.24062913E-07
   11   -0.19434319E+03    0.00000000E+00    0.28010909E-08

Total Energy:                     -192.3505266901 H        -5234.1241 eV
Extrapolated to 0K:               -192.3505266901 H        -5234.1241 eV
Total Mermin free energy:         -192.3505266901 H        -5234.1241 eV
Force related energy:             -192.3505266901 H        -5234.1241 eV

Volume:                              0.972234E+04 au^3   0.144070E+04 A^3
Pressure:                            0.413379E-04 au     0.121620E+10 Pa
>> Charges saved for restart in charges.bin

total energy  -1.9235053E+02 H       energy change -6.3327494E-03 H
gradient norm  6.0470609E-02 H/a0    max. gradient  2.2253372E-02 H/a0
step length    1.9615890E-01 a0      max. step      4.4631107E-02 a0

--------------------------------------------------------------------------------

***  Geometry step: 8

 iSCC Total electronic   Diff electronic      SCC error    
    1   -0.19434319E+03    0.00000000E+00    0.14742061E-01
    2   -0.19434542E+03   -0.22290675E-02    0.87366097E-02
    3   -0.19434554E+03   -0.11415219E-03    0.15674534E-02
    4   -0.19434557E+03   -0.29885708E-04    0.19483730E-03
    5   -0.19434557E+03   -0.69664819E-06    0.62256950E-04
    6   -0.19434557E+03   -0.25390676E-07    0.17044453E-04
    7   -0.19434557E+03   -0.78475182E-09    0.33612574E-05
    8   -0.19434557E+03   -0.67956307E-10    0.41985289E-06
    9   -0.19434557E+03   -0.61675109E-11    0.10899139E-06
   10   -0.19434557E+03   -0.19895197E-12    0.11626389E-07
   11   -0.19434557E+03   -0.56843419E-13    0.21126207E-08

Total Energy:                     -192.3547381363 H        -5234.2387 eV
Extrapolated to 0K:               -192.3547381363 H        -5234.2387 eV
Total Mermin free energy:         -192.3547381363 H        -5234.2387 eV
Force related energy:             -192.3547381363 H        -5234.2387 eV

Volume:                              0.972593E+04 au^3   0.144123E+04 A^3
Pressure:                            0.392631E-04 au     0.115516E+10 Pa
>> Charges saved for restart in charges.bin

total energy  -1.9235474E+02 H       energy change -4.2114462E-03 H
gradient norm  4.9092058E-02 H/a0    max. gradient  1.4670442E-02 H/a0
step length    1.6038161E-01 a0      max. step      3.1172882E-02 a0

--------------------------------------------------------------------------------

***  Geometry step: 9

 iSCC Total electronic   Diff electronic      SCC error    
    1   -0.19434557E+03    0.00000000E+00    0.96464375E-02
    2   -0.19436295E+03   -0.17386077E-01    0.57825391E-02
    3   -0.19436301E+03   -0.56982257E-04    0.10722233E-02
    4   -0.19436303E+03   -0.16236377E-04    0.15796093E-03
    5   -0.19436303E+03   -0.73370089E-06    0.53831123E-04
    6   -0.19436303E+03   -0.27720517E-07    0.11540945E-04
    7   -0.19436303E+03   -0.86490104E-09    0.27449654E-05
    8   -0.19436303E+03   -0.44337867E-10    0.43106944E-06
    9   -0.19436303E+03   -0.41779913E-11    0.84819350E-07
   10   -0.19436303E+03   -0.14210855E-12    0.12177161E-07
   11   -0.19436303E+03   -0.28421709E-13    0.26383793E-08

Total Energy:                     -192.3581266669 H        -5234.3309 eV
Extrapolated to 0K:               -192.3581266669 H        -5234.3309 eV
Total Mermin free energy:         -192.3581266669 H        -5234.3309 eV
Force related energy:             -192.3581266669 H        -5234.3309 eV

Volume:                              0.972008E+04 au^3   0.144037E+04 A^3
Pressure:                            0.424009E-04 au     0.124748E+10 Pa
>> Charges saved for restart in charges.bin

total energy  -1.9235813E+02 H       energy change -3.3885306E-03 H
gradient norm  4.3358918E-02 H/a0    max. gradient  8.2529722E-03 H/a0
step length    1.6039645E-01 a0      max. step      2.5986492E-02 a0

--------------------------------------------------------------------------------

***  Geometry step: 10

 iSCC Total electronic   Diff electronic      SCC error    
    1   -0.19436303E+03    0.00000000E+00    0.10376995E-01
    2   -0.19437685E+03   -0.13820165E-01    0.50716256E-02
    3   -0.19437692E+03   -0.77846594E-04    0.13213907E-02
    4   -0.19437694E+03   -0.20135598E-04    0.17567714E-03
    5   -0.19437694E+03   -0.76833913E-06    0.30294546E-04
    6   -0.19437694E+03   -0.26113156E-07    0.11545667E-04
    7   -0.19437694E+03   -0.66981443E-09    0.20712375E-05
    8   -0.19437694E+03   -0.76482820E-10    0.33619728E-06
    9   -0.19437694E+03   -0.17621460E-11    0.55870543E-07
   10   -0.19437694E+03   -0.85265128E-13    0.17702179E-07
   11   -0.19437694E+03    0.85265128E-13    0.39713393E-08

Total Energy:                     -192.3614881026 H        -5234.4224 eV
Extrapolated to 0K:               -192.3614881026 H        -5234.4224 eV
Total Mermin free energy:         -192.3614881026 H        -5234.4224 eV
Force related energy:             -192.3614881026 H        -5234.4224 eV

Volume:                              0.972046E+04 au^3   0.144042E+04 A^3
Pressure:                            0.446466E-04 au     0.131355E+10 Pa
>> Charges saved for restart in charges.bin

total energy  -1.9236149E+02 H       energy change -3.3614357E-03 H
gradient norm  3.8396715E-02 H/a0    max. gradient  7.5982726E-03 H/a0
step length    1.7420220E-01 a0      max. step      2.8402587E-02 a0

--------------------------------------------------------------------------------

***  Geometry step: 11

 iSCC Total electronic   Diff electronic      SCC error    
    1   -0.19437694E+03    0.00000000E+00    0.80222733E-02
    2   -0.19437455E+03    0.23910290E-02    0.48375931E-02
    3   -0.19437464E+03   -0.88976402E-04    0.14778423E-02
    4   -0.19437466E+03   -0.20980581E-04    0.13240713E-03
    5   -0.19437466E+03   -0.44764158E-06    0.24839475E-04
    6   -0.19437466E+03   -0.23235714E-07    0.10185939E-04
    7   -0.19437466E+03   -0.34395953E-09    0.18921666E-05
    8   -0.19437466E+03   -0.35157655E-10    0.27585282E-06
    9   -0.19437466E+03   -0.11652901E-11    0.61345005E-07
   10   -0.19437466E+03   -0.56843419E-13    0.11687412E-07
   11   -0.19437466E+03    0.28421709E-13    0.21415314E-08

Total Energy:                     -192.3641216745 H        -5234.4941 eV
Extrapolated to 0K:               -192.3641216745 H        -5234.4941 eV
Total Mermin free energy:         -192.3641216745 H        -5234.4941 eV
Force related energy:             -192.3641216745 H        -5234.4941 eV

Volume:                              0.973142E+04 au^3   0.144205E+04 A^3
Pressure:                            0.405866E-04 au     0.119410E+10 Pa
>> Charges saved for restart in charges.bin

total energy  -1.9236412E+02 H       energy change -2.6335719E-03 H
gradient norm  3.7434670E-02 H/a0    max. gradient  1.5194555E-02 H/a0
step length    1.7335879E-01 a0      max. step      3.1457156E-02 a0

--------------------------------------------------------------------------------

***  Geometry step: 12

 iSCC Total electronic   Diff electronic      SCC error    
    1   -0.19437466E+03    0.00000000E+00    0.61152957E-02
    2   -0.19436124E+03    0.13420486E-01    0.36644136E-02
    3   -0.19436128E+03   -0.38327540E-04    0.10770717E-02
    4   -0.19436129E+03   -0.87564852E-05    0.11451196E-03
    5   -0.19436129E+03   -0.21772615E-06    0.36902251E-04
    6   -0.19436129E+03   -0.13807465E-07    0.13194744E-04
    7   -0.19436129E+03   -0.19983304E-09    0.23953813E-05
    8   -0.19436129E+03   -0.12789769E-10    0.21001839E-06
    9   -0.19436129E+03   -0.17053026E-11    0.58985094E-07
   10   -0.19436129E+03   -0.17053026E-12    0.10961508E-07
   11   -0.19436129E+03    0.56843419E-13    0.91905195E-09

Total Energy:                     -192.3659205271 H        -5234.5430 eV
Extrapolated to 0K:               -192.3659205271 H        -5234.5430 eV
Total Mermin free energy:         -192.3659205271 H        -5234.5430 eV
Force related energy:             -192.3659205271 H        -5234.5430 eV

Volume:                              0.975044E+04 au^3   0.144487E+04 A^3
Pressure:                            0.325025E-04 au     0.956257E+09 Pa
>> Charges saved for restart in charges.bin

total energy  -1.9236592E+02 H       energy change -1.7988527E-03 H
gradient norm  3.3565067E-02 H/a0    max. gradient  1.0886410E-02 H/a0
step length    1.4123414E-01 a0      max. step      2.5340062E-02 a0

--------------------------------------------------------------------------------

***  Geometry step: 13

 iSCC Total electronic   Diff electronic      SCC error    
    1   -0.19436129E+03    0.00000000E+00    0.48220491E-02
    2   -0.19434532E+03    0.15975186E-01    0.29311800E-02
    3   -0.19434533E+03   -0.16737426E-04    0.85060229E-03
    4   -0.19434534E+03   -0.37004965E-05    0.77288344E-04
    5   -0.19434534E+03   -0.11553050E-06    0.11053857E-04
    6   -0.19434534E+03   -0.74740854E-08    0.42439293E-05
    7   -0.19434534E+03   -0.15913315E-09    0.11030093E-05
    8   -0.19434534E+03   -0.77591267E-11    0.21707354E-06
    9   -0.19434534E+03   -0.56843419E-12    0.46840544E-07
   10   -0.19434534E+03    0.28421709E-13    0.83005967E-08

Total Energy:                     -192.3673825496 H        -5234.5828 eV
Extrapolated to 0K:               -192.3673825496 H        -5234.5828 eV
Total Mermin free energy:         -192.3673825496 H        -5234.5828 eV
Force related energy:             -192.3673825496 H        -5234.5828 eV

Volume:                              0.977588E+04 au^3   0.144864E+04 A^3
Pressure:                            0.240405E-04 au     0.707297E+09 Pa
>> Charges saved for restart in charges.bin

total energy  -1.9236738E+02 H       energy change -1.4620225E-03 H
gradient norm  2.7252647E-02 H/a0    max. gradient  6.1210792E-03 H/a0
step length    1.2469979E-01 a0      max. step      2.4207027E-02 a0

--------------------------------------------------------------------------------

***  Geometry step: 14

 iSCC Total electronic   Diff electronic      SCC error    
    1   -0.19434534E+03    0.00000000E+00    0.46699146E-02
    2   -0.19433370E+03    0.11632358E-01    0.27272756E-02
    3   -0.19433373E+03   -0.26705364E-04    0.87526042E-03
    4   -0.19433374E+03   -0.58132407E-05    0.11999320E-03
    5   -0.19433374E+03   -0.13432847E-06    0.26401643E-04
    6   -0.19433374E+03   -0.12428984E-07    0.80390824E-05
    7   -0.19433374E+03   -0.41009685E-09    0.16126397E-05
    8   -0.19433374E+03   -0.21600499E-10    0.25136244E-06
    9   -0.19433374E+03   -0.99475983E-12    0.48111504E-07
   10   -0.19433374E+03    0.00000000E+00    0.91166514E-08

Total Energy:                     -192.3686791333 H        -5234.6181 eV
Extrapolated to 0K:               -192.3686791333 H        -5234.6181 eV
Total Mermin free energy:         -192.3686791333 H        -5234.6181 eV
Force related energy:             -192.3686791333 H        -5234.6181 eV

Volume:                              0.980159E+04 au^3   0.145245E+04 A^3
Pressure:                            0.180609E-04 au     0.531371E+09 Pa
>> Charges saved for restart in charges.bin

total energy  -1.9236868E+02 H       energy change -1.2965838E-03 H
gradient norm  2.4641954E-02 H/a0    max. gradient  5.5186660E-03 H/a0
step length    1.2688038E-01 a0      max. step      2.5552074E-02 a0

--------------------------------------------------------------------------------

***  Geometry step: 15

 iSCC Total electronic   Diff electronic      SCC error    
    1   -0.19433374E+03    0.00000000E+00    0.72885181E-02
    2   -0.19432693E+03    0.68081455E-02    0.39777772E-02
    3   -0.19432695E+03   -0.22471816E-04    0.69656810E-03
    4   -0.19432696E+03   -0.52051444E-05    0.10916981E-03
    5   -0.19432696E+03   -0.10089042E-06    0.27116673E-04
    6   -0.19432696E+03   -0.68708914E-08    0.64896885E-05
    7   -0.19432696E+03   -0.17459456E-09    0.10421124E-05
    8   -0.19432696E+03   -0.67643668E-11    0.22009258E-06
    9   -0.19432696E+03   -0.13073986E-11    0.43547413E-07
   10   -0.19432696E+03   -0.19895197E-12    0.90555332E-08

Total Energy:                     -192.3696451456 H        -5234.6444 eV
Extrapolated to 0K:               -192.3696451456 H        -5234.6444 eV
Total Mermin free energy:         -192.3696451456 H        -5234.6444 eV
Force related energy:             -192.3696451456 H        -5234.6444 eV

Volume:                              0.982564E+04 au^3   0.145601E+04 A^3
Pressure:                            0.140773E-04 au     0.414169E+09 Pa
>> Charges saved for restart in charges.bin

total energy  -1.9236965E+02 H       energy change -9.6601231E-04 H
gradient norm  2.5914380E-02 H/a0    max. gradient  6.4302537E-03 H/a0
step length    1.1405564E-01 a0      max. step      2.3112115E-02 a0

--------------------------------------------------------------------------------

***  Geometry step: 16

 iSCC Total electronic   Diff electronic      SCC error    
    1   -0.19432696E+03    0.00000000E+00    0.71769726E-02
    2   -0.19432877E+03   -0.18103722E-02    0.40496316E-02
    3   -0.19432878E+03   -0.16048377E-04    0.71297828E-03
    4   -0.19432879E+03   -0.37803824E-05    0.85042783E-04
    5   -0.19432879E+03   -0.82971809E-07    0.21927003E-04
    6   -0.19432879E+03   -0.53692020E-08    0.52579465E-05
    7   -0.19432879E+03   -0.10066969E-09    0.94889451E-06
    8   -0.19432879E+03   -0.50306426E-11    0.21796337E-06
    9   -0.19432879E+03   -0.11652901E-11    0.45439231E-07
   10   -0.19432879E+03    0.28421709E-13    0.61364167E-08

Total Energy:                     -192.3704738926 H        -5234.6669 eV
Extrapolated to 0K:               -192.3704738926 H        -5234.6669 eV
Total Mermin free energy:         -192.3704738926 H        -5234.6669 eV
Force related energy:             -192.3704738926 H        -5234.6669 eV

Volume:                              0.984062E+04 au^3   0.145823E+04 A^3
Pressure:                            0.139090E-04 au     0.409217E+09 Pa
>> Charges saved for restart in charges.bin

total energy  -1.9237047E+02 H       energy change -8.2874693E-04 H
gradient norm  2.2895735E-02 H/a0    max. gradient  4.2501740E-03 H/a0
step length    1.0102091E-01 a0      max. step      1.9659603E-02 a0

--------------------------------------------------------------------------------

***  Geometry step: 17

 iSCC Total electronic   Diff electronic      SCC error    
    1   -0.19432879E+03    0.00000000E+00    0.60942469E-02
    2   -0.19433120E+03   -0.24125531E-02    0.35108368E-02
    3   -0.19433121E+03   -0.11938779E-04    0.64768211E-03
    4   -0.19433121E+03   -0.26553096E-05    0.93392772E-04
    5   -0.19433121E+03   -0.90306770E-07    0.29419357E-04
    6   -0.19433121E+03   -0.54693601E-08    0.51167641E-05
    7   -0.19433121E+03   -0.12485657E-09    0.12029626E-05
    8   -0.19433121E+03   -0.62243544E-11    0.26966162E-06
    9   -0.19433121E+03   -0.10516032E-11    0.56587233E-07
   10   -0.19433121E+03    0.56843419E-13    0.50860649E-08

Total Energy:                     -192.3713477382 H        -5234.6907 eV
Extrapolated to 0K:               -192.3713477382 H        -5234.6907 eV
Total Mermin free energy:         -192.3713477382 H        -5234.6907 eV
Force related energy:             -192.3713477382 H        -5234.6907 eV

Volume:                              0.985816E+04 au^3   0.146083E+04 A^3
Pressure:                            0.138842E-04 au     0.408488E+09 Pa
>> Charges saved for restart in charges.bin

total energy  -1.9237135E+02 H       energy change -8.7384562E-04 H
gradient norm  2.1164996E-02 H/a0    max. gradient  4.3259041E-03 H/a0
step length    1.2007438E-01 a0      max. step      2.2451537E-02 a0

--------------------------------------------------------------------------------

***  Geometry step: 18

 iSCC Total electronic   Diff electronic      SCC error    
    1   -0.19433121E+03    0.00000000E+00    0.38797507E-02
    2   -0.19433315E+03   -0.19402461E-02    0.16400152E-02
    3   -0.19433317E+03   -0.12294388E-04    0.61941223E-03
    4   -0.19433317E+03   -0.24149054E-05    0.88909205E-04
    5   -0.19433317E+03   -0.55074622E-07    0.17603553E-04
    6   -0.19433317E+03   -0.61314154E-08    0.52891404E-05
    7   -0.19433317E+03   -0.85918828E-10    0.12930035E-05
    8   -0.19433317E+03   -0.20747848E-11    0.20100769E-06
    9   -0.19433317E+03   -0.56843419E-12    0.54652392E-07
   10   -0.19433317E+03    0.00000000E+00    0.57498624E-08

Total Energy:                     -192.3721668882 H        -5234.7130 eV
Extrapolated to 0K:               -192.3721668882 H        -5234.7130 eV
Total Mermin free energy:         -192.3721668882 H        -5234.7130 eV
Force related energy:             -192.3721668882 H        -5234.7130 eV

Volume:                              0.987411E+04 au^3   0.146319E+04 A^3
Pressure:                            0.132936E-04 au     0.391111E+09 Pa
>> Charges saved for restart in charges.bin

total energy  -1.9237217E+02 H       energy change -8.1915000E-04 H
gradient norm  2.1577992E-02 H/a0    max. gradient  4.1510815E-03 H/a0
step length    1.2064471E-01 a0      max. step      2.1182957E-02 a0

--------------------------------------------------------------------------------

***  Geometry step: 19

 iSCC Total electronic   Diff electronic      SCC error    
    1   -0.19433317E+03    0.00000000E+00    0.39999322E-02
    2   -0.19433202E+03    0.11462246E-02    0.18323679E-02
    3   -0.19433204E+03   -0.18547789E-04    0.62445695E-03
    4   -0.19433205E+03   -0.38264481E-05    0.96006852E-04
    5   -0.19433205E+03   -0.73703774E-07    0.24845400E-04
    6   -0.19433205E+03   -0.69650810E-08    0.72105376E-05
    7   -0.19433205E+03   -0.14000534E-09    0.13216057E-05
    8   -0.19433205E+03   -0.46043169E-11    0.21150643E-06
    9   -0.19433205E+03   -0.11084467E-11    0.56009033E-07
   10   -0.19433205E+03   -0.11368684E-12    0.56943943E-08

Total Energy:                     -192.3729741956 H        -5234.7350 eV
Extrapolated to 0K:               -192.3729741956 H        -5234.7350 eV
Total Mermin free energy:         -192.3729741956 H        -5234.7350 eV
Force related energy:             -192.3729741956 H        -5234.7350 eV

Volume:                              0.989324E+04 au^3   0.146603E+04 A^3
Pressure:                            0.109777E-04 au     0.322974E+09 Pa
>> Charges saved for restart in charges.bin

total energy  -1.9237297E+02 H       energy change -8.0730741E-04 H
gradient norm  2.2109210E-02 H/a0    max. gradient  6.0519983E-03 H/a0
step length    1.3388087E-01 a0      max. step      2.1937687E-02 a0

--------------------------------------------------------------------------------

***  Geometry step: 20

 iSCC Total electronic   Diff electronic      SCC error    
    1   -0.19433205E+03    0.00000000E+00    0.51978908E-02
    2   -0.19432947E+03    0.25782727E-02    0.29446508E-02
    3   -0.19432948E+03   -0.11133524E-04    0.50124194E-03
    4   -0.19432948E+03   -0.25731758E-05    0.83245424E-04
    5   -0.19432948E+03   -0.76503426E-07    0.25874072E-04
    6   -0.19432948E+03   -0.41046349E-08    0.47040262E-05
    7   -0.19432948E+03   -0.11425527E-09    0.91432046E-06
    8   -0.19432948E+03   -0.47464255E-11    0.20902768E-06
    9   -0.19432948E+03   -0.82422957E-12    0.43557253E-07
   10   -0.19432948E+03   -0.85265128E-13    0.57308123E-08

Total Energy:                     -192.3735999998 H        -5234.7520 eV
Extrapolated to 0K:               -192.3735999998 H        -5234.7520 eV
Total Mermin free energy:         -192.3735999998 H        -5234.7520 eV
Force related energy:             -192.3735999998 H        -5234.7520 eV

Volume:                              0.991062E+04 au^3   0.146860E+04 A^3
Pressure:                            0.854611E-05 au     0.251435E+09 Pa
>> Charges saved for restart in charges.bin

total energy  -1.9237360E+02 H       energy change -6.2580423E-04 H
gradient norm  1.9532154E-02 H/a0    max. gradient  5.9692962E-03 H/a0
step length    1.1564157E-01 a0      max. step      1.9323307E-02 a0

--------------------------------------------------------------------------------

***  Geometry step: 21

 iSCC Total electronic   Diff electronic      SCC error    
    1   -0.19432948E+03    0.00000000E+00    0.44339094E-02
    2   -0.19432583E+03    0.36476792E-02    0.25796763E-02
    3   -0.19432584E+03   -0.57909427E-05    0.41265381E-03
    4   -0.19432584E+03   -0.14222853E-05    0.64454656E-04
    5   -0.19432584E+03   -0.49004171E-07    0.20822080E-04
    6   -0.19432584E+03   -0.18662263E-08    0.30987232E-05
    7   -0.19432584E+03   -0.63295147E-10    0.55715724E-06
    8   -0.19432584E+03   -0.24442670E-11    0.13320646E-06
    9   -0.19432584E+03   -0.54001248E-12    0.27753651E-07
   10   -0.19432584E+03    0.85265128E-13    0.41385197E-08

Total Energy:                     -192.3740381145 H        -5234.7639 eV
Extrapolated to 0K:               -192.3740381145 H        -5234.7639 eV
Total Mermin free energy:         -192.3740381145 H        -5234.7639 eV
Force related energy:             -192.3740381145 H        -5234.7639 eV

Volume:                              0.992569E+04 au^3   0.147084E+04 A^3
Pressure:                            0.574310E-05 au     0.168968E+09 Pa
>> Charges saved for restart in charges.bin

total energy  -1.9237404E+02 H       energy change -4.3811466E-04 H
gradient norm  1.3899997E-02 H/a0    max. gradient  2.7049216E-03 H/a0
step length    8.9224857E-02 a0      max. step      1.5547916E-02 a0

--------------------------------------------------------------------------------

***  Geometry step: 22

 iSCC Total electronic   Diff electronic      SCC error    
    1   -0.19432584E+03    0.00000000E+00    0.27172390E-02
    2   -0.19432524E+03    0.59575975E-03    0.12611954E-02
    3   -0.19432525E+03   -0.61254685E-05    0.28781861E-03
    4   -0.19432525E+03   -0.14030445E-05    0.48379178E-04
    5   -0.19432525E+03   -0.18368070E-07    0.14554197E-04
    6   -0.19432525E+03   -0.13488375E-08    0.35566868E-05
    7   -0.19432525E+03   -0.34475534E-10    0.63001440E-06
    8   -0.19432525E+03   -0.99475983E-12    0.11993690E-06
    9   -0.19432525E+03   -0.11368684E-12    0.26946137E-07
   10   -0.19432525E+03   -0.85265128E-13    0.24279032E-08

Total Energy:                     -192.3743244599 H        -5234.7717 eV
Extrapolated to 0K:               -192.3743244599 H        -5234.7717 eV
Total Mermin free energy:         -192.3743244599 H        -5234.7717 eV
Force related energy:             -192.3743244599 H        -5234.7717 eV

Volume:                              0.993534E+04 au^3   0.147227E+04 A^3
Pressure:                            0.436507E-05 au     0.128425E+09 Pa
>> Charges saved for restart in charges.bin

total energy  -1.9237432E+02 H       energy change -2.8634540E-04 H
gradient norm  1.1322659E-02 H/a0    max. gradient  2.7675201E-03 H/a0
step length    5.9973046E-02 a0      max. step      1.0907745E-02 a0

--------------------------------------------------------------------------------

***  Geometry step: 23

 iSCC Total electronic   Diff electronic      SCC error    
    1   -0.19432525E+03    0.00000000E+00    0.19905087E-02
    2   -0.19432779E+03   -0.25333641E-02    0.10852352E-02
    3   -0.19432779E+03   -0.58134137E-05    0.27803093E-03
    4   -0.19432779E+03   -0.13677935E-05    0.35205307E-04
    5   -0.19432779E+03   -0.14738646E-07    0.12145857E-04
    6   -0.19432779E+03   -0.11447128E-08    0.27812142E-05
    7   -0.19432779E+03   -0.33281822E-10    0.61111419E-06
    8   -0.19432779E+03   -0.71054274E-12    0.11762098E-06
    9   -0.19432779E+03   -0.17053026E-12    0.25245821E-07
   10   -0.19432779E+03    0.56843419E-13    0.35362420E-08

Total Energy:                     -192.3745368934 H        -5234.7775 eV
Extrapolated to 0K:               -192.3745368934 H        -5234.7775 eV
Total Mermin free energy:         -192.3745368934 H        -5234.7775 eV
Force related energy:             -192.3745368934 H        -5234.7775 eV

Volume:                              0.994198E+04 au^3   0.147325E+04 A^3
Pressure:                            0.440543E-05 au     0.129612E+09 Pa
>> Charges saved for restart in charges.bin

total energy  -1.9237454E+02 H       energy change -2.1243350E-04 H
gradient norm  1.1632425E-02 H/a0    max. gradient  2.9088791E-03 H/a0
step length    4.9987154E-02 a0      max. step      9.5081188E-03 a0

--------------------------------------------------------------------------------

***  Geometry step: 24

 iSCC Total electronic   Diff electronic      SCC error    
    1   -0.19432779E+03    0.00000000E+00    0.28822394E-02
    2   -0.19433140E+03   -0.36040404E-02    0.16065641E-02
    3   -0.19433140E+03   -0.32444563E-05    0.25831615E-03
    4   -0.19433140E+03   -0.78897148E-06    0.31119381E-04
    5   -0.19433140E+03   -0.16092400E-07    0.11875377E-04
    6   -0.19433140E+03   -0.77469053E-09    0.14492743E-05
    7   -0.19433140E+03   -0.21771029E-10    0.37069388E-06
    8   -0.19433140E+03   -0.73896445E-12    0.12830586E-06
    9   -0.19433140E+03   -0.17053026E-12    0.26066874E-07
   10   -0.19433140E+03    0.85265128E-13    0.23912925E-08

Total Energy:                     -192.3747029801 H        -5234.7820 eV
Extrapolated to 0K:               -192.3747029801 H        -5234.7820 eV
Total Mermin free energy:         -192.3747029801 H        -5234.7820 eV
Force related energy:             -192.3747029801 H        -5234.7820 eV

Volume:                              0.994699E+04 au^3   0.147399E+04 A^3
Pressure:                            0.524122E-05 au     0.154202E+09 Pa
>> Charges saved for restart in charges.bin

total energy  -1.9237470E+02 H       energy change -1.6608666E-04 H
gradient norm  1.1074976E-02 H/a0    max. gradient  2.4395790E-03 H/a0
step length    4.2429088E-02 a0      max. step      8.2192702E-03 a0

--------------------------------------------------------------------------------

***  Geometry step: 25

 iSCC Total electronic   Diff electronic      SCC error    
    1   -0.19433140E+03    0.00000000E+00    0.32427471E-02
    2   -0.19433452E+03   -0.31155235E-02    0.18282031E-02
    3   -0.19433452E+03   -0.32106453E-05    0.26971781E-03
    4   -0.19433452E+03   -0.79000785E-06    0.39051180E-04
    5   -0.19433452E+03   -0.23932699E-07    0.12005254E-04
    6   -0.19433452E+03   -0.92688879E-09    0.15198506E-05
    7   -0.19433452E+03   -0.28109071E-10    0.42353442E-06
    8   -0.19433452E+03   -0.10516032E-11    0.14708144E-06
    9   -0.19433452E+03   -0.14210855E-12    0.26429686E-07
   10   -0.19433452E+03   -0.85265128E-13    0.27038340E-08

Total Energy:                     -192.3748926099 H        -5234.7872 eV
Extrapolated to 0K:               -192.3748926099 H        -5234.7872 eV
Total Mermin free energy:         -192.3748926099 H        -5234.7872 eV
Force related energy:             -192.3748926099 H        -5234.7872 eV

Volume:                              0.995446E+04 au^3   0.147510E+04 A^3
Pressure:                            0.581151E-05 au     0.170981E+09 Pa
>> Charges saved for restart in charges.bin

total energy  -1.9237489E+02 H       energy change -1.8962983E-04 H
gradient norm  1.0100768E-02 H/a0    max. gradient  2.4497509E-03 H/a0
step length    5.4583253E-02 a0      max. step      9.5444233E-03 a0

--------------------------------------------------------------------------------

***  Geometry step: 26

 iSCC Total electronic   Diff electronic      SCC error    
    1   -0.19433452E+03    0.00000000E+00    0.21276963E-02
    2   -0.19433572E+03   -0.12032184E-02    0.13118523E-02
    3   -0.19433573E+03   -0.35528676E-05    0.36262357E-03
    4   -0.19433573E+03   -0.83452321E-06    0.55832264E-04
    5   -0.19433573E+03   -0.20278975E-07    0.11181934E-04
    6   -0.19433573E+03   -0.10937242E-08    0.20406390E-05
    7   -0.19433573E+03   -0.24215296E-10    0.36594762E-06
    8   -0.19433573E+03   -0.71054274E-12    0.10610394E-06
    9   -0.19433573E+03   -0.19895197E-12    0.21062433E-07
   10   -0.19433573E+03    0.00000000E+00    0.23293696E-08

Total Energy:                     -192.3750869923 H        -5234.7925 eV
Extrapolated to 0K:               -192.3750869923 H        -5234.7925 eV
Total Mermin free energy:         -192.3750869923 H        -5234.7925 eV
Force related energy:             -192.3750869923 H        -5234.7925 eV

Volume:                              0.996413E+04 au^3   0.147653E+04 A^3
Pressure:                            0.538230E-05 au     0.158353E+09 Pa
>> Charges saved for restart in charges.bin

total energy  -1.9237509E+02 H       energy change -1.9438245E-04 H
gradient norm  1.0966351E-02 H/a0    max. gradient  2.7080920E-03 H/a0
step length    6.3902608E-02 a0      max. step      1.0844219E-02 a0

--------------------------------------------------------------------------------

***  Geometry step: 27

 iSCC Total electronic   Diff electronic      SCC error    
    1   -0.19433573E+03    0.00000000E+00    0.22321110E-02
    2   -0.19433512E+03    0.60523708E-03    0.13615029E-02
    3   -0.19433513E+03   -0.42222350E-05    0.40504587E-03
    4   -0.19433513E+03   -0.96509410E-06    0.57243431E-04
    5   -0.19433513E+03   -0.18701257E-07    0.60876422E-05
    6   -0.19433513E+03   -0.14375416E-08    0.18907983E-05
    7   -0.19433513E+03   -0.18360424E-10    0.51536652E-06
    8   -0.19433513E+03   -0.36948222E-12    0.10116590E-06
    9   -0.19433513E+03   -0.25579538E-12    0.21031466E-07
   10   -0.19433513E+03    0.28421709E-13    0.30551148E-08

Total Energy:                     -192.3752995174 H        -5234.7982 eV
Extrapolated to 0K:               -192.3752995174 H        -5234.7982 eV
Total Mermin free energy:         -192.3752995174 H        -5234.7982 eV
Force related energy:             -192.3752995174 H        -5234.7982 eV

Volume:                              0.997585E+04 au^3   0.147827E+04 A^3
Pressure:                            0.434732E-05 au     0.127903E+09 Pa
>> Charges saved for restart in charges.bin

total energy  -1.9237530E+02 H       energy change -2.1252502E-04 H
gradient norm  1.2869577E-02 H/a0    max. gradient  3.8391945E-03 H/a0
step length    7.5472911E-02 a0      max. step      1.4270435E-02 a0

--------------------------------------------------------------------------------

***  Geometry step: 28

 iSCC Total electronic   Diff electronic      SCC error    
    1   -0.19433513E+03    0.00000000E+00    0.19443590E-02
    2   -0.19433241E+03    0.27165039E-02    0.11325023E-02
    3   -0.19433242E+03   -0.39652357E-05    0.35241011E-03
    4   -0.19433242E+03   -0.89645880E-06    0.41491643E-04
    5   -0.19433242E+03   -0.19614674E-07    0.55590358E-05
    6   -0.19433242E+03   -0.17845139E-08    0.16788367E-05
    7   -0.19433242E+03   -0.16768809E-10    0.57873818E-06
    8   -0.19433242E+03   -0.19895197E-12    0.83891331E-07
    9   -0.19433242E+03   -0.85265128E-13    0.25426190E-07
   10   -0.19433242E+03   -0.85265128E-13    0.34258165E-08

Total Energy:                     -192.3755326707 H        -5234.8046 eV
Extrapolated to 0K:               -192.3755326707 H        -5234.8046 eV
Total Mermin free energy:         -192.3755326707 H        -5234.8046 eV
Force related energy:             -192.3755326707 H        -5234.8046 eV

Volume:                              0.998916E+04 au^3   0.148024E+04 A^3
Pressure:                            0.235446E-05 au     0.692706E+08 Pa
>> Charges saved for restart in charges.bin

total energy  -1.9237553E+02 H       energy change -2.3315333E-04 H
gradient norm  1.2981052E-02 H/a0    max. gradient  3.3461300E-03 H/a0
step length    8.7858600E-02 a0      max. step      1.7646036E-02 a0

--------------------------------------------------------------------------------

***  Geometry step: 29

 iSCC Total electronic   Diff electronic      SCC error    
    1   -0.19433242E+03    0.00000000E+00    0.14466813E-02
    2   -0.19432958E+03    0.28318847E-02    0.80598431E-03
    3   -0.19432959E+03   -0.27776825E-05    0.23163805E-03
    4   -0.19432959E+03   -0.61140088E-06    0.34227113E-04
    5   -0.19432959E+03   -0.16467681E-07    0.10605643E-04
    6   -0.19432959E+03   -0.13849615E-08    0.19321917E-05
    7   -0.19432959E+03   -0.19781510E-10    0.40433367E-06
    8   -0.19432959E+03   -0.31263880E-12    0.94555290E-07
    9   -0.19432959E+03   -0.17053026E-12    0.21129686E-07
   10   -0.19432959E+03   -0.28421709E-13    0.28250375E-08

Total Energy:                     -192.3757403326 H        -5234.8102 eV
Extrapolated to 0K:               -192.3757403326 H        -5234.8102 eV
Total Mermin free energy:         -192.3757403326 H        -5234.8102 eV
Force related energy:             -192.3757403326 H        -5234.8102 eV

Volume:                              0.100003E+05 au^3   0.148190E+04 A^3
Pressure:                            0.374326E-06 au     0.110130E+08 Pa
>> Charges saved for restart in charges.bin

total energy  -1.9237574E+02 H       energy change -2.0766193E-04 H
gradient norm  1.0419696E-02 H/a0    max. gradient  2.0725235E-03 H/a0
step length    8.3386189E-02 a0      max. step      1.7310184E-02 a0

--------------------------------------------------------------------------------

***  Geometry step: 30

 iSCC Total electronic   Diff electronic      SCC error    
    1   -0.19432959E+03    0.00000000E+00    0.19891743E-02
    2   -0.19432956E+03    0.26902193E-04    0.85764531E-03
    3   -0.19432956E+03   -0.22470927E-05    0.20748634E-03
    4   -0.19432956E+03   -0.52154564E-06    0.36889258E-04
    5   -0.19432956E+03   -0.95531050E-08    0.85751123E-05
    6   -0.19432956E+03   -0.90835783E-09    0.17285008E-05
    7   -0.19432956E+03   -0.18985702E-10    0.40878261E-06
    8   -0.19432956E+03   -0.28421709E-12    0.93416281E-07
    9   -0.19432956E+03   -0.28421709E-13    0.17534766E-07
   10   -0.19432956E+03   -0.28421709E-13    0.29210057E-08

Total Energy:                     -192.3759095399 H        -5234.8148 eV
Extrapolated to 0K:               -192.3759095399 H        -5234.8148 eV
Total Mermin free energy:         -192.3759095399 H        -5234.8148 eV
Force related energy:             -192.3759095399 H        -5234.8148 eV

Volume:                              0.100061E+05 au^3   0.148275E+04 A^3
Pressure:                           -0.259282E-06 au    -0.762835E+07 Pa
>> Charges saved for restart in charges.bin

total energy  -1.9237591E+02 H       energy change -1.6920731E-04 H
gradient norm  9.3170302E-03 H/a0    max. gradient  1.6960392E-03 H/a0
step length    6.8349335E-02 a0      max. step      1.4472755E-02 a0

--------------------------------------------------------------------------------

***  Geometry step: 31

 iSCC Total electronic   Diff electronic      SCC error    
    1   -0.19432956E+03    0.00000000E+00    0.21286698E-02
    2   -0.19433137E+03   -0.18071823E-02    0.86177373E-03
    3   -0.19433137E+03   -0.37920839E-05    0.18749919E-03
    4   -0.19433138E+03   -0.89255502E-06    0.38305879E-04
    5   -0.19433138E+03   -0.10181765E-07    0.53796649E-05
    6   -0.19433138E+03   -0.96332542E-09    0.13887173E-05
    7   -0.19433138E+03   -0.22822633E-10    0.45712352E-06
    8   -0.19433138E+03   -0.39790393E-12    0.72713710E-07
    9   -0.19433138E+03    0.00000000E+00    0.17476821E-07
   10   -0.19433138E+03   -0.85265128E-13    0.25777718E-08

Total Energy:                     -192.3760758788 H        -5234.8194 eV
Extrapolated to 0K:               -192.3760758788 H        -5234.8194 eV
Total Mermin free energy:         -192.3760758788 H        -5234.8194 eV
Force related energy:             -192.3760758788 H        -5234.8194 eV

Volume:                              0.100091E+05 au^3   0.148319E+04 A^3
Pressure:                           -0.135955E-06 au    -0.399993E+07 Pa
>> Charges saved for restart in charges.bin

total energy  -1.9237608E+02 H       energy change -1.6633888E-04 H
gradient norm  1.0447640E-02 H/a0    max. gradient  2.8606724E-03 H/a0
step length    6.8559278E-02 a0      max. step      1.5062993E-02 a0

--------------------------------------------------------------------------------

***  Geometry step: 32

 iSCC Total electronic   Diff electronic      SCC error    
    1   -0.19433138E+03    0.00000000E+00    0.15308649E-02
    2   -0.19433502E+03   -0.36425577E-02    0.73594306E-03
    3   -0.19433502E+03   -0.26495451E-05    0.24110550E-03
    4   -0.19433502E+03   -0.60609892E-06    0.37377929E-04
    5   -0.19433502E+03   -0.76696836E-08    0.84055592E-05
    6   -0.19433502E+03   -0.82206952E-09    0.14947674E-05
    7   -0.19433502E+03   -0.92086339E-11    0.38016326E-06
    8   -0.19433502E+03   -0.19895197E-12    0.70038126E-07
    9   -0.19433502E+03    0.56843419E-13    0.13544547E-07
   10   -0.19433502E+03   -0.28421709E-13    0.98278141E-09

Total Energy:                     -192.3762371468 H        -5234.8238 eV
Extrapolated to 0K:               -192.3762371468 H        -5234.8238 eV
Total Mermin free energy:         -192.3762371468 H        -5234.8238 eV
Force related energy:             -192.3762371468 H        -5234.8238 eV

Volume:                              0.100094E+05 au^3   0.148324E+04 A^3
Pressure:                            0.109761E-05 au     0.322928E+08 Pa
>> Charges saved for restart in charges.bin

total energy  -1.9237624E+02 H       energy change -1.6126798E-04 H
gradient norm  1.1348728E-02 H/a0    max. gradient  2.9705012E-03 H/a0
step length    6.6000624E-02 a0      max. step      1.4885119E-02 a0

--------------------------------------------------------------------------------

***  Geometry step: 33

 iSCC Total electronic   Diff electronic      SCC error    
    1   -0.19433502E+03    0.00000000E+00    0.20897741E-02
    2   -0.19433882E+03   -0.37993457E-02    0.97230208E-03
    3   -0.19433882E+03   -0.33752321E-05    0.29061039E-03
    4   -0.19433882E+03   -0.74596088E-06    0.42043889E-04
    5   -0.19433882E+03   -0.16650944E-07    0.10400650E-04
    6   -0.19433882E+03   -0.13549482E-08    0.18390636E-05
    7   -0.19433882E+03   -0.13187673E-10    0.39953702E-06
    8   -0.19433882E+03   -0.25579538E-12    0.98895089E-07
    9   -0.19433882E+03   -0.11368684E-12    0.15496881E-07
   10   -0.19433882E+03    0.56843419E-13    0.24421531E-08

Total Energy:                     -192.3764397912 H        -5234.8293 eV
Extrapolated to 0K:               -192.3764397912 H        -5234.8293 eV
Total Mermin free energy:         -192.3764397912 H        -5234.8293 eV
Force related energy:             -192.3764397912 H        -5234.8293 eV

Volume:                              0.100103E+05 au^3   0.148337E+04 A^3
Pressure:                            0.239012E-05 au     0.703199E+08 Pa
>> Charges saved for restart in charges.bin

total energy  -1.9237644E+02 H       energy change -2.0264445E-04 H
gradient norm  1.1146268E-02 H/a0    max. gradient  2.4844873E-03 H/a0
step length    9.2050037E-02 a0      max. step      2.1160550E-02 a0

--------------------------------------------------------------------------------

***  Geometry step: 34

 iSCC Total electronic   Diff electronic      SCC error    
    1   -0.19433882E+03    0.00000000E+00    0.14887310E-02
    2   -0.19434131E+03   -0.24850474E-02    0.93123493E-03
    3   -0.19434131E+03   -0.24451040E-05    0.25917474E-03
    4   -0.19434131E+03   -0.52381429E-06    0.39221001E-04
    5   -0.19434131E+03   -0.19891132E-07    0.36706187E-05
    6   -0.19434131E+03   -0.99643671E-09    0.11205802E-05
    7   -0.19434131E+03   -0.14409807E-10    0.39919364E-06
    8   -0.19434131E+03   -0.22737368E-12    0.51675900E-07
    9   -0.19434131E+03   -0.85265128E-13    0.14387020E-07
   10   -0.19434131E+03   -0.28421709E-13    0.24606241E-08

Total Energy:                     -192.3766247269 H        -5234.8343 eV
Extrapolated to 0K:               -192.3766247269 H        -5234.8343 eV
Total Mermin free energy:         -192.3766247269 H        -5234.8343 eV
Force related energy:             -192.3766247269 H        -5234.8343 eV

Volume:                              0.100116E+05 au^3   0.148356E+04 A^3
Pressure:                            0.329648E-05 au     0.969857E+08 Pa
>> Charges saved for restart in charges.bin

total energy  -1.9237662E+02 H       energy change -1.8493565E-04 H
gradient norm  1.0080227E-02 H/a0    max. gradient  2.6829036E-03 H/a0
step length    9.1585390E-02 a0      max. step      2.1590082E-02 a0

--------------------------------------------------------------------------------

***  Geometry step: 35

 iSCC Total electronic   Diff electronic      SCC error    
    1   -0.19434131E+03    0.00000000E+00    0.19765554E-02
    2   -0.19434156E+03   -0.24496741E-03    0.95762091E-03
    3   -0.19434156E+03   -0.35721321E-05    0.28104658E-03
    4   -0.19434156E+03   -0.82455878E-06    0.43225606E-04
    5   -0.19434156E+03   -0.22592218E-07    0.76116540E-05
    6   -0.19434156E+03   -0.13286581E-08    0.21250678E-05
    7   -0.19434156E+03   -0.24670044E-10    0.55196521E-06
    8   -0.19434156E+03   -0.76738615E-12    0.87986064E-07
    9   -0.19434156E+03   -0.85265128E-13    0.24985582E-07
   10   -0.19434156E+03    0.28421709E-13    0.46669371E-08

Total Energy:                     -192.3768039381 H        -5234.8392 eV
Extrapolated to 0K:               -192.3768039381 H        -5234.8392 eV
Total Mermin free energy:         -192.3768039381 H        -5234.8392 eV
Force related energy:             -192.3768039381 H        -5234.8392 eV

Volume:                              0.100139E+05 au^3   0.148391E+04 A^3
Pressure:                            0.330094E-05 au     0.971170E+08 Pa
>> Charges saved for restart in charges.bin

total energy  -1.9237680E+02 H       energy change -1.7921126E-04 H
gradient norm  9.4458599E-03 H/a0    max. gradient  2.2334528E-03 H/a0
step length    9.0299863E-02 a0      max. step      2.1722393E-02 a0

--------------------------------------------------------------------------------

***  Geometry step: 36

 iSCC Total electronic   Diff electronic      SCC error    
    1   -0.19434156E+03    0.00000000E+00    0.19076347E-02
    2   -0.19434046E+03    0.10983434E-02    0.10876590E-02
    3   -0.19434047E+03   -0.36803729E-05    0.28618693E-03
    4   -0.19434047E+03   -0.86351776E-06    0.29725271E-04
    5   -0.19434047E+03   -0.18622046E-07    0.11685665E-04
    6   -0.19434047E+03   -0.13173178E-08    0.26279503E-05
    7   -0.19434047E+03   -0.22481572E-10    0.48700025E-06
    8   -0.19434047E+03   -0.59685590E-12    0.11960578E-06
    9   -0.19434047E+03   -0.56843419E-13    0.23863723E-07
   10   -0.19434047E+03    0.00000000E+00    0.40443027E-08

Total Energy:                     -192.3769512879 H        -5234.8432 eV
Extrapolated to 0K:               -192.3769512879 H        -5234.8432 eV
Total Mermin free energy:         -192.3769512879 H        -5234.8432 eV
Force related energy:             -192.3769512879 H        -5234.8432 eV

Volume:                              0.100164E+05 au^3   0.148427E+04 A^3
Pressure:                            0.286595E-05 au     0.843191E+08 Pa
>> Charges saved for restart in charges.bin

total energy  -1.9237695E+02 H       energy change -1.4734980E-04 H
gradient norm  9.4220903E-03 H/a0    max. gradient  2.2956071E-03 H/a0
step length    7.6429238E-02 a0      max. step      1.8349220E-02 a0

--------------------------------------------------------------------------------

***  Geometry step: 37

 iSCC Total electronic   Diff electronic      SCC error    
    1   -0.19434047E+03    0.00000000E+00    0.19204991E-02
    2   -0.19433913E+03    0.13378421E-02    0.10955492E-02
    3   -0.19433913E+03   -0.23487577E-05    0.25301771E-03
    4   -0.19433913E+03   -0.54877310E-06    0.34125156E-04
    5   -0.19433913E+03   -0.11041635E-07    0.10343106E-04
    6   -0.19433913E+03   -0.84440899E-09    0.18157611E-05
    7   -0.19433913E+03   -0.13812951E-10    0.31415370E-06
    8   -0.19433913E+03   -0.48316906E-12    0.92620773E-07
    9   -0.19433913E+03   -0.85265128E-13    0.18827232E-07
   10   -0.19433913E+03   -0.56843419E-13    0.27815288E-08

Total Energy:                     -192.3770728185 H        -5234.8465 eV
Extrapolated to 0K:               -192.3770728185 H        -5234.8465 eV
Total Mermin free energy:         -192.3770728185 H        -5234.8465 eV
Force related energy:             -192.3770728185 H        -5234.8465 eV

Volume:                              0.100192E+05 au^3   0.148469E+04 A^3
Pressure:                            0.215861E-05 au     0.635084E+08 Pa
>> Charges saved for restart in charges.bin

total energy  -1.9237707E+02 H       energy change -1.2153057E-04 H
gradient norm  8.6613678E-03 H/a0    max. gradient  1.9132262E-03 H/a0
step length    6.4009848E-02 a0      max. step      1.4714953E-02 a0

--------------------------------------------------------------------------------

***  Geometry step: 38

 iSCC Total electronic   Diff electronic      SCC error    
    1   -0.19433913E+03    0.00000000E+00    0.15539358E-02
    2   -0.19433894E+03    0.19335520E-03    0.65827073E-03
    3   -0.19433894E+03   -0.16834143E-05    0.16581311E-03
    4   -0.19433894E+03   -0.36368851E-06    0.30141041E-04
    5   -0.19433894E+03   -0.57165153E-08    0.60659281E-05
    6   -0.19433894E+03   -0.46631499E-09    0.12010238E-05
    7   -0.19433894E+03   -0.91802121E-11    0.24968373E-06
    8   -0.19433894E+03   -0.22737368E-12    0.61502138E-07
    9   -0.19433894E+03    0.00000000E+00    0.14484050E-07
   10   -0.19433894E+03   -0.85265128E-13    0.17887878E-08

Total Energy:                     -192.3771765842 H        -5234.8493 eV
Extrapolated to 0K:               -192.3771765842 H        -5234.8493 eV
Total Mermin free energy:         -192.3771765842 H        -5234.8493 eV
Force related energy:             -192.3771765842 H        -5234.8493 eV

Volume:                              0.100218E+05 au^3   0.148507E+04 A^3
Pressure:                            0.163818E-05 au     0.481970E+08 Pa
>> Charges saved for restart in charges.bin

total energy  -1.9237718E+02 H       energy change -1.0376568E-04 H
gradient norm  7.2158974E-03 H/a0    max. gradient  1.4322031E-03 H/a0
step length    5.5628703E-02 a0      max. step      1.1887626E-02 a0

--------------------------------------------------------------------------------

***  Geometry step: 39

 iSCC Total electronic   Diff electronic      SCC error    
    1   -0.19433894E+03    0.00000000E+00    0.18620453E-02
    2   -0.19434079E+03   -0.18505323E-02    0.70629429E-03
    3   -0.19434079E+03   -0.20144737E-05    0.18740747E-03
    4   -0.19434080E+03   -0.43594946E-06    0.29360549E-04
    5   -0.19434080E+03   -0.59103797E-08    0.27193426E-05
    6   -0.19434080E+03   -0.44579451E-09    0.64937465E-06
    7   -0.19434080E+03   -0.14409807E-10    0.25347475E-06
    8   -0.19434080E+03   -0.28421709E-12    0.55209002E-07
    9   -0.19434080E+03   -0.28421709E-13    0.75468645E-08

Total Energy:                     -192.3772655356 H        -5234.8517 eV
Extrapolated to 0K:               -192.3772655356 H        -5234.8517 eV
Total Mermin free energy:         -192.3772655356 H        -5234.8517 eV
Force related energy:             -192.3772655356 H        -5234.8517 eV

Volume:                              0.100238E+05 au^3   0.148538E+04 A^3
Pressure:                            0.182445E-05 au     0.536773E+08 Pa
>> Charges saved for restart in charges.bin

total energy  -1.9237727E+02 H       energy change -8.8951447E-05 H
gradient norm  6.9989591E-03 H/a0    max. gradient  1.5448542E-03 H/a0
step length    5.2541167E-02 a0      max. step      1.0326451E-02 a0

--------------------------------------------------------------------------------

***  Geometry step: 40

 iSCC Total electronic   Diff electronic      SCC error    
    1   -0.19434080E+03    0.00000000E+00    0.13344751E-02
    2   -0.19434345E+03   -0.26539040E-02    0.58095641E-03
    3   -0.19434345E+03   -0.14738582E-05    0.19033638E-03
    4   -0.19434345E+03   -0.31112987E-06    0.28772036E-04
    5   -0.19434345E+03   -0.57366663E-08    0.54162467E-05
    6   -0.19434345E+03   -0.51917937E-09    0.10838783E-05
    7   -0.19434345E+03   -0.75317530E-11    0.22908424E-06
    8   -0.19434345E+03   -0.11368684E-12    0.58603958E-07
    9   -0.19434345E+03   -0.56843419E-13    0.13290642E-07
   10   -0.19434345E+03    0.00000000E+00    0.14744170E-08

Total Energy:                     -192.3773441421 H        -5234.8539 eV
Extrapolated to 0K:               -192.3773441421 H        -5234.8539 eV
Total Mermin free energy:         -192.3773441421 H        -5234.8539 eV
Force related energy:             -192.3773441421 H        -5234.8539 eV

Volume:                              0.100264E+05 au^3   0.148576E+04 A^3
Pressure:                            0.233719E-05 au     0.687624E+08 Pa
>> Charges saved for restart in charges.bin

total energy  -1.9237734E+02 H       energy change -7.8606455E-05 H
gradient norm  7.6412961E-03 H/a0    max. gradient  1.6354581E-03 H/a0
step length    5.0145697E-02 a0      max. step      1.0177462E-02 a0

--------------------------------------------------------------------------------

***  Geometry step: 41

 iSCC Total electronic   Diff electronic      SCC error    
    1   -0.19434345E+03    0.00000000E+00    0.15612037E-02
    2   -0.19434686E+03   -0.34053413E-02    0.82783884E-03
    3   -0.19434686E+03   -0.19000573E-05    0.19084296E-03
    4   -0.19434686E+03   -0.40574889E-06    0.31319425E-04
    5   -0.19434686E+03   -0.10350647E-07    0.92725573E-05
    6   -0.19434686E+03   -0.76877882E-09    0.15157690E-05
    7   -0.19434686E+03   -0.98623332E-11    0.29281946E-06
    8   -0.19434686E+03   -0.34106051E-12    0.90502635E-07
    9   -0.19434686E+03   -0.56843419E-13    0.18507314E-07
   10   -0.19434686E+03   -0.28421709E-13    0.16663044E-08

Total Energy:                     -192.3774421344 H        -5234.8565 eV
Extrapolated to 0K:               -192.3774421344 H        -5234.8565 eV
Total Mermin free energy:         -192.3774421344 H        -5234.8565 eV
Force related energy:             -192.3774421344 H        -5234.8565 eV

Volume:                              0.100306E+05 au^3   0.148638E+04 A^3
Pressure:                            0.296515E-05 au     0.872376E+08 Pa
>> Charges saved for restart in charges.bin

total energy  -1.9237744E+02 H       energy change -9.7992264E-05 H
gradient norm  7.8810041E-03 H/a0    max. gradient  2.0849101E-03 H/a0
step length    6.8578629E-02 a0      max. step      1.4191432E-02 a0

--------------------------------------------------------------------------------

***  Geometry step: 42

 iSCC Total electronic   Diff electronic      SCC error    
    1   -0.19434686E+03    0.00000000E+00    0.12493414E-02
    2   -0.19434894E+03   -0.20853712E-02    0.66655250E-03
    3   -0.19434895E+03   -0.12817696E-05    0.16326612E-03
    4   -0.19434895E+03   -0.27301923E-06    0.29526992E-04
    5   -0.19434895E+03   -0.86209013E-08    0.73625285E-05
    6   -0.19434895E+03   -0.52429527E-09    0.11621634E-05
    7   -0.19434895E+03   -0.66506800E-11    0.26977543E-06
    8   -0.19434895E+03   -0.25579538E-12    0.83773874E-07
    9   -0.19434895E+03    0.00000000E+00    0.13775134E-07
   10   -0.19434895E+03   -0.28421709E-13    0.18522996E-08

Total Energy:                     -192.3775363029 H        -5234.8591 eV
Extrapolated to 0K:               -192.3775363029 H        -5234.8591 eV
Total Mermin free energy:         -192.3775363029 H        -5234.8591 eV
Force related energy:             -192.3775363029 H        -5234.8591 eV

Volume:                              0.100362E+05 au^3   0.148721E+04 A^3
Pressure:                            0.319294E-05 au     0.939395E+08 Pa
>> Charges saved for restart in charges.bin

total energy  -1.9237754E+02 H       energy change -9.4168589E-05 H
gradient norm  7.3251748E-03 H/a0    max. gradient  2.1841800E-03 H/a0
step length    7.2654597E-02 a0      max. step      1.5440969E-02 a0

--------------------------------------------------------------------------------

***  Geometry step: 43

 iSCC Total electronic   Diff electronic      SCC error    
    1   -0.19434895E+03    0.00000000E+00    0.15353621E-02
    2   -0.19434926E+03   -0.31482816E-03    0.65450392E-03
    3   -0.19434926E+03   -0.15971285E-05    0.18217156E-03
    4   -0.19434926E+03   -0.34996756E-06    0.24364921E-04
    5   -0.19434926E+03   -0.51960569E-08    0.28994307E-05
    6   -0.19434926E+03   -0.42072656E-09    0.69037584E-06
    7   -0.19434926E+03   -0.69917405E-11    0.26447031E-06
    8   -0.19434926E+03   -0.85265128E-13    0.55728180E-07
    9   -0.19434926E+03   -0.28421709E-13    0.10314261E-07
   10   -0.19434926E+03   -0.56843419E-13    0.21561855E-08

Total Energy:                     -192.3776296462 H        -5234.8616 eV
Extrapolated to 0K:               -192.3776296462 H        -5234.8616 eV
Total Mermin free energy:         -192.3776296462 H        -5234.8616 eV
Force related energy:             -192.3776296462 H        -5234.8616 eV

Volume:                              0.100427E+05 au^3   0.148818E+04 A^3
Pressure:                            0.278609E-05 au     0.819695E+08 Pa
>> Charges saved for restart in charges.bin

total energy  -1.9237763E+02 H       energy change -9.3343282E-05 H
gradient norm  6.7974729E-03 H/a0    max. gradient  2.8103644E-03 H/a0
step length    7.7458356E-02 a0      max. step      1.6415159E-02 a0

--------------------------------------------------------------------------------

***  Geometry step: 44

 iSCC Total electronic   Diff electronic      SCC error    
    1   -0.19434926E+03    0.00000000E+00    0.13948596E-02
    2   -0.19434791E+03    0.13567676E-02    0.58142123E-03
    3   -0.19434791E+03   -0.13510035E-05    0.14058945E-03
    4   -0.19434791E+03   -0.30536438E-06    0.16826651E-04
    5   -0.19434791E+03   -0.26460896E-08    0.44270002E-05
    6   -0.19434791E+03   -0.16018475E-09    0.96903854E-06
    7   -0.19434791E+03   -0.25011104E-11    0.14567126E-06
    8   -0.19434791E+03   -0.11368684E-12    0.34886678E-07
    9   -0.19434791E+03    0.00000000E+00    0.82658671E-08

Total Energy:                     -192.3777086981 H        -5234.8638 eV
Extrapolated to 0K:               -192.3777086981 H        -5234.8638 eV
Total Mermin free energy:         -192.3777086981 H        -5234.8638 eV
Force related energy:             -192.3777086981 H        -5234.8638 eV

Volume:                              0.100483E+05 au^3   0.148901E+04 A^3
Pressure:                            0.192262E-05 au     0.565653E+08 Pa
>> Charges saved for restart in charges.bin

total energy  -1.9237771E+02 H       energy change -7.9051896E-05 H
gradient norm  6.9430082E-03 H/a0    max. gradient  2.4501906E-03 H/a0
step length    6.1461156E-02 a0      max. step      1.3063082E-02 a0

--------------------------------------------------------------------------------

***  Geometry step: 45

 iSCC Total electronic   Diff electronic      SCC error    
    1   -0.19434791E+03    0.00000000E+00    0.14875997E-02
    2   -0.19434570E+03    0.22034870E-02    0.85651302E-03
    3   -0.19434571E+03   -0.14016155E-05    0.19588590E-03
    4   -0.19434571E+03   -0.31768820E-06    0.19334785E-04
    5   -0.19434571E+03   -0.35458640E-08    0.43813459E-05
    6   -0.19434571E+03   -0.15307933E-09    0.75315375E-06
    7   -0.19434571E+03   -0.28705927E-11    0.19082018E-06
    8   -0.19434571E+03   -0.19895197E-12    0.34915609E-07
    9   -0.19434571E+03    0.56843419E-13    0.78077416E-08

Total Energy:                     -192.3777946146 H        -5234.8661 eV
Extrapolated to 0K:               -192.3777946146 H        -5234.8661 eV
Total Mermin free energy:         -192.3777946146 H        -5234.8661 eV
Force related energy:             -192.3777946146 H        -5234.8661 eV

Volume:                              0.100538E+05 au^3   0.148982E+04 A^3
Pressure:                            0.719567E-06 au     0.211704E+08 Pa
>> Charges saved for restart in charges.bin

total energy  -1.9237779E+02 H       energy change -8.5916448E-05 H
gradient norm  7.5907657E-03 H/a0    max. gradient  2.3736433E-03 H/a0
step length    6.5030855E-02 a0      max. step      1.4519336E-02 a0

--------------------------------------------------------------------------------

***  Geometry step: 46

 iSCC Total electronic   Diff electronic      SCC error    
    1   -0.19434571E+03    0.00000000E+00    0.11920590E-02
    2   -0.19434419E+03    0.15177713E-02    0.68062697E-03
    3   -0.19434419E+03   -0.95130960E-06    0.14527561E-03
    4   -0.19434419E+03   -0.21407701E-06    0.16272187E-04
    5   -0.19434419E+03   -0.36692995E-08    0.48239585E-05
    6   -0.19434419E+03   -0.15657520E-09    0.64306066E-06
    7   -0.19434419E+03   -0.40643044E-11    0.12638657E-06
    8   -0.19434419E+03   -0.22737368E-12    0.35700667E-07
    9   -0.19434419E+03    0.00000000E+00    0.97619846E-08

Total Energy:                     -192.3778878179 H        -5234.8687 eV
Extrapolated to 0K:               -192.3778878179 H        -5234.8687 eV
Total Mermin free energy:         -192.3778878179 H        -5234.8687 eV
Force related energy:             -192.3778878179 H        -5234.8687 eV

Volume:                              0.100579E+05 au^3   0.149043E+04 A^3
Pressure:                           -0.247765E-06 au    -0.728950E+07 Pa
>> Charges saved for restart in charges.bin

total energy  -1.9237789E+02 H       energy change -9.3203343E-05 H
gradient norm  7.7957609E-03 H/a0    max. gradient  2.8119803E-03 H/a0
step length    6.6460613E-02 a0      max. step      1.5359548E-02 a0

--------------------------------------------------------------------------------

***  Geometry step: 47

 iSCC Total electronic   Diff electronic      SCC error    
    1   -0.19434419E+03    0.00000000E+00    0.11788510E-02
    2   -0.19434418E+03    0.76452062E-05    0.50345593E-03
    3   -0.19434418E+03   -0.17232224E-05    0.15325632E-03
    4   -0.19434418E+03   -0.38353625E-06    0.21567303E-04
    5   -0.19434418E+03   -0.50006008E-08    0.51935340E-05
    6   -0.19434418E+03   -0.35890935E-09    0.11319961E-05
    7   -0.19434418E+03   -0.96349595E-11    0.24757926E-06
    8   -0.19434418E+03   -0.31263880E-12    0.46064066E-07
    9   -0.19434418E+03    0.56843419E-13    0.10101878E-07
   10   -0.19434418E+03   -0.28421709E-13    0.14069883E-08

Total Energy:                     -192.3779986540 H        -5234.8717 eV
Extrapolated to 0K:               -192.3779986540 H        -5234.8717 eV
Total Mermin free energy:         -192.3779986540 H        -5234.8717 eV
Force related energy:             -192.3779986540 H        -5234.8717 eV

Volume:                              0.100615E+05 au^3   0.149097E+04 A^3
Pressure:                           -0.682982E-06 au    -0.200940E+08 Pa
>> Charges saved for restart in charges.bin

total energy  -1.9237800E+02 H       energy change -1.1083613E-04 H
gradient norm  7.4122990E-03 H/a0    max. gradient  2.0124403E-03 H/a0
step length    8.3436933E-02 a0      max. step      1.9350648E-02 a0

--------------------------------------------------------------------------------

***  Geometry step: 48

 iSCC Total electronic   Diff electronic      SCC error    
    1   -0.19434418E+03    0.00000000E+00    0.13645107E-02
    2   -0.19434616E+03   -0.19784615E-02    0.52932937E-03
    3   -0.19434616E+03   -0.19292216E-05    0.12568321E-03
    4   -0.19434616E+03   -0.43148833E-06    0.24092264E-04
    5   -0.19434616E+03   -0.46172204E-08    0.33370198E-05
    6   -0.19434616E+03   -0.33980996E-09    0.88160633E-06
    7   -0.19434616E+03   -0.13216095E-10    0.23627043E-06
    8   -0.19434616E+03   -0.36948222E-12    0.56328003E-07
    9   -0.19434616E+03    0.56843419E-13    0.10575041E-07
   10   -0.19434616E+03   -0.56843419E-13    0.18215953E-08

Total Energy:                     -192.3780926903 H        -5234.8742 eV
Extrapolated to 0K:               -192.3780926903 H        -5234.8742 eV
Total Mermin free energy:         -192.3780926903 H        -5234.8742 eV
Force related energy:             -192.3780926903 H        -5234.8742 eV

Volume:                              0.100640E+05 au^3   0.149133E+04 A^3
Pressure:                           -0.450320E-06 au    -0.132489E+08 Pa
>> Charges saved for restart in charges.bin

total energy  -1.9237809E+02 H       energy change -9.4036273E-05 H
gradient norm  7.1197624E-03 H/a0    max. gradient  2.3553828E-03 H/a0
step length    7.9010448E-02 a0      max. step      1.7987589E-02 a0

--------------------------------------------------------------------------------

***  Geometry step: 49

 iSCC Total electronic   Diff electronic      SCC error    
    1   -0.19434616E+03    0.00000000E+00    0.15973756E-02
    2   -0.19435000E+03   -0.38353639E-02    0.59098450E-03
    3   -0.19435000E+03   -0.21069091E-05    0.14902860E-03
    4   -0.19435000E+03   -0.45166303E-06    0.23167407E-04
    5   -0.19435000E+03   -0.40584212E-08    0.65089332E-05
    6   -0.19435000E+03   -0.28052227E-09    0.15489336E-05
    7   -0.19435000E+03   -0.86970431E-11    0.27609976E-06
    8   -0.19435000E+03   -0.31263880E-12    0.47421140E-07
    9   -0.19435000E+03    0.28421709E-13    0.10557244E-07
   10   -0.19435000E+03   -0.85265128E-13    0.14252599E-08

Total Energy:                     -192.3781793820 H        -5234.8766 eV
Extrapolated to 0K:               -192.3781793820 H        -5234.8766 eV
Total Mermin free energy:         -192.3781793820 H        -5234.8766 eV
Force related energy:             -192.3781793820 H        -5234.8766 eV

Volume:                              0.100651E+05 au^3   0.149149E+04 A^3
Pressure:                            0.625366E-06 au     0.183989E+08 Pa
>> Charges saved for restart in charges.bin

total energy  -1.9237818E+02 H       energy change -8.6691667E-05 H
gradient norm  7.0830161E-03 H/a0    max. gradient  2.6122276E-03 H/a0
step length    7.7703844E-02 a0      max. step      1.7472050E-02 a0

--------------------------------------------------------------------------------

***  Geometry step: 50

 iSCC Total electronic   Diff electronic      SCC error    
    1   -0.19435000E+03    0.00000000E+00    0.95644835E-03
    2   -0.19435305E+03   -0.30482867E-02    0.37736384E-03
    3   -0.19435305E+03   -0.11797084E-05    0.10485096E-03
    4   -0.19435305E+03   -0.24385389E-06    0.15957286E-04
    5   -0.19435305E+03   -0.24118094E-08    0.43218341E-05
    6   -0.19435305E+03   -0.18883384E-09    0.10531577E-05
    7   -0.19435305E+03   -0.34958703E-11    0.17129261E-06
    8   -0.19435305E+03   -0.19895197E-12    0.33039896E-07
    9   -0.19435305E+03   -0.28421709E-13    0.10533167E-07
   10   -0.19435305E+03    0.00000000E+00    0.90977226E-09

Total Energy:                     -192.3782570820 H        -5234.8787 eV
Extrapolated to 0K:               -192.3782570820 H        -5234.8787 eV
Total Mermin free energy:         -192.3782570820 H        -5234.8787 eV
Force related energy:             -192.3782570820 H        -5234.8787 eV

Volume:                              0.100667E+05 au^3   0.149172E+04 A^3
Pressure:                            0.145724E-05 au     0.428733E+08 Pa
>> Charges saved for restart in charges.bin

total energy  -1.9237826E+02 H       energy change -7.7700003E-05 H
gradient norm  7.3477204E-03 H/a0    max. gradient  2.2079214E-03 H/a0
step length    7.1194907E-02 a0      max. step      1.5686588E-02 a0

--------------------------------------------------------------------------------

***  Geometry step: 51

 iSCC Total electronic   Diff electronic      SCC error    
    1   -0.19435305E+03    0.00000000E+00    0.11282490E-02
    2   -0.19435588E+03   -0.28232703E-02    0.66870532E-03
    3   -0.19435588E+03   -0.16279739E-05    0.20029981E-03
    4   -0.19435588E+03   -0.35949100E-06    0.20573703E-04
    5   -0.19435588E+03   -0.46987907E-08    0.50570483E-05
    6   -0.19435588E+03   -0.32579806E-09    0.12288774E-05
    7   -0.19435588E+03   -0.36664005E-11    0.26710471E-06
    8   -0.19435588E+03   -0.11368684E-12    0.38622931E-07
    9   -0.19435588E+03   -0.85265128E-13    0.10142355E-07
   10   -0.19435588E+03    0.85265128E-13    0.98889430E-09

Total Energy:                     -192.3783654964 H        -5234.8817 eV
Extrapolated to 0K:               -192.3783654964 H        -5234.8817 eV
Total Mermin free energy:         -192.3783654964 H        -5234.8817 eV
Force related energy:             -192.3783654964 H        -5234.8817 eV

Volume:                              0.100692E+05 au^3   0.149210E+04 A^3
Pressure:                            0.227114E-05 au     0.668191E+08 Pa
>> Charges saved for restart in charges.bin

total energy  -1.9237837E+02 H       energy change -1.0841443E-04 H
gradient norm  7.7048409E-03 H/a0    max. gradient  2.5101138E-03 H/a0
step length    1.0129651E-01 a0      max. step      2.2434520E-02 a0

--------------------------------------------------------------------------------

***  Geometry step: 52

 iSCC Total electronic   Diff electronic      SCC error    
    1   -0.19435588E+03    0.00000000E+00    0.21613061E-02
    2   -0.19435604E+03   -0.16162649E-03    0.12046852E-02
    3   -0.19435604E+03   -0.19638306E-05    0.23850502E-03
    4   -0.19435604E+03   -0.46586456E-06    0.27521624E-04
    5   -0.19435604E+03   -0.10769583E-07    0.73692172E-05
[...]
    4   -0.19434836E+03   -0.15238015E-08    0.15348812E-05
    5   -0.19434836E+03   -0.21913138E-10    0.27000043E-06
    6   -0.19434836E+03   -0.19895197E-11    0.60267233E-07
    7   -0.19434836E+03   -0.14210855E-12    0.63963541E-08

Total Energy:                     -192.3804742160 H        -5234.9391 eV
Extrapolated to 0K:               -192.3804742160 H        -5234.9391 eV
Total Mermin free energy:         -192.3804742160 H        -5234.9391 eV
Force related energy:             -192.3804742160 H        -5234.9391 eV

Volume:                              0.998343E+04 au^3   0.147939E+04 A^3
Pressure:                            0.252436E-07 au     0.742694E+06 Pa
>> Charges saved for restart in charges.bin

total energy  -1.9238047E+02 H       energy change -5.0858776E-07 H
gradient norm  5.2752824E-04 H/a0    max. gradient  1.5393164E-04 H/a0
step length    1.7931689E-03 a0      max. step      4.8123705E-04 a0

--------------------------------------------------------------------------------

***  Geometry step: 178

 iSCC Total electronic   Diff electronic      SCC error    
    1   -0.19434836E+03    0.00000000E+00    0.19227605E-03
    2   -0.19434850E+03   -0.14189422E-03    0.98906921E-04
    3   -0.19434850E+03   -0.30528781E-07    0.35935012E-04
    4   -0.19434850E+03   -0.59563661E-08    0.28125157E-05
    5   -0.19434850E+03   -0.86970431E-10    0.40670061E-06
    6   -0.19434850E+03   -0.78728135E-11    0.10309334E-06
    7   -0.19434850E+03   -0.17053026E-12    0.16122118E-07
    8   -0.19434850E+03    0.00000000E+00    0.43876716E-08

Total Energy:                     -192.3804750946 H        -5234.9391 eV
Extrapolated to 0K:               -192.3804750946 H        -5234.9391 eV
Total Mermin free energy:         -192.3804750946 H        -5234.9391 eV
Force related energy:             -192.3804750946 H        -5234.9391 eV

Volume:                              0.998239E+04 au^3   0.147924E+04 A^3
Pressure:                            0.986462E-07 au     0.290227E+07 Pa
>> Charges saved for restart in charges.bin

total energy  -1.9238048E+02 H       energy change -8.7860752E-07 H
gradient norm  5.7969832E-04 H/a0    max. gradient  1.4632931E-04 H/a0
step length    2.1962852E-02 a0      max. step      6.3086448E-03 a0

--------------------------------------------------------------------------------

***  Geometry step: 179

 iSCC Total electronic   Diff electronic      SCC error    
    1   -0.19434850E+03    0.00000000E+00    0.59318869E-04
    2   -0.19434860E+03   -0.96818669E-04    0.37340695E-04
    3   -0.19434860E+03   -0.18410731E-08    0.10273415E-04
    4   -0.19434860E+03   -0.41634962E-09    0.67045542E-06
    5   -0.19434860E+03   -0.14807711E-10    0.26355663E-06
    6   -0.19434860E+03   -0.42632564E-12    0.22583855E-07
    7   -0.19434860E+03    0.28421709E-13    0.50468656E-08

Total Energy:                     -192.3804754713 H        -5234.9391 eV
Extrapolated to 0K:               -192.3804754713 H        -5234.9391 eV
Total Mermin free energy:         -192.3804754713 H        -5234.9391 eV
Force related energy:             -192.3804754713 H        -5234.9391 eV

Volume:                              0.998228E+04 au^3   0.147922E+04 A^3
Pressure:                            0.144092E-06 au     0.423934E+07 Pa
>> Charges saved for restart in charges.bin

total energy  -1.9238048E+02 H       energy change -3.7667451E-07 H
gradient norm  5.2383433E-04 H/a0    max. gradient  1.1387806E-04 H/a0
step length    1.2975797E-03 a0      max. step      2.9731715E-04 a0

--------------------------------------------------------------------------------

***  Geometry step: 180

 iSCC Total electronic   Diff electronic      SCC error    
    1   -0.19434860E+03    0.00000000E+00    0.16930597E-03
    2   -0.19434879E+03   -0.19017248E-03    0.96131851E-04
    3   -0.19434879E+03   -0.24249601E-07    0.30892114E-04
    4   -0.19434879E+03   -0.49023754E-08    0.24892679E-05
    5   -0.19434879E+03   -0.10922463E-09    0.71491570E-06
    6   -0.19434879E+03   -0.74464879E-11    0.84676993E-07
    7   -0.19434879E+03    0.56843419E-13    0.13841512E-07
    8   -0.19434879E+03   -0.85265128E-13    0.52685243E-08

Total Energy:                     -192.3804764378 H        -5234.9391 eV
Extrapolated to 0K:               -192.3804764378 H        -5234.9391 eV
Total Mermin free energy:         -192.3804764378 H        -5234.9391 eV
Force related energy:             -192.3804764378 H        -5234.9391 eV

Volume:                              0.998190E+04 au^3   0.147917E+04 A^3
Pressure:                            0.239859E-06 au     0.705691E+07 Pa
>> Charges saved for restart in charges.bin

total energy  -1.9238048E+02 H       energy change -9.6653284E-07 H
gradient norm  5.9694349E-04 H/a0    max. gradient  1.8680576E-04 H/a0
step length    5.9484697E-03 a0      max. step      1.2386673E-03 a0

--------------------------------------------------------------------------------

***  Geometry step: 181

 iSCC Total electronic   Diff electronic      SCC error    
    1   -0.19434879E+03    0.00000000E+00    0.81430726E-04
    2   -0.19434870E+03    0.94086212E-04    0.37744090E-04
    3   -0.19434870E+03   -0.53655356E-08    0.12931453E-04
    4   -0.19434870E+03   -0.11455370E-08    0.12102501E-05
    5   -0.19434870E+03   -0.21088908E-10    0.20102013E-06
    6   -0.19434870E+03   -0.21316282E-11    0.39188663E-07
    7   -0.19434870E+03   -0.28421709E-13    0.57653784E-08

Total Energy:                     -192.3804769591 H        -5234.9391 eV
Extrapolated to 0K:               -192.3804769591 H        -5234.9391 eV
Total Mermin free energy:         -192.3804769591 H        -5234.9391 eV
Force related energy:             -192.3804769591 H        -5234.9391 eV

Volume:                              0.998173E+04 au^3   0.147914E+04 A^3
Pressure:                            0.207602E-06 au     0.610786E+07 Pa
>> Charges saved for restart in charges.bin

total energy  -1.9238048E+02 H       energy change -5.2131705E-07 H
gradient norm  5.7009247E-04 H/a0    max. gradient  1.6238686E-04 H/a0
step length    4.8942404E-03 a0      max. step      1.1726198E-03 a0

--------------------------------------------------------------------------------

***  Geometry step: 182

 iSCC Total electronic   Diff electronic      SCC error    
    1   -0.19434870E+03    0.00000000E+00    0.10390788E-03
    2   -0.19434855E+03    0.14656183E-03    0.41179068E-04
    3   -0.19434855E+03   -0.83120142E-08    0.14022777E-04
    4   -0.19434855E+03   -0.16893864E-08    0.16605574E-05
    5   -0.19434855E+03   -0.31235459E-10    0.36937308E-06
    6   -0.19434855E+03   -0.27853275E-11    0.52484222E-07
    7   -0.19434855E+03    0.28421709E-13    0.78558910E-08

Total Energy:                     -192.3804775218 H        -5234.9391 eV
Extrapolated to 0K:               -192.3804775218 H        -5234.9391 eV
Total Mermin free energy:         -192.3804775218 H        -5234.9391 eV
Force related energy:             -192.3804775218 H        -5234.9391 eV

Volume:                              0.998161E+04 au^3   0.147912E+04 A^3
Pressure:                            0.138914E-06 au     0.408698E+07 Pa
>> Charges saved for restart in charges.bin

total energy  -1.9238048E+02 H       energy change -5.6263798E-07 H
gradient norm  5.1488204E-04 H/a0    max. gradient  1.0301396E-04 H/a0
step length    6.1480668E-03 a0      max. step      1.5619405E-03 a0

--------------------------------------------------------------------------------

***  Geometry step: 183

 iSCC Total electronic   Diff electronic      SCC error    
    1   -0.19434855E+03    0.00000000E+00    0.11975704E-03
    2   -0.19434833E+03    0.22270963E-03    0.55656514E-04
    3   -0.19434833E+03   -0.12897232E-07    0.19105516E-04
    4   -0.19434833E+03   -0.24925555E-08    0.20844233E-05
    5   -0.19434833E+03   -0.34475534E-10    0.27553256E-06
    6   -0.19434833E+03   -0.38085091E-11    0.59316786E-07
    7   -0.19434833E+03   -0.85265128E-13    0.82801379E-08

Total Energy:                     -192.3804780694 H        -5234.9392 eV
Extrapolated to 0K:               -192.3804780694 H        -5234.9392 eV
Total Mermin free energy:         -192.3804780694 H        -5234.9392 eV
Force related energy:             -192.3804780694 H        -5234.9392 eV

Volume:                              0.998137E+04 au^3   0.147909E+04 A^3
Pressure:                            0.734297E-07 au     0.216038E+07 Pa
>> Charges saved for restart in charges.bin

total energy  -1.9238048E+02 H       energy change -5.4761622E-07 H
gradient norm  5.0906801E-04 H/a0    max. gradient  1.0642015E-04 H/a0
step length    8.1992100E-03 a0      max. step      1.8324136E-03 a0

--------------------------------------------------------------------------------

***  Geometry step: 184

 iSCC Total electronic   Diff electronic      SCC error    
    1   -0.19434833E+03    0.00000000E+00    0.69457777E-04
    2   -0.19434821E+03    0.11128560E-03    0.35917149E-04
    3   -0.19434821E+03   -0.31711807E-08    0.10544886E-04
    4   -0.19434821E+03   -0.67518613E-09    0.10978667E-05
    5   -0.19434821E+03   -0.20577318E-10    0.18133413E-06
    6   -0.19434821E+03   -0.12221335E-11    0.40497586E-07
    7   -0.19434821E+03    0.28421709E-13    0.57758447E-08

Total Energy:                     -192.3804784623 H        -5234.9392 eV
Extrapolated to 0K:               -192.3804784623 H        -5234.9392 eV
Total Mermin free energy:         -192.3804784623 H        -5234.9392 eV
Force related energy:             -192.3804784623 H        -5234.9392 eV

Volume:                              0.998140E+04 au^3   0.147909E+04 A^3
Pressure:                            0.309768E-07 au     0.911367E+06 Pa
>> Charges saved for restart in charges.bin

total energy  -1.9238048E+02 H       energy change -3.9286385E-07 H
gradient norm  4.5783868E-04 H/a0    max. gradient  1.0397827E-04 H/a0
step length    1.4940941E-03 a0      max. step      2.7420219E-04 a0

--------------------------------------------------------------------------------

***  Geometry step: 185

 iSCC Total electronic   Diff electronic      SCC error    
    1   -0.19434821E+03    0.00000000E+00    0.15655079E-03
    2   -0.19434814E+03    0.73665236E-04    0.82469947E-04
    3   -0.19434814E+03   -0.15400133E-07    0.24277671E-04
    4   -0.19434814E+03   -0.33541880E-08    0.22964433E-05
    5   -0.19434814E+03   -0.11942802E-09    0.50330768E-06
    6   -0.19434814E+03   -0.60822458E-11    0.90206877E-07
    7   -0.19434814E+03   -0.19895197E-12    0.13937404E-07
    8   -0.19434814E+03    0.56843419E-13    0.41003907E-08

Total Energy:                     -192.3804790896 H        -5234.9392 eV
Extrapolated to 0K:               -192.3804790896 H        -5234.9392 eV
Total Mermin free energy:         -192.3804790896 H        -5234.9392 eV
Force related energy:             -192.3804790896 H        -5234.9392 eV

Volume:                              0.998126E+04 au^3   0.147907E+04 A^3
Pressure:                            0.248357E-07 au     0.730690E+06 Pa
>> Charges saved for restart in charges.bin

total energy  -1.9238048E+02 H       energy change -6.2732255E-07 H
gradient norm  4.9160317E-04 H/a0    max. gradient  1.4697034E-04 H/a0
step length    4.7588792E-03 a0      max. step      1.1241639E-03 a0

--------------------------------------------------------------------------------

***  Geometry step: 186

 iSCC Total electronic   Diff electronic      SCC error    
    1   -0.19434814E+03    0.00000000E+00    0.14172699E-03
    2   -0.19434813E+03    0.64137711E-05    0.53008242E-04
    3   -0.19434813E+03   -0.12098099E-07    0.13775023E-04
    4   -0.19434813E+03   -0.19591084E-08    0.17017934E-05
    5   -0.19434813E+03   -0.32457592E-10    0.40748369E-06
    6   -0.19434813E+03   -0.27284841E-11    0.50636872E-07
    7   -0.19434813E+03   -0.11368684E-12    0.57087122E-08

Total Energy:                     -192.3804797533 H        -5234.9392 eV
Extrapolated to 0K:               -192.3804797533 H        -5234.9392 eV
Total Mermin free energy:         -192.3804797533 H        -5234.9392 eV
Force related energy:             -192.3804797533 H        -5234.9392 eV

Volume:                              0.998079E+04 au^3   0.147900E+04 A^3
Pressure:                            0.271821E-07 au     0.799724E+06 Pa
>> Charges saved for restart in charges.bin

total energy  -1.9238048E+02 H       energy change -6.6367747E-07 H
gradient norm  5.4564855E-04 H/a0    max. gradient  1.1223575E-04 H/a0
step length    1.6923220E-02 a0      max. step      4.0049562E-03 a0

--------------------------------------------------------------------------------

***  Geometry step: 187

 iSCC Total electronic   Diff electronic      SCC error    
    1   -0.19434813E+03    0.00000000E+00    0.10618461E-03
    2   -0.19434823E+03   -0.96512470E-04    0.60532162E-04
    3   -0.19434823E+03   -0.32129606E-08    0.81262473E-05
    4   -0.19434823E+03   -0.82590645E-09    0.13438657E-05
    5   -0.19434823E+03   -0.28450131E-10    0.40599920E-06
    6   -0.19434823E+03   -0.76738615E-12    0.31491801E-07
    7   -0.19434823E+03    0.28421709E-13    0.40343773E-08

Total Energy:                     -192.3804801416 H        -5234.9392 eV
Extrapolated to 0K:               -192.3804801416 H        -5234.9392 eV
Total Mermin free energy:         -192.3804801416 H        -5234.9392 eV
Force related energy:             -192.3804801416 H        -5234.9392 eV

Volume:                              0.998072E+04 au^3   0.147899E+04 A^3
Pressure:                            0.679018E-07 au     0.199774E+07 Pa
>> Charges saved for restart in charges.bin

total energy  -1.9238048E+02 H       energy change -3.8834639E-07 H
gradient norm  4.4432703E-04 H/a0    max. gradient  1.0556288E-04 H/a0
step length    1.3288359E-03 a0      max. step      3.0591104E-04 a0

--------------------------------------------------------------------------------

***  Geometry step: 188

 iSCC Total electronic   Diff electronic      SCC error    
    1   -0.19434823E+03    0.00000000E+00    0.18489753E-03
    2   -0.19434839E+03   -0.16046059E-03    0.10627950E-03
    3   -0.19434839E+03   -0.16649949E-07    0.20121843E-04
    4   -0.19434839E+03   -0.37564689E-08    0.21242381E-05
    5   -0.19434839E+03   -0.10504664E-09    0.98128744E-06
    6   -0.19434839E+03   -0.44053650E-11    0.80991192E-07
    7   -0.19434839E+03   -0.14210855E-12    0.11770390E-07
    8   -0.19434839E+03    0.56843419E-13    0.47029869E-08

Total Energy:                     -192.3804808207 H        -5234.9392 eV
Extrapolated to 0K:               -192.3804808207 H        -5234.9392 eV
Total Mermin free energy:         -192.3804808207 H        -5234.9392 eV
Force related energy:             -192.3804808207 H        -5234.9392 eV

Volume:                              0.998034E+04 au^3   0.147893E+04 A^3
Pressure:                            0.156376E-06 au     0.460075E+07 Pa
>> Charges saved for restart in charges.bin

total energy  -1.9238048E+02 H       energy change -6.7913976E-07 H
gradient norm  5.8149055E-04 H/a0    max. gradient  2.2153137E-04 H/a0
step length    5.5664320E-03 a0      max. step      1.3132428E-03 a0

--------------------------------------------------------------------------------

***  Geometry step: 189

 iSCC Total electronic   Diff electronic      SCC error    
    1   -0.19434839E+03    0.00000000E+00    0.78258583E-04
    2   -0.19434839E+03    0.44714231E-05    0.45614759E-04
    3   -0.19434839E+03   -0.37256029E-08    0.11048965E-04
    4   -0.19434839E+03   -0.81374196E-09    0.10292147E-05
    5   -0.19434839E+03   -0.17593038E-10    0.46563756E-06
    6   -0.19434839E+03   -0.65369932E-12    0.55418729E-07
    7   -0.19434839E+03   -0.28421709E-13    0.53022635E-08

Total Energy:                     -192.3804813094 H        -5234.9392 eV
Extrapolated to 0K:               -192.3804813094 H        -5234.9392 eV
Total Mermin free energy:         -192.3804813094 H        -5234.9392 eV
Force related energy:             -192.3804813094 H        -5234.9392 eV

Volume:                              0.997990E+04 au^3   0.147887E+04 A^3
Pressure:                            0.160339E-06 au     0.471732E+07 Pa
>> Charges saved for restart in charges.bin

total energy  -1.9238048E+02 H       energy change -4.8869487E-07 H
gradient norm  5.4391721E-04 H/a0    max. gradient  1.5669809E-04 H/a0
step length    6.1326508E-03 a0      max. step      1.1839529E-03 a0

--------------------------------------------------------------------------------

***  Geometry step: 190

 iSCC Total electronic   Diff electronic      SCC error    
    1   -0.19434839E+03    0.00000000E+00    0.10016055E-03
    2   -0.19434828E+03    0.10938842E-03    0.37533620E-04
    3   -0.19434828E+03   -0.10146493E-07    0.14299085E-04
    4   -0.19434828E+03   -0.20134507E-08    0.21592298E-05
    5   -0.19434828E+03   -0.30183855E-10    0.27984486E-06
    6   -0.19434828E+03   -0.31548097E-11    0.58217301E-07
    7   -0.19434828E+03   -0.56843419E-13    0.74994020E-08

Total Energy:                     -192.3804820115 H        -5234.9393 eV
Extrapolated to 0K:               -192.3804820115 H        -5234.9393 eV
Total Mermin free energy:         -192.3804820115 H        -5234.9393 eV
Force related energy:             -192.3804820115 H        -5234.9393 eV

Volume:                              0.997916E+04 au^3   0.147876E+04 A^3
Pressure:                            0.144767E-06 au     0.425919E+07 Pa
>> Charges saved for restart in charges.bin

total energy  -1.9238048E+02 H       energy change -7.0202756E-07 H
gradient norm  5.4831397E-04 H/a0    max. gradient  1.1806911E-04 H/a0
step length    1.1966490E-02 a0      max. step      2.1656503E-03 a0

--------------------------------------------------------------------------------

***  Geometry step: 191

 iSCC Total electronic   Diff electronic      SCC error    
    1   -0.19434828E+03    0.00000000E+00    0.83655883E-04
    2   -0.19434827E+03    0.72034519E-05    0.52558510E-04
    3   -0.19434827E+03   -0.50684434E-08    0.14850171E-04
    4   -0.19434827E+03   -0.11998509E-08    0.12886743E-05
    5   -0.19434827E+03   -0.33566039E-10    0.42740863E-06
    6   -0.19434827E+03   -0.15916157E-11    0.42387884E-07
    7   -0.19434827E+03   -0.11368684E-12    0.50469118E-08

Total Energy:                     -192.3804824349 H        -5234.9393 eV
Extrapolated to 0K:               -192.3804824349 H        -5234.9393 eV
Total Mermin free energy:         -192.3804824349 H        -5234.9393 eV
Force related energy:             -192.3804824349 H        -5234.9393 eV

Volume:                              0.997911E+04 au^3   0.147875E+04 A^3
Pressure:                            0.146978E-06 au     0.432425E+07 Pa
>> Charges saved for restart in charges.bin

total energy  -1.9238048E+02 H       energy change -4.2347150E-07 H
gradient norm  4.4655307E-04 H/a0    max. gradient  9.2173899E-05 H/a0
step length    1.5172094E-03 a0      max. step      3.1957915E-04 a0

Geometry converged

--------------------------------------------------------------------------------
DFTB+ running times                          cpu [s]             wall clock [s]
--------------------------------------------------------------------------------
Pre-SCC initialisation                 +       7.01 (  0.3%)       3.20 (  0.9%)
SCC                                    +    2549.06 ( 92.0%)     334.73 ( 89.8%)
Post-SCC processing                    +     215.59 (  7.8%)      34.88 (  9.4%)
--------------------------------------------------------------------------------
Missing                                +       0.21 (  0.0%)       0.02 (  0.0%)
Total                                  =    2771.87 (100.0%)     372.83 (100.0%)
--------------------------------------------------------------------------------
