|===============================================================================
|
|  DFTB+ release 24.1
|
|  Copyright (C) 2006 - 2024  DFTB+ developers group
|
|===============================================================================
|
|  When publishing results obtained with DFTB+, please cite the following
|  reference:
|
|  * DFTB+, a software package for efficient approximate density functional
|    theory based atomistic simulations, J. Chem. Phys. 152, 124101 (2020).
|    [doi: 10.1063/1.5143190]
|
|  You should also cite additional publications crediting the parametrization
|  data you use. Please consult the documentation of the SK-files for the
|  references.
|
|===============================================================================

Reading input file 'dftb_in.hsd'
Parser version: 14

--------------------------------------------------------------------------------
Reading SK-files:
./SKFiles/Ge-Ge.skf
./SKFiles/Ge-Si.skf
./SKFiles/Ge-O.skf
./SKFiles/Si-Si.skf
./SKFiles/Si-O.skf
./SKFiles/O-O.skf
Done.


Processed input in HSD format written to 'dftb_pin.hsd'

Starting initialization...
--------------------------------------------------------------------------------
WARNING!
-> Dipole printed for extended system : value printed is not well defined
MPI processes:               1
OpenMP threads:              8
BLACS orbital grid size:     1 x 1
BLACS atom grid size:        1 x 1
Chosen random seed:          140600047
Current stacksize:           unlimited
Mode:                        Static calculation
Self consistent charges:     Yes
SCC-tolerance:                 0.100000E-07
Max. scc iterations:                    500
Shell resolved Hubbard:      No
Spin polarisation:           No
Nr. of up electrons:           192.000000
Nr. of down electrons:         192.000000
Periodic boundaries:         Yes
Electronic solver:           Relatively robust
Mixer:                       Broyden mixer
Mixing parameter:                  0.200000
Maximal SCC-cycles:                     500
Nr. of chrg. vec. in memory:            500
Electronic temperature:              0.100000E-07 H      0.272114E-06 eV
Initial charges:             Set automatically (system chrg:   0.000E+00)
Included shells:            Ge:  s, p, d
                            Si:  s, p, d
                             O:  s, p
K-points and weights:           1:  0.500000  0.500000  0.500000     1.000000

K-points in absolute space:     1:  0.025319  0.017606  0.037774

Extra options:
                             Mulliken analysis
Force type                   original

--------------------------------------------------------------------------------

***  Geometry step: 0

 iSCC Total electronic   Diff electronic      SCC error    
    1    0.00000000E+00    0.00000000E+00    0.14597509E+01
    2   -0.19480596E+03   -0.19480596E+03    0.99397306E+00
    3   -0.19517185E+03   -0.36588867E+00    0.38159488E-01
    4   -0.19548764E+03   -0.31579692E+00    0.27473683E-01
    5   -0.19548954E+03   -0.18955752E-02    0.38139589E-02
    6   -0.19548968E+03   -0.13573970E-03    0.16897268E-02
    7   -0.19548968E+03   -0.29325937E-05    0.37310372E-03
    8   -0.19548968E+03   -0.10354114E-05    0.46323731E-04
    9   -0.19548968E+03   -0.50176567E-07    0.26358387E-04
   10   -0.19548968E+03   -0.65028871E-10    0.74831752E-06
   11   -0.19548968E+03   -0.14492230E-09    0.16179295E-06
   12   -0.19548968E+03   -0.12505552E-11    0.14710670E-06
   13   -0.19548968E+03   -0.56843419E-13    0.91249528E-08

Total Energy:                     -191.8776876332 H        -5221.2575 eV
Extrapolated to 0K:               -191.8776876332 H        -5221.2575 eV
Total Mermin free energy:         -191.8776876332 H        -5221.2575 eV
Force related energy:             -191.8776876332 H        -5221.2575 eV

Volume:                              0.913789E+04 au^3   0.135410E+04 A^3
Pressure:                            0.717297E-03 au     0.211036E+11 Pa
>> Charges saved for restart in charges.bin

total energy  -1.9187769E+02 H       energy change -1.9187769E+02 H
gradient norm  1.0879593E+00 H/a0    max. gradient  6.8323413E-01 H/a0
step length    0.0000000E+00 a0      max. step      0.0000000E+00 a0

--------------------------------------------------------------------------------

***  Geometry step: 1

 iSCC Total electronic   Diff electronic      SCC error    
    1   -0.19548968E+03    0.00000000E+00    0.12808619E+00
    2   -0.19505340E+03    0.43628286E+00    0.59541460E-01
    3   -0.19506371E+03   -0.10308477E-01    0.18598101E-01
    4   -0.19506574E+03   -0.20386421E-02    0.12431347E-02
    5   -0.19506578E+03   -0.32625280E-04    0.60476386E-03
    6   -0.19506578E+03   -0.13175574E-05    0.15970206E-03
    7   -0.19506578E+03   -0.55807277E-07    0.21207051E-04
    8   -0.19506578E+03   -0.68503425E-08    0.42822149E-05
    9   -0.19506578E+03   -0.36709480E-09    0.11079167E-05
   10   -0.19506578E+03   -0.68496320E-11    0.35951650E-06
   11   -0.19506578E+03   -0.85265128E-13    0.62934525E-07
   12   -0.19506578E+03   -0.14210855E-12    0.11467061E-07
   13   -0.19506578E+03    0.56843419E-13    0.11135328E-08

Total Energy:                     -192.0083438349 H        -5224.8129 eV
Extrapolated to 0K:               -192.0083438349 H        -5224.8129 eV
Total Mermin free energy:         -192.0083438349 H        -5224.8129 eV
Force related energy:             -192.0083438349 H        -5224.8129 eV

Volume:                              0.954746E+04 au^3   0.141479E+04 A^3
Pressure:                            0.439232E-03 au     0.129226E+11 Pa
>> Charges saved for restart in charges.bin

total energy  -1.9200834E+02 H       energy change -1.3065620E-01 H
gradient norm  7.1317711E-01 H/a0    max. gradient  2.4414953E-01 H/a0
step length    6.4097390E-01 a0      max. step      4.0252907E-01 a0

--------------------------------------------------------------------------------

***  Geometry step: 2

 iSCC Total electronic   Diff electronic      SCC error    
    1   -0.19506578E+03    0.00000000E+00    0.63136929E-01
    2   -0.19501806E+03    0.47717167E-01    0.25162543E-01
    3   -0.19502137E+03   -0.33091287E-02    0.41887896E-02
    4   -0.19502206E+03   -0.69431047E-03    0.99618482E-03
    5   -0.19502207E+03   -0.79555722E-05    0.21436673E-03
    6   -0.19502207E+03   -0.38285501E-06    0.67694413E-04
    7   -0.19502207E+03   -0.37386314E-07    0.17543514E-04
    8   -0.19502207E+03   -0.30988474E-08    0.15878776E-05
    9   -0.19502207E+03   -0.45048409E-10    0.31106410E-06
   10   -0.19502207E+03   -0.28137492E-11    0.16332445E-06
   11   -0.19502207E+03   -0.14210855E-12    0.33431500E-07
   12   -0.19502207E+03    0.56843419E-13    0.41495052E-08

Total Energy:                     -192.1734562877 H        -5229.3058 eV
Extrapolated to 0K:               -192.1734562877 H        -5229.3058 eV
Total Mermin free energy:         -192.1734562877 H        -5229.3058 eV
Force related energy:             -192.1734562877 H        -5229.3058 eV

Volume:                              0.952555E+04 au^3   0.141154E+04 A^3
Pressure:                            0.370235E-03 au     0.108927E+11 Pa
>> Charges saved for restart in charges.bin

total energy  -1.9217346E+02 H       energy change -1.6511245E-01 H
gradient norm  3.5203519E-01 H/a0    max. gradient  9.1942920E-02 H/a0
step length    3.6869582E-01 a0      max. step      1.0624001E-01 a0

--------------------------------------------------------------------------------

***  Geometry step: 3

 iSCC Total electronic   Diff electronic      SCC error    
    1   -0.19502207E+03    0.00000000E+00    0.60231901E-01
    2   -0.19492199E+03    0.10008322E+00    0.23956982E-01
    3   -0.19492453E+03   -0.25418527E-02    0.54671174E-02
    4   -0.19492505E+03   -0.52353293E-03    0.83357175E-03
    5   -0.19492506E+03   -0.47875857E-05    0.15962279E-03
    6   -0.19492506E+03   -0.47583279E-06    0.55284207E-04
    7   -0.19492506E+03   -0.15362758E-07    0.10478431E-04
    8   -0.19492506E+03   -0.17245725E-08    0.18233531E-05
    9   -0.19492506E+03   -0.29245939E-10    0.41597884E-06
   10   -0.19492506E+03   -0.17053026E-11    0.10501223E-06
   11   -0.19492506E+03   -0.14210855E-12    0.21102513E-07
   12   -0.19492506E+03    0.14210855E-12    0.22148416E-08

Total Energy:                     -192.2522145205 H        -5231.4489 eV
Extrapolated to 0K:               -192.2522145205 H        -5231.4489 eV
Total Mermin free energy:         -192.2522145205 H        -5231.4489 eV
Force related energy:             -192.2522145205 H        -5231.4489 eV

Volume:                              0.952603E+04 au^3   0.141161E+04 A^3
Pressure:                            0.310984E-03 au     0.914947E+10 Pa
>> Charges saved for restart in charges.bin

total energy  -1.9225221E+02 H       energy change -7.8758233E-02 H
gradient norm  2.8152574E-01 H/a0    max. gradient  1.7630991E-01 H/a0
step length    4.3386051E-01 a0      max. step      9.7808225E-02 a0

--------------------------------------------------------------------------------

***  Geometry step: 4

 iSCC Total electronic   Diff electronic      SCC error    
    1   -0.19492506E+03    0.00000000E+00    0.43634665E-01
    2   -0.19473649E+03    0.18857392E+00    0.19628539E-01
    3   -0.19473766E+03   -0.11719397E-02    0.32351450E-02
    4   -0.19473792E+03   -0.26091310E-03    0.69584858E-03
    5   -0.19473792E+03   -0.28416677E-05    0.89329701E-04
    6   -0.19473792E+03   -0.31222069E-06    0.30883206E-04
    7   -0.19473792E+03   -0.59641820E-08    0.87604457E-05
    8   -0.19473792E+03   -0.90022922E-09    0.12922136E-05
    9   -0.19473792E+03   -0.19014124E-10    0.26613851E-06
   10   -0.19473792E+03   -0.11652901E-11    0.66769679E-07
   11   -0.19473792E+03   -0.56843419E-13    0.12835771E-07
   12   -0.19473792E+03    0.11368684E-12    0.25172198E-08

Total Energy:                     -192.2835506865 H        -5232.3016 eV
Extrapolated to 0K:               -192.2835506865 H        -5232.3016 eV
Total Mermin free energy:         -192.2835506865 H        -5232.3016 eV
Force related energy:             -192.2835506865 H        -5232.3016 eV

Volume:                              0.963010E+04 au^3   0.142703E+04 A^3
Pressure:                            0.222454E-03 au     0.654482E+10 Pa
>> Charges saved for restart in charges.bin

total energy  -1.9228355E+02 H       energy change -3.1336166E-02 H
gradient norm  3.0677918E-01 H/a0    max. gradient  1.7651372E-01 H/a0
step length    3.4606869E-01 a0      max. step      1.1846289E-01 a0

--------------------------------------------------------------------------------

***  Geometry step: 5

 iSCC Total electronic   Diff electronic      SCC error    
    1   -0.19473792E+03    0.00000000E+00    0.43092976E-01
    2   -0.19450653E+03    0.23138796E+00    0.16730099E-01
    3   -0.19450748E+03   -0.94616302E-03    0.39335704E-02
    4   -0.19450768E+03   -0.20004904E-03    0.42939703E-03
    5   -0.19450768E+03   -0.34045939E-05    0.11615489E-03
    6   -0.19450768E+03   -0.22852652E-06    0.72361262E-04
    7   -0.19450768E+03   -0.40899977E-08    0.59329132E-05
    8   -0.19450768E+03   -0.54905058E-09    0.14239340E-05
    9   -0.19450768E+03   -0.28677505E-10    0.21316835E-06
   10   -0.19450768E+03   -0.51159077E-12    0.30558222E-07
   11   -0.19450768E+03   -0.28421709E-13    0.11093063E-07
   12   -0.19450768E+03   -0.28421709E-13    0.40247827E-08

Total Energy:                     -192.3190443363 H        -5233.2675 eV
Extrapolated to 0K:               -192.3190443363 H        -5233.2675 eV
Total Mermin free energy:         -192.3190443363 H        -5233.2675 eV
Force related energy:             -192.3190443363 H        -5233.2675 eV

Volume:                              0.976552E+04 au^3   0.144710E+04 A^3
Pressure:                            0.116389E-03 au     0.342428E+10 Pa
>> Charges saved for restart in charges.bin

total energy  -1.9231904E+02 H       energy change -3.5493650E-02 H
gradient norm  1.3648764E-01 H/a0    max. gradient  4.4909254E-02 H/a0
step length    4.0144101E-01 a0      max. step      1.3276353E-01 a0

--------------------------------------------------------------------------------

***  Geometry step: 6

 iSCC Total electronic   Diff electronic      SCC error    
    1   -0.19450768E+03    0.00000000E+00    0.21652695E-01
    2   -0.19442672E+03    0.80963175E-01    0.99392471E-02
    3   -0.19442711E+03   -0.38813440E-03    0.19181278E-02
    4   -0.19442719E+03   -0.79853853E-04    0.52305618E-03
    5   -0.19442719E+03   -0.11166509E-05    0.93981977E-04
    6   -0.19442719E+03   -0.91466518E-07    0.24115776E-04
    7   -0.19442719E+03   -0.26562077E-08    0.61254916E-05
    8   -0.19442719E+03   -0.17271873E-09    0.75110617E-06
    9   -0.19442719E+03   -0.98339115E-11    0.17289726E-06
   10   -0.19442719E+03   -0.34106051E-12    0.27775650E-07
   11   -0.19442719E+03    0.00000000E+00    0.58045648E-08

Total Energy:                     -192.3329205410 H        -5233.6451 eV
Extrapolated to 0K:               -192.3329205410 H        -5233.6451 eV
Total Mermin free energy:         -192.3329205410 H        -5233.6451 eV
Force related energy:             -192.3329205410 H        -5233.6451 eV

Volume:                              0.979759E+04 au^3   0.145185E+04 A^3
Pressure:                            0.775335E-04 au     0.228111E+10 Pa
>> Charges saved for restart in charges.bin

total energy  -1.9233292E+02 H       energy change -1.3876205E-02 H
gradient norm  9.2095465E-02 H/a0    max. gradient  2.8764363E-02 H/a0
step length    2.5033638E-01 a0      max. step      4.4718769E-02 a0

--------------------------------------------------------------------------------

***  Geometry step: 7

 iSCC Total electronic   Diff electronic      SCC error    
    1   -0.19442719E+03    0.00000000E+00    0.11878255E-01
    2   -0.19438683E+03    0.40356852E-01    0.54119530E-02
    3   -0.19438699E+03   -0.15809304E-03    0.16225066E-02
    4   -0.19438703E+03   -0.40861842E-04    0.24673566E-03
    5   -0.19438703E+03   -0.27485291E-06    0.25930499E-04
    6   -0.19438703E+03   -0.23624693E-07    0.15241052E-04
    7   -0.19438703E+03   -0.33901415E-09    0.31572677E-05
    8   -0.19438703E+03   -0.43911541E-10    0.47328965E-06
    9   -0.19438703E+03   -0.16768809E-11    0.11014038E-06
   10   -0.19438703E+03    0.85265128E-13    0.15187886E-07
   11   -0.19438703E+03   -0.22737368E-12    0.26792728E-08

Total Energy:                     -192.3417305020 H        -5233.8848 eV
Extrapolated to 0K:               -192.3417305020 H        -5233.8848 eV
Total Mermin free energy:         -192.3417305020 H        -5233.8848 eV
Force related energy:             -192.3417305020 H        -5233.8848 eV

Volume:                              0.981134E+04 au^3   0.145389E+04 A^3
Pressure:                            0.574018E-04 au     0.168882E+10 Pa
>> Charges saved for restart in charges.bin

total energy  -1.9234173E+02 H       energy change -8.8099610E-03 H
gradient norm  6.9338278E-02 H/a0    max. gradient  1.5286884E-02 H/a0
step length    1.9169041E-01 a0      max. step      4.0897503E-02 a0

--------------------------------------------------------------------------------

***  Geometry step: 8

 iSCC Total electronic   Diff electronic      SCC error    
    1   -0.19438703E+03    0.00000000E+00    0.13962689E-01
    2   -0.19435687E+03    0.30162073E-01    0.92213853E-02
    3   -0.19435703E+03   -0.16168088E-03    0.30553733E-02
    4   -0.19435707E+03   -0.39545293E-04    0.23784204E-03
    5   -0.19435707E+03   -0.80873957E-06    0.37365186E-04
    6   -0.19435707E+03   -0.65958545E-07    0.14744514E-04
    7   -0.19435707E+03   -0.15819808E-08    0.42746863E-05
    8   -0.19435707E+03   -0.93706376E-10    0.51984874E-06
    9   -0.19435707E+03   -0.42916781E-11    0.13052740E-06
   10   -0.19435707E+03   -0.19895197E-12    0.17377858E-07
   11   -0.19435707E+03   -0.85265128E-13    0.27077256E-08

Total Energy:                     -192.3505189511 H        -5234.1239 eV
Extrapolated to 0K:               -192.3505189511 H        -5234.1239 eV
Total Mermin free energy:         -192.3505189511 H        -5234.1239 eV
Force related energy:             -192.3505189511 H        -5234.1239 eV

Volume:                              0.982231E+04 au^3   0.145552E+04 A^3
Pressure:                            0.414432E-04 au     0.121930E+10 Pa
>> Charges saved for restart in charges.bin

total energy  -1.9235052E+02 H       energy change -8.7884491E-03 H
gradient norm  5.7651090E-02 H/a0    max. gradient  1.3657767E-02 H/a0
step length    2.6955891E-01 a0      max. step      5.7996551E-02 a0

--------------------------------------------------------------------------------

***  Geometry step: 9

 iSCC Total electronic   Diff electronic      SCC error    
    1   -0.19435707E+03    0.00000000E+00    0.83732470E-02
    2   -0.19435321E+03    0.38663642E-02    0.51834178E-02
    3   -0.19435326E+03   -0.57289729E-04    0.12283056E-02
    4   -0.19435328E+03   -0.15630357E-04    0.15275558E-03
    5   -0.19435328E+03   -0.42370471E-06    0.27393838E-04
    6   -0.19435328E+03   -0.27137332E-07    0.80972934E-05
    7   -0.19435328E+03   -0.89406171E-09    0.26794348E-05
    8   -0.19435328E+03   -0.47833737E-10    0.36687632E-06
    9   -0.19435328E+03   -0.15347723E-11    0.49395760E-07
   10   -0.19435328E+03   -0.11368684E-12    0.89712380E-08

Total Energy:                     -192.3542361677 H        -5234.2251 eV
Extrapolated to 0K:               -192.3542361677 H        -5234.2251 eV
Total Mermin free energy:         -192.3542361677 H        -5234.2251 eV
Force related energy:             -192.3542361677 H        -5234.2251 eV

Volume:                              0.982116E+04 au^3   0.145535E+04 A^3
Pressure:                            0.384554E-04 au     0.113140E+10 Pa
>> Charges saved for restart in charges.bin

total energy  -1.9235424E+02 H       energy change -3.7172167E-03 H
gradient norm  4.3436975E-02 H/a0    max. gradient  1.2137840E-02 H/a0
step length    1.7021358E-01 a0      max. step      3.3587695E-02 a0

--------------------------------------------------------------------------------

***  Geometry step: 10

 iSCC Total electronic   Diff electronic      SCC error    
    1   -0.19435328E+03    0.00000000E+00    0.62993746E-02
    2   -0.19435196E+03    0.13187812E-02    0.31104617E-02
    3   -0.19435200E+03   -0.43278602E-04    0.88855091E-03
    4   -0.19435201E+03   -0.10502518E-04    0.97289662E-04
    5   -0.19435201E+03   -0.31567345E-06    0.29029910E-04
    6   -0.19435201E+03   -0.24535524E-07    0.55806750E-05
    7   -0.19435201E+03   -0.10308270E-08    0.15219327E-05
    8   -0.19435201E+03   -0.41012527E-10    0.32094896E-06
    9   -0.19435201E+03   -0.19610980E-11    0.58692620E-07
   10   -0.19435201E+03   -0.22737368E-12    0.12728042E-07
   11   -0.19435201E+03    0.11368684E-12    0.18385014E-08

Total Energy:                     -192.3569217902 H        -5234.2982 eV
Extrapolated to 0K:               -192.3569217902 H        -5234.2982 eV
Total Mermin free energy:         -192.3569217902 H        -5234.2982 eV
Force related energy:             -192.3569217902 H        -5234.2982 eV

Volume:                              0.982396E+04 au^3   0.145576E+04 A^3
Pressure:                            0.361700E-04 au     0.106416E+10 Pa
>> Charges saved for restart in charges.bin

total energy  -1.9235692E+02 H       energy change -2.6856225E-03 H
gradient norm  3.6537675E-02 H/a0    max. gradient  1.0496606E-02 H/a0
step length    1.5388683E-01 a0      max. step      2.7333612E-02 a0

--------------------------------------------------------------------------------

***  Geometry step: 11

 iSCC Total electronic   Diff electronic      SCC error    
    1   -0.19435201E+03    0.00000000E+00    0.60850413E-02
    2   -0.19434906E+03    0.29503454E-02    0.30475959E-02
    3   -0.19434911E+03   -0.41985020E-04    0.96268939E-03
    4   -0.19434912E+03   -0.97143482E-05    0.95289256E-04
    5   -0.19434912E+03   -0.26562898E-06    0.29018494E-04
    6   -0.19434912E+03   -0.16870018E-07    0.98856269E-05
    7   -0.19434912E+03   -0.62058803E-09    0.32235212E-05
    8   -0.19434912E+03   -0.27654323E-10    0.20644403E-06
    9   -0.19434912E+03   -0.15347723E-11    0.65693256E-07
   10   -0.19434912E+03   -0.14210855E-12    0.13462472E-07
   11   -0.19434912E+03    0.56843419E-13    0.19617943E-08

Total Energy:                     -192.3591074161 H        -5234.3576 eV
Extrapolated to 0K:               -192.3591074161 H        -5234.3576 eV
Total Mermin free energy:         -192.3591074161 H        -5234.3576 eV
Force related energy:             -192.3591074161 H        -5234.3576 eV

Volume:                              0.983298E+04 au^3   0.145710E+04 A^3
Pressure:                            0.318724E-04 au     0.937719E+09 Pa
>> Charges saved for restart in charges.bin

total energy  -1.9235911E+02 H       energy change -2.1856259E-03 H
gradient norm  3.4371202E-02 H/a0    max. gradient  8.7763610E-03 H/a0
step length    1.3863357E-01 a0      max. step      2.8412394E-02 a0

--------------------------------------------------------------------------------

***  Geometry step: 12

 iSCC Total electronic   Diff electronic      SCC error    
    1   -0.19434912E+03    0.00000000E+00    0.77916502E-02
    2   -0.19434833E+03    0.78982660E-03    0.44058248E-02
    3   -0.19434837E+03   -0.38838435E-04    0.87215931E-03
    4   -0.19434837E+03   -0.95058891E-05    0.10674709E-03
    5   -0.19434838E+03   -0.27868370E-06    0.34778801E-04
    6   -0.19434838E+03   -0.12565152E-07    0.13729525E-04
    7   -0.19434838E+03   -0.11189627E-09    0.14325821E-05
    8   -0.19434838E+03   -0.20975222E-10    0.23241739E-06
    9   -0.19434838E+03   -0.96633812E-12    0.71194045E-07
   10   -0.19434838E+03   -0.28421709E-13    0.52916658E-08

Total Energy:                     -192.3611111108 H        -5234.4122 eV
Extrapolated to 0K:               -192.3611111108 H        -5234.4122 eV
Total Mermin free energy:         -192.3611111108 H        -5234.4122 eV
Force related energy:             -192.3611111108 H        -5234.4122 eV

Volume:                              0.984574E+04 au^3   0.145899E+04 A^3
Pressure:                            0.294895E-04 au     0.867609E+09 Pa
>> Charges saved for restart in charges.bin

total energy  -1.9236111E+02 H       energy change -2.0036947E-03 H
gradient norm  3.3368364E-02 H/a0    max. gradient  9.7522791E-03 H/a0
step length    1.4038520E-01 a0      max. step      3.2124380E-02 a0

--------------------------------------------------------------------------------

***  Geometry step: 13

 iSCC Total electronic   Diff electronic      SCC error    
    1   -0.19434838E+03    0.00000000E+00    0.61842156E-02
    2   -0.19434057E+03    0.78092428E-02    0.36463205E-02
    3   -0.19434059E+03   -0.28412510E-04    0.92373107E-03
    4   -0.19434060E+03   -0.65232778E-05    0.12393442E-03
    5   -0.19434060E+03   -0.26016747E-06    0.42281752E-04
    6   -0.19434060E+03   -0.99700230E-08    0.11755811E-04
    7   -0.19434060E+03   -0.18505375E-09    0.14823617E-05
    8   -0.19434060E+03   -0.14551915E-10    0.30281694E-06
    9   -0.19434060E+03   -0.21316282E-11    0.82924939E-07
   10   -0.19434060E+03   -0.85265128E-13    0.82341796E-08

Total Energy:                     -192.3628873235 H        -5234.4605 eV
Extrapolated to 0K:               -192.3628873235 H        -5234.4605 eV
Total Mermin free energy:         -192.3628873235 H        -5234.4605 eV
Force related energy:             -192.3628873235 H        -5234.4605 eV

Volume:                              0.986665E+04 au^3   0.146209E+04 A^3
Pressure:                            0.247566E-04 au     0.728363E+09 Pa
>> Charges saved for restart in charges.bin

total energy  -1.9236289E+02 H       energy change -1.7762127E-03 H
gradient norm  3.0384533E-02 H/a0    max. gradient  1.0006093E-02 H/a0
step length    1.4919960E-01 a0      max. step      3.1244900E-02 a0

--------------------------------------------------------------------------------

***  Geometry step: 14

 iSCC Total electronic   Diff electronic      SCC error    
    1   -0.19434060E+03    0.00000000E+00    0.58128741E-02
    2   -0.19433393E+03    0.66708525E-02    0.29257291E-02
    3   -0.19433397E+03   -0.34843330E-04    0.88175858E-03
    4   -0.19433397E+03   -0.73779695E-05    0.12443922E-03
    5   -0.19433397E+03   -0.19599432E-06    0.30934859E-04
    6   -0.19433397E+03   -0.17253541E-07    0.94362412E-05
    7   -0.19433397E+03   -0.48123638E-09    0.25111308E-05
    8   -0.19433397E+03   -0.14807711E-10    0.25444477E-06
    9   -0.19433397E+03   -0.16484591E-11    0.45536208E-07
   10   -0.19433397E+03    0.00000000E+00    0.63667160E-08

Total Energy:                     -192.3642703877 H        -5234.4981 eV
Extrapolated to 0K:               -192.3642703877 H        -5234.4981 eV
Total Mermin free energy:         -192.3642703877 H        -5234.4981 eV
Force related energy:             -192.3642703877 H        -5234.4981 eV

Volume:                              0.988666E+04 au^3   0.146505E+04 A^3
Pressure:                            0.198707E-04 au     0.584617E+09 Pa
>> Charges saved for restart in charges.bin

total energy  -1.9236427E+02 H       energy change -1.3830643E-03 H
gradient norm  2.7558648E-02 H/a0    max. gradient  7.9496110E-03 H/a0
step length    1.3984683E-01 a0      max. step      2.8564571E-02 a0

--------------------------------------------------------------------------------

***  Geometry step: 15

 iSCC Total electronic   Diff electronic      SCC error    
    1   -0.19433397E+03    0.00000000E+00    0.42159471E-02
    2   -0.19433021E+03    0.37617679E-02    0.20244719E-02
    3   -0.19433024E+03   -0.25635446E-04    0.66770338E-03
    4   -0.19433024E+03   -0.54352093E-05    0.97218946E-04
    5   -0.19433024E+03   -0.10881902E-06    0.15630283E-04
    6   -0.19433024E+03   -0.10937555E-07    0.38446859E-05
    7   -0.19433024E+03   -0.49732307E-09    0.13408868E-05
    8   -0.19433024E+03   -0.20747848E-10    0.26793783E-06
    9   -0.19433024E+03   -0.82422957E-12    0.38975732E-07
   10   -0.19433024E+03    0.00000000E+00    0.83160105E-08

Total Energy:                     -192.3654024292 H        -5234.5289 eV
Extrapolated to 0K:               -192.3654024292 H        -5234.5289 eV
Total Mermin free energy:         -192.3654024292 H        -5234.5289 eV
Force related energy:             -192.3654024292 H        -5234.5289 eV

Volume:                              0.990380E+04 au^3   0.146759E+04 A^3
Pressure:                            0.164416E-04 au     0.483728E+09 Pa
>> Charges saved for restart in charges.bin

total energy  -1.9236540E+02 H       energy change -1.1320414E-03 H
gradient norm  2.5178070E-02 H/a0    max. gradient  5.0142877E-03 H/a0
step length    1.1761472E-01 a0      max. step      2.4563292E-02 a0

--------------------------------------------------------------------------------

***  Geometry step: 16

 iSCC Total electronic   Diff electronic      SCC error    
    1   -0.19433024E+03    0.00000000E+00    0.50549595E-02
    2   -0.19433280E+03   -0.25624193E-02    0.27471916E-02
    3   -0.19433284E+03   -0.30875488E-04    0.63588878E-03
    4   -0.19433284E+03   -0.60471540E-05    0.12083460E-03
    5   -0.19433284E+03   -0.11867724E-06    0.30239122E-04
    6   -0.19433284E+03   -0.13163458E-07    0.90054713E-05
    7   -0.19433284E+03   -0.41868020E-09    0.24777840E-05
    8   -0.19433284E+03   -0.13386625E-10    0.31367747E-06
    9   -0.19433284E+03   -0.96633812E-12    0.60519521E-07
   10   -0.19433284E+03   -0.19895197E-12    0.11302655E-07
   11   -0.19433284E+03    0.00000000E+00    0.90074925E-09

Total Energy:                     -192.3663951035 H        -5234.5559 eV
Extrapolated to 0K:               -192.3663951035 H        -5234.5559 eV
Total Mermin free energy:         -192.3663951035 H        -5234.5559 eV
Force related energy:             -192.3663951035 H        -5234.5559 eV

Volume:                              0.991665E+04 au^3   0.146950E+04 A^3
Pressure:                            0.158564E-04 au     0.466510E+09 Pa
>> Charges saved for restart in charges.bin

total energy  -1.9236640E+02 H       energy change -9.9267434E-04 H
gradient norm  2.3686352E-02 H/a0    max. gradient  5.1413725E-03 H/a0
step length    1.1963194E-01 a0      max. step      2.2943157E-02 a0

--------------------------------------------------------------------------------

***  Geometry step: 17

 iSCC Total electronic   Diff electronic      SCC error    
    1   -0.19433284E+03    0.00000000E+00    0.46314825E-02
    2   -0.19433399E+03   -0.11508547E-02    0.25907974E-02
    3   -0.19433400E+03   -0.93972784E-05    0.48189446E-03
    4   -0.19433400E+03   -0.22098138E-05    0.65843585E-04
    5   -0.19433400E+03   -0.48262621E-07    0.19245903E-04
    6   -0.19433400E+03   -0.44352078E-08    0.51457666E-05
    7   -0.19433400E+03   -0.10177814E-09    0.14865299E-05
    8   -0.19433400E+03   -0.29558578E-11    0.22389191E-06
    9   -0.19433400E+03   -0.39790393E-12    0.47177638E-07
   10   -0.19433400E+03   -0.56843419E-13    0.63573293E-08

Total Energy:                     -192.3671355978 H        -5234.5761 eV
Extrapolated to 0K:               -192.3671355978 H        -5234.5761 eV
Total Mermin free energy:         -192.3671355978 H        -5234.5761 eV
Force related energy:             -192.3671355978 H        -5234.5761 eV

Volume:                              0.992687E+04 au^3   0.147101E+04 A^3
Pressure:                            0.152511E-04 au     0.448703E+09 Pa
>> Charges saved for restart in charges.bin

total energy  -1.9236714E+02 H       energy change -7.4049427E-04 H
gradient norm  2.2383567E-02 H/a0    max. gradient  4.8824831E-03 H/a0
step length    8.8820340E-02 a0      max. step      1.6457915E-02 a0

--------------------------------------------------------------------------------

***  Geometry step: 18

 iSCC Total electronic   Diff electronic      SCC error    
    1   -0.19433400E+03    0.00000000E+00    0.36324197E-02
    2   -0.19433583E+03   -0.18288678E-02    0.20878769E-02
    3   -0.19433585E+03   -0.13084985E-04    0.61043850E-03
    4   -0.19433585E+03   -0.28736108E-05    0.87375582E-04
    5   -0.19433585E+03   -0.67926720E-07    0.19162715E-04
    6   -0.19433585E+03   -0.72245996E-08    0.55211308E-05
    7   -0.19433585E+03   -0.11894485E-09    0.16753225E-05
    8   -0.19433585E+03   -0.30979663E-11    0.27806182E-06
    9   -0.19433585E+03   -0.65369932E-12    0.57049311E-07
   10   -0.19433585E+03   -0.56843419E-13    0.70550881E-08

Total Energy:                     -192.3680635455 H        -5234.6013 eV
Extrapolated to 0K:               -192.3680635455 H        -5234.6013 eV
Total Mermin free energy:         -192.3680635455 H        -5234.6013 eV
Force related energy:             -192.3680635455 H        -5234.6013 eV

Volume:                              0.994108E+04 au^3   0.147312E+04 A^3
Pressure:                            0.149564E-04 au     0.440034E+09 Pa
>> Charges saved for restart in charges.bin

total energy  -1.9236806E+02 H       energy change -9.2794769E-04 H
gradient norm  2.1862976E-02 H/a0    max. gradient  5.5205112E-03 H/a0
step length    1.2807674E-01 a0      max. step      2.0091888E-02 a0

--------------------------------------------------------------------------------

***  Geometry step: 19

 iSCC Total electronic   Diff electronic      SCC error    
    1   -0.19433585E+03    0.00000000E+00    0.35838275E-02
    2   -0.19433295E+03    0.28959388E-02    0.17010901E-02
    3   -0.19433297E+03   -0.15028131E-04    0.56067246E-03
    4   -0.19433297E+03   -0.31769265E-05    0.60767682E-04
    5   -0.19433297E+03   -0.49109019E-07    0.10045814E-04
    6   -0.19433297E+03   -0.43729074E-08    0.37126159E-05
    7   -0.19433297E+03   -0.90039975E-10    0.14521246E-05
    8   -0.19433297E+03   -0.31263880E-11    0.20054754E-06
    9   -0.19433297E+03   -0.34106051E-12    0.33795863E-07
   10   -0.19433297E+03    0.56843419E-13    0.77140654E-08

Total Energy:                     -192.3688243655 H        -5234.6220 eV
Extrapolated to 0K:               -192.3688243655 H        -5234.6220 eV
Total Mermin free energy:         -192.3688243655 H        -5234.6220 eV
Force related energy:             -192.3688243655 H        -5234.6220 eV

Volume:                              0.995835E+04 au^3   0.147568E+04 A^3
Pressure:                            0.126102E-04 au     0.371006E+09 Pa
>> Charges saved for restart in charges.bin

total energy  -1.9236882E+02 H       energy change -7.6082007E-04 H
gradient norm  2.0152178E-02 H/a0    max. gradient  5.7355594E-03 H/a0
step length    1.2242325E-01 a0      max. step      2.0919912E-02 a0

--------------------------------------------------------------------------------

***  Geometry step: 20

 iSCC Total electronic   Diff electronic      SCC error    
    1   -0.19433297E+03    0.00000000E+00    0.37579152E-02
    2   -0.19432902E+03    0.39495843E-02    0.16487469E-02
    3   -0.19432903E+03   -0.11600409E-04    0.45971009E-03
    4   -0.19432904E+03   -0.24740312E-05    0.45333875E-04
    5   -0.19432904E+03   -0.52352391E-07    0.18000369E-04
    6   -0.19432904E+03   -0.34322056E-08    0.56757512E-05
    7   -0.19432904E+03   -0.98197006E-10    0.14446834E-05
    8   -0.19432904E+03   -0.31548097E-11    0.14619438E-06
    9   -0.19432904E+03   -0.39790393E-12    0.31640695E-07
   10   -0.19432904E+03    0.28421709E-13    0.56817231E-08

Total Energy:                     -192.3694482883 H        -5234.6390 eV
Extrapolated to 0K:               -192.3694482883 H        -5234.6390 eV
Total Mermin free energy:         -192.3694482883 H        -5234.6390 eV
Force related energy:             -192.3694482883 H        -5234.6390 eV

Volume:                              0.997577E+04 au^3   0.147826E+04 A^3
Pressure:                            0.998140E-05 au     0.293663E+09 Pa
>> Charges saved for restart in charges.bin

total energy  -1.9236945E+02 H       energy change -6.2392275E-04 H
gradient norm  1.7810078E-02 H/a0    max. gradient  3.9901641E-03 H/a0
step length    1.1316212E-01 a0      max. step      2.0622843E-02 a0

--------------------------------------------------------------------------------

***  Geometry step: 21

 iSCC Total electronic   Diff electronic      SCC error    
    1   -0.19432904E+03    0.00000000E+00    0.38527847E-02
    2   -0.19432499E+03    0.40507591E-02    0.17050170E-02
    3   -0.19432499E+03   -0.84214713E-05    0.39722951E-03
    4   -0.19432500E+03   -0.18387387E-05    0.47854791E-04
    5   -0.19432500E+03   -0.51848616E-07    0.20007486E-04
    6   -0.19432500E+03   -0.27232829E-08    0.52087680E-05
    7   -0.19432500E+03   -0.77562845E-10    0.10820589E-05
    8   -0.19432500E+03   -0.22453150E-11    0.12885252E-06
    9   -0.19432500E+03   -0.25579538E-12    0.28097498E-07
   10   -0.19432500E+03   -0.85265128E-13    0.41138821E-08

Total Energy:                     -192.3699564704 H        -5234.6529 eV
Extrapolated to 0K:               -192.3699564704 H        -5234.6529 eV
Total Mermin free energy:         -192.3699564704 H        -5234.6529 eV
Force related energy:             -192.3699564704 H        -5234.6529 eV

Volume:                              0.999187E+04 au^3   0.148064E+04 A^3
Pressure:                            0.756546E-05 au     0.222583E+09 Pa
>> Charges saved for restart in charges.bin

total energy  -1.9236996E+02 H       energy change -5.0818209E-04 H
gradient norm  1.6198732E-02 H/a0    max. gradient  3.5230492E-03 H/a0
step length    9.9330274E-02 a0      max. step      1.9914088E-02 a0

--------------------------------------------------------------------------------

***  Geometry step: 22

 iSCC Total electronic   Diff electronic      SCC error    
    1   -0.19432500E+03    0.00000000E+00    0.30779358E-02
    2   -0.19432182E+03    0.31764638E-02    0.14660869E-02
    3   -0.19432183E+03   -0.83446661E-05    0.47848685E-03
    4   -0.19432183E+03   -0.18424711E-05    0.51633692E-04
    5   -0.19432183E+03   -0.48685706E-07    0.14116172E-04
    6   -0.19432183E+03   -0.23450184E-08    0.39376488E-05
    7   -0.19432183E+03   -0.68126838E-10    0.77018471E-06
    8   -0.19432183E+03   -0.21316282E-11    0.16945233E-06
    9   -0.19432183E+03   -0.31263880E-12    0.38054762E-07
   10   -0.19432183E+03    0.00000000E+00    0.54337264E-08

Total Energy:                     -192.3704166125 H        -5234.6654 eV
Extrapolated to 0K:               -192.3704166125 H        -5234.6654 eV
Total Mermin free energy:         -192.3704166125 H        -5234.6654 eV
Force related energy:             -192.3704166125 H        -5234.6654 eV

Volume:                              0.100067E+05 au^3   0.148284E+04 A^3
Pressure:                            0.529375E-05 au     0.155747E+09 Pa
>> Charges saved for restart in charges.bin

total energy  -1.9237042E+02 H       energy change -4.6014210E-04 H
gradient norm  1.5571697E-02 H/a0    max. gradient  4.2669584E-03 H/a0
step length    9.5625735E-02 a0      max. step      1.9406518E-02 a0

--------------------------------------------------------------------------------

***  Geometry step: 23

 iSCC Total electronic   Diff electronic      SCC error    
    1   -0.19432183E+03    0.00000000E+00    0.32592343E-02
    2   -0.19432193E+03   -0.10248270E-03    0.16672221E-02
    3   -0.19432194E+03   -0.90478333E-05    0.50063379E-03
    4   -0.19432194E+03   -0.19877330E-05    0.57057595E-04
    5   -0.19432194E+03   -0.36257745E-07    0.13895532E-04
    6   -0.19432194E+03   -0.20577033E-08    0.38352887E-05
    7   -0.19432194E+03   -0.73754336E-10    0.83591195E-06
    8   -0.19432194E+03   -0.19042545E-11    0.15355199E-06
    9   -0.19432194E+03   -0.25579538E-12    0.34019958E-07
   10   -0.19432194E+03   -0.17053026E-12    0.48626396E-08

Total Energy:                     -192.3708033861 H        -5234.6759 eV
Extrapolated to 0K:               -192.3708033861 H        -5234.6759 eV
Total Mermin free energy:         -192.3708033861 H        -5234.6759 eV
Force related energy:             -192.3708033861 H        -5234.6759 eV

Volume:                              0.100180E+05 au^3   0.148451E+04 A^3
Pressure:                            0.447597E-05 au     0.131688E+09 Pa
>> Charges saved for restart in charges.bin

total energy  -1.9237080E+02 H       energy change -3.8677359E-04 H
gradient norm  1.3694619E-02 H/a0    max. gradient  3.6560677E-03 H/a0
step length    8.6318620E-02 a0      max. step      1.7072903E-02 a0

--------------------------------------------------------------------------------

***  Geometry step: 24

 iSCC Total electronic   Diff electronic      SCC error    
    1   -0.19432194E+03    0.00000000E+00    0.22744098E-02
    2   -0.19432394E+03   -0.20014056E-02    0.12445075E-02
    3   -0.19432395E+03   -0.54752473E-05    0.33009322E-03
    4   -0.19432395E+03   -0.12261112E-05    0.35270397E-04
    5   -0.19432395E+03   -0.20442002E-07    0.91501551E-05
    6   -0.19432395E+03   -0.10095675E-08    0.25031779E-05
    7   -0.19432395E+03   -0.20008883E-10    0.44297852E-06
    8   -0.19432395E+03   -0.73896445E-12    0.86822229E-07
    9   -0.19432395E+03   -0.28421709E-13    0.16145489E-07
   10   -0.19432395E+03   -0.56843419E-13    0.29329366E-08

Total Energy:                     -192.3710648402 H        -5234.6830 eV
Extrapolated to 0K:               -192.3710648402 H        -5234.6830 eV
Total Mermin free energy:         -192.3710648402 H        -5234.6830 eV
Force related energy:             -192.3710648402 H        -5234.6830 eV

Volume:                              0.100253E+05 au^3   0.148559E+04 A^3
Pressure:                            0.443440E-05 au     0.130465E+09 Pa
>> Charges saved for restart in charges.bin

total energy  -1.9237106E+02 H       energy change -2.6145414E-04 H
gradient norm  1.1433782E-02 H/a0    max. gradient  2.4818140E-03 H/a0
step length    6.4249729E-02 a0      max. step      1.1861618E-02 a0

--------------------------------------------------------------------------------

***  Geometry step: 25

 iSCC Total electronic   Diff electronic      SCC error    
    1   -0.19432395E+03    0.00000000E+00    0.18514916E-02
    2   -0.19432690E+03   -0.29491441E-02    0.10588322E-02
    3   -0.19432690E+03   -0.25319121E-05    0.22224056E-03
    4   -0.19432690E+03   -0.59437065E-06    0.29745242E-04
    5   -0.19432690E+03   -0.19670352E-07    0.93762467E-05
    6   -0.19432690E+03   -0.61413630E-09    0.15767500E-05
    7   -0.19432690E+03   -0.13670842E-10    0.41140712E-06
    8   -0.19432690E+03   -0.68212103E-12    0.12792478E-06
    9   -0.19432690E+03   -0.14210855E-12    0.21794091E-07
   10   -0.19432690E+03    0.11368684E-12    0.19718280E-08

Total Energy:                     -192.3712579387 H        -5234.6883 eV
Extrapolated to 0K:               -192.3712579387 H        -5234.6883 eV
Total Mermin free energy:         -192.3712579387 H        -5234.6883 eV
Force related energy:             -192.3712579387 H        -5234.6883 eV

Volume:                              0.100302E+05 au^3   0.148632E+04 A^3
Pressure:                            0.509377E-05 au     0.149864E+09 Pa
>> Charges saved for restart in charges.bin

total energy  -1.9237126E+02 H       energy change -1.9309848E-04 H
gradient norm  1.0706767E-02 H/a0    max. gradient  2.0981276E-03 H/a0
step length    4.7319712E-02 a0      max. step      9.8146160E-03 a0

--------------------------------------------------------------------------------

***  Geometry step: 26

 iSCC Total electronic   Diff electronic      SCC error    
    1   -0.19432690E+03    0.00000000E+00    0.21576087E-02
    2   -0.19432927E+03   -0.23662391E-02    0.13470998E-02
    3   -0.19432927E+03   -0.27934219E-05    0.29531715E-03
    4   -0.19432927E+03   -0.69638185E-06    0.38353542E-04
    5   -0.19432927E+03   -0.34795306E-07    0.11069460E-04
    6   -0.19432927E+03   -0.80382279E-09    0.21232551E-05
    7   -0.19432927E+03   -0.14381385E-10    0.53672468E-06
    8   -0.19432927E+03   -0.65369932E-12    0.12341430E-06
    9   -0.19432927E+03   -0.11368684E-12    0.28255212E-07
   10   -0.19432927E+03    0.56843419E-13    0.27329783E-08

Total Energy:                     -192.3714825986 H        -5234.6944 eV
Extrapolated to 0K:               -192.3714825986 H        -5234.6944 eV
Total Mermin free energy:         -192.3714825986 H        -5234.6944 eV
Force related energy:             -192.3714825986 H        -5234.6944 eV

Volume:                              0.100378E+05 au^3   0.148745E+04 A^3
Pressure:                            0.541496E-05 au     0.159314E+09 Pa
>> Charges saved for restart in charges.bin

total energy  -1.9237148E+02 H       energy change -2.2465991E-04 H
gradient norm  1.2129637E-02 H/a0    max. gradient  2.5817011E-03 H/a0
step length    6.1102453E-02 a0      max. step      1.3407039E-02 a0

--------------------------------------------------------------------------------

***  Geometry step: 27

 iSCC Total electronic   Diff electronic      SCC error    
    1   -0.19432927E+03    0.00000000E+00    0.24043040E-02
    2   -0.19432977E+03   -0.49240973E-03    0.14937889E-02
    3   -0.19432977E+03   -0.38021892E-05    0.34771421E-03
    4   -0.19432977E+03   -0.89146505E-06    0.25736177E-04
    5   -0.19432977E+03   -0.43811724E-07    0.59704946E-05
    6   -0.19432977E+03   -0.91324637E-09    0.20409210E-05
    7   -0.19432977E+03   -0.10032863E-10    0.57650277E-06
    8   -0.19432977E+03   -0.56843419E-12    0.11123180E-06
    9   -0.19432977E+03   -0.85265128E-13    0.30325896E-07
   10   -0.19432977E+03   -0.28421709E-13    0.23927100E-08

Total Energy:                     -192.3717465525 H        -5234.7016 eV
Extrapolated to 0K:               -192.3717465525 H        -5234.7016 eV
Total Mermin free energy:         -192.3717465525 H        -5234.7016 eV
Force related energy:             -192.3717465525 H        -5234.7016 eV

Volume:                              0.100497E+05 au^3   0.148921E+04 A^3
Pressure:                            0.440264E-05 au     0.129530E+09 Pa
>> Charges saved for restart in charges.bin

total energy  -1.9237175E+02 H       energy change -2.6395393E-04 H
gradient norm  1.3343468E-02 H/a0    max. gradient  2.9035878E-03 H/a0
step length    7.9831005E-02 a0      max. step      1.7891297E-02 a0

--------------------------------------------------------------------------------

***  Geometry step: 28

 iSCC Total electronic   Diff electronic      SCC error    
    1   -0.19432977E+03    0.00000000E+00    0.24597721E-02
    2   -0.19432963E+03    0.13574343E-03    0.15156493E-02
    3   -0.19432964E+03   -0.65330522E-05    0.42562299E-03
    4   -0.19432964E+03   -0.14212806E-05    0.42989666E-04
    5   -0.19432964E+03   -0.47090737E-07    0.99482315E-05
    6   -0.19432964E+03   -0.17733726E-08    0.30550672E-05
    7   -0.19432964E+03   -0.21344704E-10    0.74393026E-06
    8   -0.19432964E+03   -0.90949470E-12    0.13951975E-06
    9   -0.19432964E+03   -0.22737368E-12    0.37834984E-07
   10   -0.19432964E+03    0.28421709E-13    0.45109196E-08

Total Energy:                     -192.3720512817 H        -5234.7099 eV
Extrapolated to 0K:               -192.3720512817 H        -5234.7099 eV
Total Mermin free energy:         -192.3720512817 H        -5234.7099 eV
Force related energy:             -192.3720512817 H        -5234.7099 eV

Volume:                              0.100653E+05 au^3   0.149152E+04 A^3
Pressure:                            0.289806E-05 au     0.852637E+08 Pa
>> Charges saved for restart in charges.bin

total energy  -1.9237205E+02 H       energy change -3.0472918E-04 H
gradient norm  1.3252166E-02 H/a0    max. gradient  3.2284461E-03 H/a0
step length    1.0491008E-01 a0      max. step      2.3703246E-02 a0

--------------------------------------------------------------------------------

***  Geometry step: 29

 iSCC Total electronic   Diff electronic      SCC error    
    1   -0.19432964E+03    0.00000000E+00    0.21914295E-02
    2   -0.19432836E+03    0.12784979E-02    0.98619744E-03
    3   -0.19432837E+03   -0.48247569E-05    0.26629867E-03
    4   -0.19432837E+03   -0.10014298E-05    0.39377452E-04
    5   -0.19432837E+03   -0.20897431E-07    0.11291140E-04
    6   -0.19432837E+03   -0.13600356E-08    0.24179134E-05
    7   -0.19432837E+03   -0.23760549E-10    0.53872348E-06
    8   -0.19432837E+03   -0.68212103E-12    0.12918799E-06
    9   -0.19432837E+03   -0.19895197E-12    0.29879943E-07
   10   -0.19432837E+03    0.56843419E-13    0.24137128E-08

Total Energy:                     -192.3723092926 H        -5234.7169 eV
Extrapolated to 0K:               -192.3723092926 H        -5234.7169 eV
Total Mermin free energy:         -192.3723092926 H        -5234.7169 eV
Force related energy:             -192.3723092926 H        -5234.7169 eV

Volume:                              0.100793E+05 au^3   0.149359E+04 A^3
Pressure:                            0.119892E-05 au     0.352735E+08 Pa
>> Charges saved for restart in charges.bin

total energy  -1.9237231E+02 H       energy change -2.5801089E-04 H
gradient norm  1.1798217E-02 H/a0    max. gradient  2.8195716E-03 H/a0
step length    9.5422707E-02 a0      max. step      2.1225734E-02 a0

--------------------------------------------------------------------------------

***  Geometry step: 30

 iSCC Total electronic   Diff electronic      SCC error    
    1   -0.19432837E+03    0.00000000E+00    0.19752632E-02
    2   -0.19432725E+03    0.11193502E-02    0.93577367E-03
    3   -0.19432726E+03   -0.54038111E-05    0.24825463E-03
    4   -0.19432726E+03   -0.10770112E-05    0.50709664E-04
    5   -0.19432726E+03   -0.14054677E-07    0.10393689E-04
    6   -0.19432726E+03   -0.12606165E-08    0.22420002E-05
    7   -0.19432726E+03   -0.29842795E-10    0.51786109E-06
    8   -0.19432726E+03   -0.73896445E-12    0.10415142E-06
    9   -0.19432726E+03   -0.22737368E-12    0.21140117E-07
   10   -0.19432726E+03    0.28421709E-13    0.29141152E-08

Total Energy:                     -192.3725648605 H        -5234.7238 eV
Extrapolated to 0K:               -192.3725648605 H        -5234.7238 eV
Total Mermin free energy:         -192.3725648605 H        -5234.7238 eV
Force related energy:             -192.3725648605 H        -5234.7238 eV

Volume:                              0.100911E+05 au^3   0.149535E+04 A^3
Pressure:                           -0.342586E-06 au    -0.100792E+08 Pa
>> Charges saved for restart in charges.bin

total energy  -1.9237256E+02 H       energy change -2.5556790E-04 H
gradient norm  1.1576394E-02 H/a0    max. gradient  4.2138602E-03 H/a0
step length    9.5877540E-02 a0      max. step      2.0917399E-02 a0

--------------------------------------------------------------------------------

***  Geometry step: 31

 iSCC Total electronic   Diff electronic      SCC error    
    1   -0.19432726E+03    0.00000000E+00    0.17333087E-02
    2   -0.19432753E+03   -0.27722573E-03    0.79400385E-03
    3   -0.19432754E+03   -0.46304550E-05    0.27230761E-03
    4   -0.19432754E+03   -0.92533105E-06    0.49006175E-04
    5   -0.19432754E+03   -0.10929313E-07    0.85961623E-05
    6   -0.19432754E+03   -0.12644250E-08    0.18729003E-05
    7   -0.19432754E+03   -0.26659563E-10    0.44039469E-06
    8   -0.19432754E+03   -0.51159077E-12    0.10053167E-06
    9   -0.19432754E+03   -0.28421709E-13    0.18886660E-07
   10   -0.19432754E+03   -0.85265128E-13    0.23867726E-08

Total Energy:                     -192.3728028832 H        -5234.7303 eV
Extrapolated to 0K:               -192.3728028832 H        -5234.7303 eV
Total Mermin free energy:         -192.3728028832 H        -5234.7303 eV
Force related energy:             -192.3728028832 H        -5234.7303 eV

Volume:                              0.100987E+05 au^3   0.149647E+04 A^3
Pressure:                           -0.110182E-05 au    -0.324165E+08 Pa
>> Charges saved for restart in charges.bin

total energy  -1.9237280E+02 H       energy change -2.3802272E-04 H
gradient norm  1.2578302E-02 H/a0    max. gradient  5.7483077E-03 H/a0
step length    9.0064989E-02 a0      max. step      1.8984805E-02 a0

--------------------------------------------------------------------------------

***  Geometry step: 32

 iSCC Total electronic   Diff electronic      SCC error    
    1   -0.19432754E+03    0.00000000E+00    0.18222173E-02
    2   -0.19432939E+03   -0.18461654E-02    0.87574441E-03
    3   -0.19432939E+03   -0.37461847E-05    0.25808941E-03
    4   -0.19432939E+03   -0.77832391E-06    0.48164815E-04
    5   -0.19432939E+03   -0.12995741E-07    0.41530360E-05
    6   -0.19432939E+03   -0.15206183E-08    0.11702604E-05
    7   -0.19432939E+03   -0.22765789E-10    0.46734054E-06
    8   -0.19432939E+03   -0.14210855E-12    0.81971949E-07
    9   -0.19432939E+03   -0.14210855E-12    0.11466023E-07
   10   -0.19432939E+03    0.56843419E-13    0.18607951E-08

Total Energy:                     -192.3730557669 H        -5234.7372 eV
Extrapolated to 0K:               -192.3730557669 H        -5234.7372 eV
Total Mermin free energy:         -192.3730557669 H        -5234.7372 eV
Force related energy:             -192.3730557669 H        -5234.7372 eV

Volume:                              0.101020E+05 au^3   0.149696E+04 A^3
Pressure:                           -0.888578E-06 au    -0.261429E+08 Pa
>> Charges saved for restart in charges.bin

total energy  -1.9237306E+02 H       energy change -2.5288369E-04 H
gradient norm  1.2598791E-02 H/a0    max. gradient  4.4291279E-03 H/a0
step length    9.0256714E-02 a0      max. step      1.8405928E-02 a0

--------------------------------------------------------------------------------

***  Geometry step: 33

 iSCC Total electronic   Diff electronic      SCC error    
    1   -0.19432939E+03    0.00000000E+00    0.25707473E-02
    2   -0.19433218E+03   -0.27913108E-02    0.10578804E-02
    3   -0.19433219E+03   -0.48904917E-05    0.32495118E-03
    4   -0.19433219E+03   -0.10943847E-05    0.55010956E-04
    5   -0.19433219E+03   -0.21237412E-07    0.10146309E-04
    6   -0.19433219E+03   -0.14899513E-08    0.24257078E-05
    7   -0.19433219E+03   -0.29984903E-10    0.56977935E-06
    8   -0.19433219E+03   -0.73896445E-12    0.11890681E-06
    9   -0.19433219E+03   -0.19895197E-12    0.25303443E-07
   10   -0.19433219E+03    0.85265128E-13    0.20963844E-08

Total Energy:                     -192.3733297708 H        -5234.7446 eV
Extrapolated to 0K:               -192.3733297708 H        -5234.7446 eV
Total Mermin free energy:         -192.3733297708 H        -5234.7446 eV
Force related energy:             -192.3733297708 H        -5234.7446 eV

Volume:                              0.101034E+05 au^3   0.149718E+04 A^3
Pressure:                           -0.962606E-07 au    -0.283208E+07 Pa
>> Charges saved for restart in charges.bin

total energy  -1.9237333E+02 H       energy change -2.7400389E-04 H
gradient norm  1.2113798E-02 H/a0    max. gradient  2.7399034E-03 H/a0
step length    1.0576062E-01 a0      max. step      2.0515151E-02 a0

--------------------------------------------------------------------------------

***  Geometry step: 34

 iSCC Total electronic   Diff electronic      SCC error    
    1   -0.19433219E+03    0.00000000E+00    0.20472287E-02
    2   -0.19433444E+03   -0.22522244E-02    0.11344039E-02
    3   -0.19433444E+03   -0.33468471E-05    0.29805993E-03
    4   -0.19433444E+03   -0.75704028E-06    0.30090183E-04
    5   -0.19433444E+03   -0.13883749E-07    0.10091156E-04
    6   -0.19433444E+03   -0.68820327E-09    0.22094342E-05
    7   -0.19433444E+03   -0.92654773E-11    0.26749139E-06
    8   -0.19433444E+03   -0.45474735E-12    0.65893808E-07
    9   -0.19433444E+03   -0.85265128E-13    0.11119662E-07
   10   -0.19433444E+03    0.11368684E-12    0.14117676E-08

Total Energy:                     -192.3735667142 H        -5234.7511 eV
Extrapolated to 0K:               -192.3735667142 H        -5234.7511 eV
Total Mermin free energy:         -192.3735667142 H        -5234.7511 eV
Force related energy:             -192.3735667142 H        -5234.7511 eV

Volume:                              0.101039E+05 au^3   0.149724E+04 A^3
Pressure:                            0.875466E-06 au     0.257571E+08 Pa
>> Charges saved for restart in charges.bin

total energy  -1.9237357E+02 H       energy change -2.3694345E-04 H
gradient norm  1.1877335E-02 H/a0    max. gradient  2.7055113E-03 H/a0
step length    9.5954481E-02 a0      max. step      1.9230911E-02 a0

--------------------------------------------------------------------------------

***  Geometry step: 35

 iSCC Total electronic   Diff electronic      SCC error    
    1   -0.19433444E+03    0.00000000E+00    0.18371733E-02
    2   -0.19433567E+03   -0.12273220E-02    0.93862801E-03
    3   -0.19433568E+03   -0.37106341E-05    0.28071163E-03
    4   -0.19433568E+03   -0.80075401E-06    0.33818437E-04
    5   -0.19433568E+03   -0.10701712E-07    0.94737313E-05
    6   -0.19433568E+03   -0.61061201E-09    0.25230040E-05
    7   -0.19433568E+03   -0.10203394E-10    0.38193899E-06
    8   -0.19433568E+03   -0.51159077E-12    0.91119659E-07
    9   -0.19433568E+03   -0.11368684E-12    0.20843112E-07
   10   -0.19433568E+03    0.28421709E-13    0.18380204E-08

Total Energy:                     -192.3738191049 H        -5234.7580 eV
Extrapolated to 0K:               -192.3738191049 H        -5234.7580 eV
Total Mermin free energy:         -192.3738191049 H        -5234.7580 eV
Force related energy:             -192.3738191049 H        -5234.7580 eV

Volume:                              0.101050E+05 au^3   0.149740E+04 A^3
Pressure:                            0.129188E-05 au     0.380083E+08 Pa
>> Charges saved for restart in charges.bin

total energy  -1.9237382E+02 H       energy change -2.5239068E-04 H
gradient norm  1.2345623E-02 H/a0    max. gradient  3.0341417E-03 H/a0
step length    1.0548430E-01 a0      max. step      2.0732324E-02 a0

--------------------------------------------------------------------------------

***  Geometry step: 36

 iSCC Total electronic   Diff electronic      SCC error    
    1   -0.19433568E+03    0.00000000E+00    0.26219504E-02
    2   -0.19433659E+03   -0.91336564E-03    0.12941844E-02
    3   -0.19433659E+03   -0.53465352E-05    0.35911939E-03
    4   -0.19433660E+03   -0.11403082E-05    0.42344529E-04
    5   -0.19433660E+03   -0.19201480E-07    0.54531175E-05
    6   -0.19433660E+03   -0.11768861E-08    0.17401299E-05
    7   -0.19433660E+03   -0.23874236E-10    0.70023065E-06
    8   -0.19433660E+03   -0.68212103E-12    0.12766173E-06
    9   -0.19433660E+03   -0.56843419E-13    0.26951569E-07
   10   -0.19433660E+03    0.85265128E-13    0.28409297E-08

Total Energy:                     -192.3740981127 H        -5234.7656 eV
Extrapolated to 0K:               -192.3740981127 H        -5234.7656 eV
Total Mermin free energy:         -192.3740981127 H        -5234.7656 eV
Force related energy:             -192.3740981127 H        -5234.7656 eV

Volume:                              0.101063E+05 au^3   0.149761E+04 A^3
Pressure:                            0.139467E-05 au     0.410327E+08 Pa
>> Charges saved for restart in charges.bin

total energy  -1.9237410E+02 H       energy change -2.7900775E-04 H
gradient norm  1.2203823E-02 H/a0    max. gradient  2.9428157E-03 H/a0
step length    1.2432493E-01 a0      max. step      2.3614073E-02 a0

--------------------------------------------------------------------------------

***  Geometry step: 37

 iSCC Total electronic   Diff electronic      SCC error    
    1   -0.19433660E+03    0.00000000E+00    0.20286940E-02
    2   -0.19433749E+03   -0.89897307E-03    0.12477949E-02
    3   -0.19433750E+03   -0.43097396E-05    0.35834565E-03
    4   -0.19433750E+03   -0.93376858E-06    0.35370060E-04
    5   -0.19433750E+03   -0.21575431E-07    0.82317661E-05
    6   -0.19433750E+03   -0.11993393E-08    0.21763986E-05
    7   -0.19433750E+03   -0.23959501E-10    0.53808502E-06
    8   -0.19433750E+03   -0.54001248E-12    0.14793853E-06
    9   -0.19433750E+03   -0.28421709E-13    0.28896416E-07
   10   -0.19433750E+03    0.00000000E+00    0.32471315E-08

Total Energy:                     -192.3743234749 H        -5234.7717 eV
Extrapolated to 0K:               -192.3743234749 H        -5234.7717 eV
Total Mermin free energy:         -192.3743234749 H        -5234.7717 eV
Force related energy:             -192.3743234749 H        -5234.7717 eV

Volume:                              0.101077E+05 au^3   0.149781E+04 A^3
Pressure:                            0.129105E-05 au     0.379840E+08 Pa
>> Charges saved for restart in charges.bin

total energy  -1.9237432E+02 H       energy change -2.2536226E-04 H
gradient norm  1.0816543E-02 H/a0    max. gradient  2.0415771E-03 H/a0
step length    1.1004392E-01 a0      max. step      2.0003040E-02 a0

--------------------------------------------------------------------------------

***  Geometry step: 38

 iSCC Total electronic   Diff electronic      SCC error    
    1   -0.19433750E+03    0.00000000E+00    0.18632974E-02
    2   -0.19433867E+03   -0.11732271E-02    0.10191768E-02
    3   -0.19433868E+03   -0.29694687E-05    0.30318768E-03
    4   -0.19433868E+03   -0.67400117E-06    0.30362974E-04
    5   -0.19433868E+03   -0.16470580E-07    0.92032307E-05
    6   -0.19433868E+03   -0.86990326E-09    0.18823800E-05
    7   -0.19433868E+03   -0.16370905E-10    0.41238746E-06
    8   -0.19433868E+03   -0.36948222E-12    0.92977457E-07
    9   -0.19433868E+03   -0.14210855E-12    0.22771721E-07
   10   -0.19433868E+03    0.11368684E-12    0.23356370E-08

Total Energy:                     -192.3745008705 H        -5234.7765 eV
Extrapolated to 0K:               -192.3745008705 H        -5234.7765 eV
Total Mermin free energy:         -192.3745008705 H        -5234.7765 eV
Force related energy:             -192.3745008705 H        -5234.7765 eV

Volume:                              0.101086E+05 au^3   0.149794E+04 A^3
Pressure:                            0.133755E-05 au     0.393520E+08 Pa
>> Charges saved for restart in charges.bin

total energy  -1.9237450E+02 H       energy change -1.7739552E-04 H
gradient norm  9.5623449E-03 H/a0    max. gradient  1.9084583E-03 H/a0
step length    8.7838928E-02 a0      max. step      1.6783120E-02 a0

--------------------------------------------------------------------------------

***  Geometry step: 39

 iSCC Total electronic   Diff electronic      SCC error    
    1   -0.19433868E+03    0.00000000E+00    0.20277349E-02
    2   -0.19434024E+03   -0.15628140E-02    0.10819948E-02
    3   -0.19434024E+03   -0.34287640E-05    0.30197908E-03
    4   -0.19434024E+03   -0.75820145E-06    0.30944899E-04
    5   -0.19434024E+03   -0.14301776E-07    0.11490925E-04
    6   -0.19434024E+03   -0.11482655E-08    0.24095951E-05
    7   -0.19434024E+03   -0.21117330E-10    0.49826525E-06
    8   -0.19434024E+03   -0.59685590E-12    0.10015126E-06
    9   -0.19434024E+03   -0.28421709E-13    0.25248859E-07
   10   -0.19434024E+03   -0.11368684E-12    0.25633327E-08

Total Energy:                     -192.3746696554 H        -5234.7811 eV
Extrapolated to 0K:               -192.3746696554 H        -5234.7811 eV
Total Mermin free energy:         -192.3746696554 H        -5234.7811 eV
Force related energy:             -192.3746696554 H        -5234.7811 eV

Volume:                              0.101094E+05 au^3   0.149806E+04 A^3
Pressure:                            0.144582E-05 au     0.425376E+08 Pa
>> Charges saved for restart in charges.bin

total energy  -1.9237467E+02 H       energy change -1.6878493E-04 H
gradient norm  9.3939217E-03 H/a0    max. gradient  2.4471044E-03 H/a0
step length    8.5902396E-02 a0      max. step      1.7020318E-02 a0

--------------------------------------------------------------------------------

***  Geometry step: 40

 iSCC Total electronic   Diff electronic      SCC error    
    1   -0.19434024E+03    0.00000000E+00    0.17564527E-02
    2   -0.19434217E+03   -0.19222398E-02    0.70772813E-03
    3   -0.19434217E+03   -0.22289931E-05    0.17823953E-03
    4   -0.19434217E+03   -0.48525561E-06    0.31335585E-04
    5   -0.19434217E+03   -0.67731207E-08    0.74605083E-05
    6   -0.19434217E+03   -0.67788619E-09    0.14950774E-05
    7   -0.19434217E+03   -0.17251978E-10    0.33194541E-06
    8   -0.19434217E+03   -0.42632564E-12    0.96112430E-07
    9   -0.19434217E+03    0.85265128E-13    0.21666961E-07
   10   -0.19434217E+03   -0.11368684E-12    0.23832829E-08

Total Energy:                     -192.3748099885 H        -5234.7849 eV
Extrapolated to 0K:               -192.3748099885 H        -5234.7849 eV
Total Mermin free energy:         -192.3748099885 H        -5234.7849 eV
Force related energy:             -192.3748099885 H        -5234.7849 eV

Volume:                              0.101104E+05 au^3   0.149820E+04 A^3
Pressure:                            0.180931E-05 au     0.532317E+08 Pa
>> Charges saved for restart in charges.bin

total energy  -1.9237481E+02 H       energy change -1.4033309E-04 H
gradient norm  9.4408592E-03 H/a0    max. gradient  2.5925171E-03 H/a0
step length    7.0540012E-02 a0      max. step      1.4038903E-02 a0

--------------------------------------------------------------------------------

***  Geometry step: 41

 iSCC Total electronic   Diff electronic      SCC error    
    1   -0.19434217E+03    0.00000000E+00    0.14929751E-02
    2   -0.19434403E+03   -0.18613514E-02    0.67691925E-03
    3   -0.19434403E+03   -0.23759006E-05    0.16370096E-03
    4   -0.19434403E+03   -0.49259913E-06    0.33517563E-04
    5   -0.19434403E+03   -0.71482020E-08    0.48705880E-05
    6   -0.19434403E+03   -0.57758598E-09    0.13235342E-05
    7   -0.19434403E+03   -0.19355184E-10    0.36042529E-06
    8   -0.19434403E+03   -0.28421709E-12    0.84309814E-07
    9   -0.19434403E+03    0.28421709E-13    0.21941394E-07
   10   -0.19434403E+03   -0.56843419E-13    0.15745991E-08

Total Energy:                     -192.3749457230 H        -5234.7886 eV
Extrapolated to 0K:               -192.3749457230 H        -5234.7886 eV
Total Mermin free energy:         -192.3749457230 H        -5234.7886 eV
Force related energy:             -192.3749457230 H        -5234.7886 eV

Volume:                              0.101122E+05 au^3   0.149847E+04 A^3
Pressure:                            0.214954E-05 au     0.632416E+08 Pa
>> Charges saved for restart in charges.bin

total energy  -1.9237495E+02 H       energy change -1.3573455E-04 H
gradient norm  8.8561944E-03 H/a0    max. gradient  1.9439841E-03 H/a0
step length    7.3048255E-02 a0      max. step      1.4692006E-02 a0

--------------------------------------------------------------------------------

***  Geometry step: 42

 iSCC Total electronic   Diff electronic      SCC error    
    1   -0.19434403E+03    0.00000000E+00    0.17973202E-02
    2   -0.19434528E+03   -0.12468030E-02    0.74399740E-03
    3   -0.19434528E+03   -0.29121483E-05    0.19986554E-03
    4   -0.19434528E+03   -0.55872442E-06    0.39773685E-04
    5   -0.19434528E+03   -0.85912575E-08    0.61373311E-05
    6   -0.19434528E+03   -0.71335648E-09    0.16932638E-05
    7   -0.19434528E+03   -0.19753088E-10    0.51087788E-06
    8   -0.19434528E+03   -0.34106051E-12    0.95675456E-07
    9   -0.19434528E+03   -0.85265128E-13    0.20085287E-07
   10   -0.19434528E+03    0.56843419E-13    0.16632562E-08

Total Energy:                     -192.3750590185 H        -5234.7917 eV
Extrapolated to 0K:               -192.3750590185 H        -5234.7917 eV
Total Mermin free energy:         -192.3750590185 H        -5234.7917 eV
Force related energy:             -192.3750590185 H        -5234.7917 eV

Volume:                              0.101147E+05 au^3   0.149884E+04 A^3
Pressure:                            0.238774E-05 au     0.702496E+08 Pa
>> Charges saved for restart in charges.bin

total energy  -1.9237506E+02 H       energy change -1.1329549E-04 H
gradient norm  7.7735042E-03 H/a0    max. gradient  1.7583225E-03 H/a0
step length    6.2343114E-02 a0      max. step      1.2587835E-02 a0

--------------------------------------------------------------------------------

***  Geometry step: 43

 iSCC Total electronic   Diff electronic      SCC error    
    1   -0.19434528E+03    0.00000000E+00    0.17864554E-02
    2   -0.19434555E+03   -0.27085172E-03    0.80977779E-03
    3   -0.19434556E+03   -0.23424333E-05    0.20849993E-03
    4   -0.19434556E+03   -0.47434764E-06    0.36003891E-04
    5   -0.19434556E+03   -0.70149611E-08    0.51967423E-05
    6   -0.19434556E+03   -0.74996365E-09    0.13283012E-05
    7   -0.19434556E+03   -0.15461410E-10    0.42972219E-06
    8   -0.19434556E+03   -0.28421709E-12    0.90194084E-07
    9   -0.19434556E+03    0.28421709E-13    0.16436002E-07
   10   -0.19434556E+03   -0.14210855E-12    0.14485861E-08

Total Energy:                     -192.3751577642 H        -5234.7944 eV
Extrapolated to 0K:               -192.3751577642 H        -5234.7944 eV
Total Mermin free energy:         -192.3751577642 H        -5234.7944 eV
Force related energy:             -192.3751577642 H        -5234.7944 eV

Volume:                              0.101188E+05 au^3   0.149945E+04 A^3
Pressure:                            0.214344E-05 au     0.630622E+08 Pa
>> Charges saved for restart in charges.bin

total energy  -1.9237516E+02 H       energy change -9.8745652E-05 H
gradient norm  7.6572241E-03 H/a0    max. gradient  1.4841946E-03 H/a0
step length    6.1511494E-02 a0      max. step      1.1897968E-02 a0

--------------------------------------------------------------------------------

***  Geometry step: 44

 iSCC Total electronic   Diff electronic      SCC error    
    1   -0.19434556E+03    0.00000000E+00    0.13989302E-02
    2   -0.19434530E+03    0.25448695E-03    0.85009190E-03
    3   -0.19434530E+03   -0.19980051E-05    0.27565102E-03
    4   -0.19434530E+03   -0.40951662E-06    0.36618570E-04
    5   -0.19434530E+03   -0.69405246E-08    0.28813880E-05
    6   -0.19434530E+03   -0.84864382E-09    0.70230515E-06
    7   -0.19434530E+03   -0.91802121E-11    0.33007801E-06
    8   -0.19434530E+03   -0.85265128E-13    0.51174048E-07
    9   -0.19434530E+03   -0.11368684E-12    0.69752097E-08

Total Energy:                     -192.3752579791 H        -5234.7971 eV
Extrapolated to 0K:               -192.3752579791 H        -5234.7971 eV
Total Mermin free energy:         -192.3752579791 H        -5234.7971 eV
Force related energy:             -192.3752579791 H        -5234.7971 eV

Volume:                              0.101240E+05 au^3   0.150022E+04 A^3
Pressure:                            0.152970E-05 au     0.450054E+08 Pa
>> Charges saved for restart in charges.bin

total energy  -1.9237526E+02 H       energy change -1.0021496E-04 H
gradient norm  8.1317104E-03 H/a0    max. gradient  2.0060858E-03 H/a0
step length    6.6030267E-02 a0      max. step      1.2794451E-02 a0

--------------------------------------------------------------------------------

***  Geometry step: 45

 iSCC Total electronic   Diff electronic      SCC error    
    1   -0.19434530E+03    0.00000000E+00    0.14833090E-02
    2   -0.19434530E+03    0.50437588E-05    0.89706910E-03
    3   -0.19434530E+03   -0.18296199E-05    0.24492953E-03
    4   -0.19434530E+03   -0.42031078E-06    0.24401110E-04
    5   -0.19434530E+03   -0.77383788E-08    0.32753403E-05
    6   -0.19434530E+03   -0.69658768E-09    0.78255318E-06
    7   -0.19434530E+03   -0.10743406E-10    0.26324137E-06
    8   -0.19434530E+03   -0.11368684E-12    0.68386470E-07
    9   -0.19434530E+03   -0.28421709E-13    0.14050320E-07
   10   -0.19434530E+03   -0.28421709E-13    0.22060047E-08

Total Energy:                     -192.3753721667 H        -5234.8002 eV
Extrapolated to 0K:               -192.3753721667 H        -5234.8002 eV
Total Mermin free energy:         -192.3753721667 H        -5234.8002 eV
Force related energy:             -192.3753721667 H        -5234.8002 eV

Volume:                              0.101295E+05 au^3   0.150104E+04 A^3
Pressure:                            0.973049E-06 au     0.286281E+08 Pa
>> Charges saved for restart in charges.bin

total energy  -1.9237537E+02 H       energy change -1.1418752E-04 H
gradient norm  7.9896746E-03 H/a0    max. gradient  2.3979646E-03 H/a0
step length    7.8291651E-02 a0      max. step      1.5485213E-02 a0

--------------------------------------------------------------------------------

***  Geometry step: 46

 iSCC Total electronic   Diff electronic      SCC error    
    1   -0.19434530E+03    0.00000000E+00    0.11897723E-02
    2   -0.19434526E+03    0.45252292E-04    0.61660954E-03
    3   -0.19434526E+03   -0.15412803E-05    0.15445245E-03
    4   -0.19434526E+03   -0.37690134E-06    0.20000663E-04
    5   -0.19434526E+03   -0.55572684E-08    0.52893264E-05
    6   -0.19434526E+03   -0.34989966E-09    0.11341031E-05
    7   -0.19434526E+03   -0.11738166E-10    0.26229686E-06
    8   -0.19434526E+03   -0.28421709E-12    0.80231386E-07
    9   -0.19434526E+03    0.00000000E+00    0.14733999E-07
   10   -0.19434526E+03    0.00000000E+00    0.22446653E-08

Total Energy:                     -192.3754660231 H        -5234.8028 eV
Extrapolated to 0K:               -192.3754660231 H        -5234.8028 eV
Total Mermin free energy:         -192.3754660231 H        -5234.8028 eV
Force related energy:             -192.3754660231 H        -5234.8028 eV

Volume:                              0.101347E+05 au^3   0.150181E+04 A^3
Pressure:                            0.369243E-06 au     0.108635E+08 Pa
>> Charges saved for restart in charges.bin

total energy  -1.9237547E+02 H       energy change -9.3856491E-05 H
gradient norm  7.0084514E-03 H/a0    max. gradient  1.7971934E-03 H/a0
step length    7.5778405E-02 a0      max. step      1.4949700E-02 a0

--------------------------------------------------------------------------------

***  Geometry step: 47

 iSCC Total electronic   Diff electronic      SCC error    
    1   -0.19434526E+03    0.00000000E+00    0.18489099E-02
    2   -0.19434573E+03   -0.47119965E-03    0.76603205E-03
    3   -0.19434573E+03   -0.18101959E-05    0.12009138E-03
    4   -0.19434573E+03   -0.39334518E-06    0.21543893E-04
    5   -0.19434573E+03   -0.36609435E-08    0.40174712E-05
    6   -0.19434573E+03   -0.19645086E-09    0.11880766E-05
    7   -0.19434573E+03   -0.61675109E-11    0.31677305E-06
    8   -0.19434573E+03   -0.22737368E-12    0.59286155E-07
    9   -0.19434573E+03   -0.11368684E-12    0.13187715E-07
   10   -0.19434573E+03    0.85265128E-13    0.15419857E-08

Total Energy:                     -192.3755328001 H        -5234.8046 eV
Extrapolated to 0K:               -192.3755328001 H        -5234.8046 eV
Total Mermin free energy:         -192.3755328001 H        -5234.8046 eV
Force related energy:             -192.3755328001 H        -5234.8046 eV

Volume:                              0.101374E+05 au^3   0.150220E+04 A^3
Pressure:                            0.208286E-06 au     0.612799E+07 Pa
>> Charges saved for restart in charges.bin

total energy  -1.9237553E+02 H       energy change -6.6776916E-05 H
gradient norm  5.9312147E-03 H/a0    max. gradient  1.2422369E-03 H/a0
step length    5.4247838E-02 a0      max. step      1.0999459E-02 a0

--------------------------------------------------------------------------------

***  Geometry step: 48

 iSCC Total electronic   Diff electronic      SCC error    
    1   -0.19434573E+03    0.00000000E+00    0.16446125E-02
    2   -0.19434639E+03   -0.66256988E-03    0.69297283E-03
    3   -0.19434640E+03   -0.12822209E-05    0.10188833E-03
    4   -0.19434640E+03   -0.26768143E-06    0.19576581E-04
    5   -0.19434640E+03   -0.18597461E-08    0.34417573E-05
    6   -0.19434640E+03   -0.15651835E-09    0.10178688E-05
    7   -0.19434640E+03   -0.52864380E-11    0.24555685E-06
    8   -0.19434640E+03   -0.11368684E-12    0.48628353E-07
    9   -0.19434640E+03   -0.28421709E-13    0.10692753E-07
   10   -0.19434640E+03    0.85265128E-13    0.12680554E-08

Total Energy:                     -192.3755897673 H        -5234.8061 eV
Extrapolated to 0K:               -192.3755897673 H        -5234.8061 eV
Total Mermin free energy:         -192.3755897673 H        -5234.8061 eV
Force related energy:             -192.3755897673 H        -5234.8061 eV

Volume:                              0.101389E+05 au^3   0.150242E+04 A^3
Pressure:                            0.251556E-06 au     0.740102E+07 Pa
>> Charges saved for restart in charges.bin

total energy  -1.9237559E+02 H       energy change -5.6967238E-05 H
gradient norm  6.1633808E-03 H/a0    max. gradient  1.3403917E-03 H/a0
step length    4.4325825E-02 a0      max. step      9.7538996E-03 a0

--------------------------------------------------------------------------------

***  Geometry step: 49

 iSCC Total electronic   Diff electronic      SCC error    
    1   -0.19434640E+03    0.00000000E+00    0.16609767E-02
    2   -0.19434772E+03   -0.13279282E-02    0.72869262E-03
    3   -0.19434773E+03   -0.15825459E-05    0.17009244E-03
    4   -0.19434773E+03   -0.34327863E-06    0.14291093E-04
    5   -0.19434773E+03   -0.35528842E-08    0.25064240E-05
    6   -0.19434773E+03   -0.24274982E-09    0.76887995E-06
    7   -0.19434773E+03   -0.32969183E-11    0.24324363E-06
    8   -0.19434773E+03   -0.28421709E-13    0.43177890E-07
    9   -0.19434773E+03   -0.56843419E-13    0.95884278E-08

Total Energy:                     -192.3756629008 H        -5234.8081 eV
Extrapolated to 0K:               -192.3756629008 H        -5234.8081 eV
Total Mermin free energy:         -192.3756629008 H        -5234.8081 eV
Force related energy:             -192.3756629008 H        -5234.8081 eV

Volume:                              0.101396E+05 au^3   0.150253E+04 A^3
Pressure:                            0.645915E-06 au     0.190035E+08 Pa
>> Charges saved for restart in charges.bin

total energy  -1.9237566E+02 H       energy change -7.3133518E-05 H
gradient norm  7.2082057E-03 H/a0    max. gradient  1.6953649E-03 H/a0
step length    5.2628621E-02 a0      max. step      1.2366424E-02 a0

--------------------------------------------------------------------------------

***  Geometry step: 50

 iSCC Total electronic   Diff electronic      SCC error    
    1   -0.19434773E+03    0.00000000E+00    0.12393641E-02
    2   -0.19434849E+03   -0.76322666E-03    0.64747737E-03
    3   -0.19434849E+03   -0.10270371E-05    0.18278442E-03
    4   -0.19434849E+03   -0.23227031E-06    0.17431352E-04
    5   -0.19434849E+03   -0.53316853E-08    0.50523219E-05
    6   -0.19434849E+03   -0.29066882E-09    0.94546266E-06
    7   -0.19434849E+03   -0.46611603E-11    0.23141953E-06
    8   -0.19434849E+03   -0.56843419E-13    0.51175492E-07
    9   -0.19434849E+03    0.56843419E-13    0.12250672E-07
   10   -0.19434849E+03   -0.28421709E-13    0.13818728E-08

Total Energy:                     -192.3757451063 H        -5234.8104 eV
Extrapolated to 0K:               -192.3757451063 H        -5234.8104 eV
Total Mermin free energy:         -192.3757451063 H        -5234.8104 eV
Force related energy:             -192.3757451063 H        -5234.8104 eV

Volume:                              0.101409E+05 au^3   0.150272E+04 A^3
Pressure:                            0.792209E-06 au     0.233076E+08 Pa
>> Charges saved for restart in charges.bin

total energy  -1.9237575E+02 H       energy change -8.2205521E-05 H
gradient norm  7.5627625E-03 H/a0    max. gradient  1.6748416E-03 H/a0
step length    6.2726644E-02 a0      max. step      1.5180260E-02 a0

--------------------------------------------------------------------------------

***  Geometry step: 51

 iSCC Total electronic   Diff electronic      SCC error    
    1   -0.19434849E+03    0.00000000E+00    0.16424328E-02
    2   -0.19434930E+03   -0.80846064E-03    0.80158484E-03
    3   -0.19434930E+03   -0.18740172E-05    0.22382781E-03
    4   -0.19434930E+03   -0.39830661E-06    0.27123043E-04
    5   -0.19434930E+03   -0.93061772E-08    0.79266069E-05
    6   -0.19434930E+03   -0.60288130E-09    0.18481589E-05
    7   -0.19434930E+03   -0.10260237E-10    0.44912883E-06
    8   -0.19434930E+03   -0.28421709E-12    0.54475750E-07
    9   -0.19434930E+03   -0.85265128E-13    0.13522008E-07
   10   -0.19434930E+03    0.28421709E-13    0.16894743E-08

Total Energy:                     -192.3758410375 H        -5234.8130 eV
Extrapolated to 0K:               -192.3758410375 H        -5234.8130 eV
Total Mermin free energy:         -192.3758410375 H        -5234.8130 eV
Force related energy:             -192.3758410375 H        -5234.8130 eV

Volume:                              0.101422E+05 au^3   0.150292E+04 A^3
Pressure:                            0.953014E-06 au     0.280386E+08 Pa
>> Charges saved for restart in charges.bin

total energy  -1.9237584E+02 H       energy change -9.5931125E-05 H
gradient norm  7.0083545E-03 H/a0    max. gradient  1.9158221E-03 H/a0
step length    7.7951990E-02 a0      max. step      1.8408564E-02 a0

--------------------------------------------------------------------------------

***  Geometry step: 52

 iSCC Total electronic   Diff electronic      SCC error    
    1   -0.19434930E+03    0.00000000E+00    0.18443038E-02
    2   -0.19434925E+03    0.55173324E-04    0.73018062E-03
    3   -0.19434925E+03   -0.17591173E-05    0.17851782E-03
[...]
Extrapolated to 0K:               -192.3786408159 H        -5234.8892 eV
Total Mermin free energy:         -192.3786408159 H        -5234.8892 eV
Force related energy:             -192.3786408159 H        -5234.8892 eV

Volume:                              0.100109E+05 au^3   0.148346E+04 A^3
Pressure:                            0.318513E-07 au     0.937098E+06 Pa
>> Charges saved for restart in charges.bin

total energy  -1.9237864E+02 H       energy change -1.5274237E-06 H
gradient norm  1.0227199E-03 H/a0    max. gradient  2.3720571E-04 H/a0
step length    7.4040062E-03 a0      max. step      1.8759494E-03 a0

--------------------------------------------------------------------------------

***  Geometry step: 216

 iSCC Total electronic   Diff electronic      SCC error    
    1   -0.19433985E+03    0.00000000E+00    0.32149436E-03
    2   -0.19433995E+03   -0.10069087E-03    0.12402923E-03
    3   -0.19433995E+03   -0.63622082E-07    0.38399478E-04
    4   -0.19433995E+03   -0.12674491E-07    0.64197971E-05
    5   -0.19433995E+03   -0.18263790E-09    0.61299719E-06
    6   -0.19433995E+03   -0.19838353E-10    0.16008291E-06
    7   -0.19433995E+03   -0.39790393E-12    0.24007779E-07
    8   -0.19433995E+03    0.85265128E-13    0.70015149E-08

Total Energy:                     -192.3786429475 H        -5234.8892 eV
Extrapolated to 0K:               -192.3786429475 H        -5234.8892 eV
Total Mermin free energy:         -192.3786429475 H        -5234.8892 eV
Force related energy:             -192.3786429475 H        -5234.8892 eV

Volume:                              0.100109E+05 au^3   0.148346E+04 A^3
Pressure:                            0.187499E-07 au     0.551640E+06 Pa
>> Charges saved for restart in charges.bin

total energy  -1.9237864E+02 H       energy change -2.1316261E-06 H
gradient norm  1.0802733E-03 H/a0    max. gradient  2.0428330E-04 H/a0
step length    1.6607848E-02 a0      max. step      4.2622976E-03 a0

--------------------------------------------------------------------------------

***  Geometry step: 217

 iSCC Total electronic   Diff electronic      SCC error    
    1   -0.19433995E+03    0.00000000E+00    0.23108260E-03
    2   -0.19434011E+03   -0.15961290E-03    0.86001856E-04
    3   -0.19434011E+03   -0.47765099E-07    0.29977320E-04
    4   -0.19434011E+03   -0.91084189E-08    0.58441490E-05
    5   -0.19434011E+03   -0.12133228E-09    0.43696113E-06
    6   -0.19434011E+03   -0.11795009E-10    0.10362541E-06
    7   -0.19434011E+03   -0.19895197E-12    0.18214653E-07
    8   -0.19434011E+03   -0.56843419E-13    0.47674917E-08

Total Energy:                     -192.3786447909 H        -5234.8893 eV
Extrapolated to 0K:               -192.3786447909 H        -5234.8893 eV
Total Mermin free energy:         -192.3786447909 H        -5234.8893 eV
Force related energy:             -192.3786447909 H        -5234.8893 eV

Volume:                              0.100104E+05 au^3   0.148339E+04 A^3
Pressure:                            0.103491E-06 au     0.304482E+07 Pa
>> Charges saved for restart in charges.bin

total energy  -1.9237864E+02 H       energy change -1.8433594E-06 H
gradient norm  1.0370058E-03 H/a0    max. gradient  2.4574582E-04 H/a0
step length    1.4599040E-02 a0      max. step      4.0449392E-03 a0

--------------------------------------------------------------------------------

***  Geometry step: 218

 iSCC Total electronic   Diff electronic      SCC error    
    1   -0.19434011E+03    0.00000000E+00    0.19046393E-03
    2   -0.19434031E+03   -0.19965071E-03    0.83985416E-04
    3   -0.19434031E+03   -0.37409421E-07    0.21578383E-04
    4   -0.19434031E+03   -0.77970128E-08    0.43217112E-05
    5   -0.19434031E+03   -0.96974873E-10    0.46167745E-06
    6   -0.19434031E+03   -0.10061285E-10    0.13277556E-06
    7   -0.19434031E+03   -0.85265128E-13    0.18921270E-07
    8   -0.19434031E+03   -0.56843419E-13    0.44541544E-08

Total Energy:                     -192.3786465939 H        -5234.8893 eV
Extrapolated to 0K:               -192.3786465939 H        -5234.8893 eV
Total Mermin free energy:         -192.3786465939 H        -5234.8893 eV
Force related energy:             -192.3786465939 H        -5234.8893 eV

Volume:                              0.100100E+05 au^3   0.148333E+04 A^3
Pressure:                            0.199715E-06 au     0.587581E+07 Pa
>> Charges saved for restart in charges.bin

total energy  -1.9237865E+02 H       energy change -1.8030095E-06 H
gradient norm  9.7702688E-04 H/a0    max. gradient  2.3036968E-04 H/a0
step length    1.0377003E-02 a0      max. step      2.4645624E-03 a0

--------------------------------------------------------------------------------

***  Geometry step: 219

 iSCC Total electronic   Diff electronic      SCC error    
    1   -0.19434031E+03    0.00000000E+00    0.16990543E-03
    2   -0.19434031E+03    0.44060642E-05    0.81837775E-04
    3   -0.19434031E+03   -0.25113962E-07    0.28163941E-04
    4   -0.19434031E+03   -0.58714420E-08    0.26866871E-05
    5   -0.19434031E+03   -0.91574748E-10    0.81891933E-06
    6   -0.19434031E+03   -0.73043793E-11    0.16194830E-06
    7   -0.19434031E+03   -0.85265128E-13    0.14150573E-07
    8   -0.19434031E+03   -0.28421709E-13    0.45649258E-08

Total Energy:                     -192.3786481765 H        -5234.8894 eV
Extrapolated to 0K:               -192.3786481765 H        -5234.8894 eV
Total Mermin free energy:         -192.3786481765 H        -5234.8894 eV
Force related energy:             -192.3786481765 H        -5234.8894 eV

Volume:                              0.100098E+05 au^3   0.148330E+04 A^3
Pressure:                            0.208306E-06 au     0.612857E+07 Pa
>> Charges saved for restart in charges.bin

total energy  -1.9237865E+02 H       energy change -1.5825523E-06 H
gradient norm  9.5080642E-04 H/a0    max. gradient  2.6217539E-04 H/a0
step length    5.0735557E-03 a0      max. step      1.1964890E-03 a0

--------------------------------------------------------------------------------

***  Geometry step: 220

 iSCC Total electronic   Diff electronic      SCC error    
    1   -0.19434031E+03    0.00000000E+00    0.16740937E-03
    2   -0.19434013E+03    0.17878604E-03    0.93636505E-04
    3   -0.19434013E+03   -0.24444290E-07    0.32033337E-04
    4   -0.19434013E+03   -0.59800982E-08    0.19575932E-05
    5   -0.19434013E+03   -0.10416557E-09    0.68914850E-06
    6   -0.19434013E+03   -0.59117156E-11    0.11509923E-06
    7   -0.19434013E+03   -0.11368684E-12    0.97846131E-08

Total Energy:                     -192.3786496435 H        -5234.8894 eV
Extrapolated to 0K:               -192.3786496435 H        -5234.8894 eV
Total Mermin free energy:         -192.3786496435 H        -5234.8894 eV
Force related energy:             -192.3786496435 H        -5234.8894 eV

Volume:                              0.100098E+05 au^3   0.148330E+04 A^3
Pressure:                            0.141158E-06 au     0.415302E+07 Pa
>> Charges saved for restart in charges.bin

total energy  -1.9237865E+02 H       energy change -1.4670622E-06 H
gradient norm  9.1239726E-04 H/a0    max. gradient  2.4112829E-04 H/a0
step length    6.0972525E-03 a0      max. step      1.4519577E-03 a0

--------------------------------------------------------------------------------

***  Geometry step: 221

 iSCC Total electronic   Diff electronic      SCC error    
    1   -0.19434013E+03    0.00000000E+00    0.29140077E-03
    2   -0.19433989E+03    0.24210919E-03    0.13102586E-03
    3   -0.19433989E+03   -0.35391622E-07    0.26235531E-04
    4   -0.19433989E+03   -0.79936058E-08    0.22104918E-05
    5   -0.19433989E+03   -0.95838004E-10    0.31202718E-06
    6   -0.19433989E+03   -0.62811978E-11    0.63246880E-07
    7   -0.19433989E+03   -0.56843419E-13    0.11167498E-07
    8   -0.19433989E+03    0.28421709E-13    0.31835645E-08

Total Energy:                     -192.3786513058 H        -5234.8895 eV
Extrapolated to 0K:               -192.3786513058 H        -5234.8895 eV
Total Mermin free energy:         -192.3786513058 H        -5234.8895 eV
Force related energy:             -192.3786513058 H        -5234.8895 eV

Volume:                              0.100100E+05 au^3   0.148333E+04 A^3
Pressure:                            0.370274E-07 au     0.108938E+07 Pa
>> Charges saved for restart in charges.bin

total energy  -1.9237865E+02 H       energy change -1.6622577E-06 H
gradient norm  9.0860607E-04 H/a0    max. gradient  1.8342060E-04 H/a0
step length    1.7180662E-02 a0      max. step      3.7533709E-03 a0

--------------------------------------------------------------------------------

***  Geometry step: 222

 iSCC Total electronic   Diff electronic      SCC error    
    1   -0.19433989E+03    0.00000000E+00    0.23404475E-03
    2   -0.19433981E+03    0.83392509E-04    0.98373613E-04
    3   -0.19433981E+03   -0.37864169E-07    0.24587438E-04
    4   -0.19433981E+03   -0.81122948E-08    0.30645390E-05
    5   -0.19433981E+03   -0.81229246E-10    0.40214725E-06
    6   -0.19433981E+03   -0.72759576E-11    0.10961814E-06
    7   -0.19433981E+03   -0.85265128E-13    0.15675658E-07
    8   -0.19433981E+03   -0.56843419E-13    0.36568677E-08

Total Energy:                     -192.3786526079 H        -5234.8895 eV
Extrapolated to 0K:               -192.3786526079 H        -5234.8895 eV
Total Mermin free energy:         -192.3786526079 H        -5234.8895 eV
Force related energy:             -192.3786526079 H        -5234.8895 eV

Volume:                              0.100102E+05 au^3   0.148336E+04 A^3
Pressure:                           -0.316966E-07 au    -0.932545E+06 Pa
>> Charges saved for restart in charges.bin

total energy  -1.9237865E+02 H       energy change -1.3021363E-06 H
gradient norm  8.2463971E-04 H/a0    max. gradient  1.9370351E-04 H/a0
step length    1.6775808E-02 a0      max. step      3.6217824E-03 a0

--------------------------------------------------------------------------------

***  Geometry step: 223

 iSCC Total electronic   Diff electronic      SCC error    
    1   -0.19433981E+03    0.00000000E+00    0.12031623E-03
    2   -0.19433984E+03   -0.33526621E-04    0.52465779E-04
    3   -0.19433984E+03   -0.13875336E-07    0.15900756E-04
    4   -0.19433984E+03   -0.31420200E-08    0.20326940E-05
    5   -0.19433984E+03   -0.39278802E-10    0.30243798E-06
    6   -0.19433984E+03   -0.34390268E-11    0.52619326E-07
    7   -0.19433984E+03   -0.56843419E-13    0.67997044E-08

Total Energy:                     -192.3786533965 H        -5234.8895 eV
Extrapolated to 0K:               -192.3786533965 H        -5234.8895 eV
Total Mermin free energy:         -192.3786533965 H        -5234.8895 eV
Force related energy:             -192.3786533965 H        -5234.8895 eV

Volume:                              0.100102E+05 au^3   0.148336E+04 A^3
Pressure:                           -0.748614E-08 au    -0.220250E+06 Pa
>> Charges saved for restart in charges.bin

total energy  -1.9237865E+02 H       energy change -7.8860907E-07 H
gradient norm  6.6187890E-04 H/a0    max. gradient  1.1449662E-04 H/a0
step length    1.9694692E-03 a0      max. step      5.0077613E-04 a0

--------------------------------------------------------------------------------

***  Geometry step: 224

 iSCC Total electronic   Diff electronic      SCC error    
    1   -0.19433984E+03    0.00000000E+00    0.20786210E-03
    2   -0.19433983E+03    0.12483022E-04    0.96272521E-04
    3   -0.19433983E+03   -0.25733613E-07    0.18277864E-04
    4   -0.19433983E+03   -0.56502643E-08    0.23252623E-05
    5   -0.19433983E+03   -0.68325789E-10    0.67533957E-06
    6   -0.19433983E+03   -0.51443294E-11    0.91370349E-07
    7   -0.19433983E+03   -0.11368684E-12    0.98751554E-08

Total Energy:                     -192.3786543362 H        -5234.8895 eV
Extrapolated to 0K:               -192.3786543362 H        -5234.8895 eV
Total Mermin free energy:         -192.3786543362 H        -5234.8895 eV
Force related energy:             -192.3786543362 H        -5234.8895 eV

Volume:                              0.100101E+05 au^3   0.148334E+04 A^3
Pressure:                           -0.200651E-07 au    -0.590336E+06 Pa
>> Charges saved for restart in charges.bin

total energy  -1.9237865E+02 H       energy change -9.3967176E-07 H
gradient norm  7.7443623E-04 H/a0    max. gradient  1.9674142E-04 H/a0
step length    3.4570399E-03 a0      max. step      9.8091719E-04 a0

--------------------------------------------------------------------------------

***  Geometry step: 225

 iSCC Total electronic   Diff electronic      SCC error    
    1   -0.19433983E+03    0.00000000E+00    0.13404379E-03
    2   -0.19433992E+03   -0.90785214E-04    0.60598131E-04
    3   -0.19433992E+03   -0.10615452E-07    0.16754385E-04
    4   -0.19433992E+03   -0.23421762E-08    0.17824523E-05
    5   -0.19433992E+03   -0.33168135E-10    0.54452449E-06
    6   -0.19433992E+03   -0.25011104E-11    0.10274633E-06
    7   -0.19433992E+03    0.28421709E-13    0.77639641E-08

Total Energy:                     -192.3786551980 H        -5234.8896 eV
Extrapolated to 0K:               -192.3786551980 H        -5234.8896 eV
Total Mermin free energy:         -192.3786551980 H        -5234.8896 eV
Force related energy:             -192.3786551980 H        -5234.8896 eV

Volume:                              0.100098E+05 au^3   0.148331E+04 A^3
Pressure:                            0.396188E-07 au     0.116562E+07 Pa
>> Charges saved for restart in charges.bin

total energy  -1.9237866E+02 H       energy change -8.6176212E-07 H
gradient norm  8.5766905E-04 H/a0    max. gradient  2.4303748E-04 H/a0
step length    3.8404925E-03 a0      max. step      1.2712205E-03 a0

--------------------------------------------------------------------------------

***  Geometry step: 226

 iSCC Total electronic   Diff electronic      SCC error    
    1   -0.19433992E+03    0.00000000E+00    0.22405730E-03
    2   -0.19433992E+03   -0.44760293E-05    0.90272398E-04
    3   -0.19433992E+03   -0.30198493E-07    0.20095860E-04
    4   -0.19433992E+03   -0.62475181E-08    0.27877959E-05
    5   -0.19433992E+03   -0.80916607E-10    0.66635979E-06
    6   -0.19433992E+03   -0.61106675E-11    0.13452318E-06
    7   -0.19433992E+03   -0.25579538E-12    0.11707126E-07
    8   -0.19433992E+03    0.17053026E-12    0.43012558E-08

Total Energy:                     -192.3786568936 H        -5234.8896 eV
Extrapolated to 0K:               -192.3786568936 H        -5234.8896 eV
Total Mermin free energy:         -192.3786568936 H        -5234.8896 eV
Force related energy:             -192.3786568936 H        -5234.8896 eV

Volume:                              0.100095E+05 au^3   0.148326E+04 A^3
Pressure:                            0.524139E-07 au     0.154207E+07 Pa
>> Charges saved for restart in charges.bin

total energy  -1.9237866E+02 H       energy change -1.6956132E-06 H
gradient norm  9.7460799E-04 H/a0    max. gradient  2.2234716E-04 H/a0
step length    1.7710404E-02 a0      max. step      4.7192449E-03 a0

--------------------------------------------------------------------------------

***  Geometry step: 227

 iSCC Total electronic   Diff electronic      SCC error    
    1   -0.19433992E+03    0.00000000E+00    0.12907699E-03
    2   -0.19434003E+03   -0.10495654E-03    0.70253032E-04
    3   -0.19434003E+03   -0.18009445E-07    0.24645359E-04
    4   -0.19434003E+03   -0.40137706E-08    0.28705815E-05
    5   -0.19434003E+03   -0.62016170E-10    0.50793510E-06
    6   -0.19434003E+03   -0.57127636E-11    0.13013754E-06
    7   -0.19434003E+03   -0.25579538E-12    0.14290805E-07
    8   -0.19434003E+03    0.28421709E-13    0.39384771E-08

Total Energy:                     -192.3786579261 H        -5234.8896 eV
Extrapolated to 0K:               -192.3786579261 H        -5234.8896 eV
Total Mermin free energy:         -192.3786579261 H        -5234.8896 eV
Force related energy:             -192.3786579261 H        -5234.8896 eV

Volume:                              0.100091E+05 au^3   0.148320E+04 A^3
Pressure:                            0.114343E-06 au     0.336409E+07 Pa
>> Charges saved for restart in charges.bin

total energy  -1.9237866E+02 H       energy change -1.0325330E-06 H
gradient norm  7.6758839E-04 H/a0    max. gradient  1.4689173E-04 H/a0
step length    5.6293546E-03 a0      max. step      1.8494437E-03 a0

--------------------------------------------------------------------------------

***  Geometry step: 228

 iSCC Total electronic   Diff electronic      SCC error    
    1   -0.19434003E+03    0.00000000E+00    0.14395355E-03
    2   -0.19434005E+03   -0.21613881E-04    0.69430637E-04
    3   -0.19434005E+03   -0.23734287E-07    0.19090131E-04
    4   -0.19434005E+03   -0.48592881E-08    0.37227763E-05
    5   -0.19434005E+03   -0.47890580E-10    0.35527247E-06
    6   -0.19434005E+03   -0.36664005E-11    0.65633313E-07
    7   -0.19434005E+03   -0.11368684E-12    0.15666882E-07
    8   -0.19434005E+03   -0.28421709E-13    0.32984122E-08

Total Energy:                     -192.3786587309 H        -5234.8897 eV
Extrapolated to 0K:               -192.3786587309 H        -5234.8897 eV
Total Mermin free energy:         -192.3786587309 H        -5234.8897 eV
Force related energy:             -192.3786587309 H        -5234.8897 eV

Volume:                              0.100089E+05 au^3   0.148316E+04 A^3
Pressure:                            0.135044E-06 au     0.397313E+07 Pa
>> Charges saved for restart in charges.bin

total energy  -1.9237866E+02 H       energy change -8.0482965E-07 H
gradient norm  5.6924519E-04 H/a0    max. gradient  1.0820334E-04 H/a0
step length    6.0217092E-03 a0      max. step      1.8561404E-03 a0

--------------------------------------------------------------------------------

***  Geometry step: 229

 iSCC Total electronic   Diff electronic      SCC error    
    1   -0.19434005E+03    0.00000000E+00    0.10054852E-03
    2   -0.19434005E+03    0.16883641E-05    0.43594797E-04
    3   -0.19434005E+03   -0.87220826E-08    0.90113724E-05
    4   -0.19434005E+03   -0.18300739E-08    0.18279747E-05
    5   -0.19434005E+03   -0.19440449E-10    0.17150232E-06
    6   -0.19434005E+03   -0.16484591E-11    0.35754205E-07
    7   -0.19434005E+03    0.00000000E+00    0.85878002E-08

Total Energy:                     -192.3786591793 H        -5234.8897 eV
Extrapolated to 0K:               -192.3786591793 H        -5234.8897 eV
Total Mermin free energy:         -192.3786591793 H        -5234.8897 eV
Force related energy:             -192.3786591793 H        -5234.8897 eV

Volume:                              0.100089E+05 au^3   0.148316E+04 A^3
Pressure:                            0.129398E-06 au     0.380701E+07 Pa
>> Charges saved for restart in charges.bin

total energy  -1.9237866E+02 H       energy change -4.4838458E-07 H
gradient norm  5.1744326E-04 H/a0    max. gradient  9.5687108E-05 H/a0
step length    1.6179079E-03 a0      max. step      4.5459876E-04 a0

Geometry converged

--------------------------------------------------------------------------------
DFTB+ running times                          cpu [s]             wall clock [s]
--------------------------------------------------------------------------------
Pre-SCC initialisation                 +      19.14 (  0.9%)       3.00 (  1.2%)
SCC                                    +    1824.66 ( 88.2%)     230.74 ( 89.2%)
Post-SCC processing                    +     224.15 ( 10.8%)      24.82 (  9.6%)
--------------------------------------------------------------------------------
Missing                                +       0.06 (  0.0%)       0.01 (  0.0%)
Total                                  =    2068.01 (100.0%)     258.58 (100.0%)
--------------------------------------------------------------------------------
