|===============================================================================
|
|  DFTB+ release 24.1
|
|  Copyright (C) 2006 - 2024  DFTB+ developers group
|
|===============================================================================
|
|  When publishing results obtained with DFTB+, please cite the following
|  reference:
|
|  * DFTB+, a software package for efficient approximate density functional
|    theory based atomistic simulations, J. Chem. Phys. 152, 124101 (2020).
|    [doi: 10.1063/1.5143190]
|
|  You should also cite additional publications crediting the parametrization
|  data you use. Please consult the documentation of the SK-files for the
|  references.
|
|===============================================================================

Reading input file 'dftb_in.hsd'
Parser version: 14

--------------------------------------------------------------------------------
Reading SK-files:
./SKFiles/Ge-Ge.skf
./SKFiles/Ge-Si.skf
./SKFiles/Ge-O.skf
./SKFiles/Si-Si.skf
./SKFiles/Si-O.skf
./SKFiles/O-O.skf
Done.


Processed input in HSD format written to 'dftb_pin.hsd'

Starting initialization...
--------------------------------------------------------------------------------
WARNING!
-> Dipole printed for extended system : value printed is not well defined
MPI processes:               1
OpenMP threads:              8
BLACS orbital grid size:     1 x 1
BLACS atom grid size:        1 x 1
Chosen random seed:          152006732
Current stacksize:           unlimited
Mode:                        Static calculation
Self consistent charges:     Yes
SCC-tolerance:                 0.100000E-07
Max. scc iterations:                    500
Shell resolved Hubbard:      No
Spin polarisation:           No
Nr. of up electrons:           192.000000
Nr. of down electrons:         192.000000
Periodic boundaries:         Yes
Electronic solver:           Relatively robust
Mixer:                       Broyden mixer
Mixing parameter:                  0.200000
Maximal SCC-cycles:                     500
Nr. of chrg. vec. in memory:            500
Electronic temperature:              0.100000E-07 H      0.272114E-06 eV
Initial charges:             Set automatically (system chrg:   0.000E+00)
Included shells:            Ge:  s, p, d
                            Si:  s, p, d
                             O:  s, p
K-points and weights:           1:  0.500000  0.500000  0.500000     1.000000

K-points in absolute space:     1:  0.025319  0.017606  0.037774

Extra options:
                             Mulliken analysis
Force type                   original

--------------------------------------------------------------------------------

***  Geometry step: 0

 iSCC Total electronic   Diff electronic      SCC error    
    1    0.00000000E+00    0.00000000E+00    0.14596921E+01
    2   -0.19479962E+03   -0.19479962E+03    0.99405774E+00
    3   -0.19516648E+03   -0.36685850E+00    0.61566332E-01
    4   -0.19548232E+03   -0.31584697E+00    0.28579544E-01
    5   -0.19548445E+03   -0.21258032E-02    0.78369376E-02
    6   -0.19548460E+03   -0.15561691E-03    0.17616023E-02
    7   -0.19548461E+03   -0.49317296E-05    0.53369238E-03
    8   -0.19548461E+03   -0.11728361E-05    0.58585350E-04
    9   -0.19548461E+03   -0.78661742E-07    0.34581294E-04
   10   -0.19548461E+03   -0.55990768E-10    0.13016287E-05
   11   -0.19548461E+03   -0.26679459E-09    0.50936573E-06
   12   -0.19548461E+03   -0.35527137E-11    0.18218521E-06
   13   -0.19548461E+03    0.11368684E-12    0.17121321E-07
   14   -0.19548461E+03    0.00000000E+00    0.27328997E-08

Total Energy:                     -191.8767919926 H        -5221.2332 eV
Extrapolated to 0K:               -191.8767919926 H        -5221.2332 eV
Total Mermin free energy:         -191.8767919926 H        -5221.2332 eV
Force related energy:             -191.8767919926 H        -5221.2332 eV

Volume:                              0.913789E+04 au^3   0.135410E+04 A^3
Pressure:                            0.714688E-03 au     0.210268E+11 Pa
>> Charges saved for restart in charges.bin

total energy  -1.9187679E+02 H       energy change -1.9187679E+02 H
gradient norm  7.6012092E-01 H/a0    max. gradient  2.9010761E-01 H/a0
step length    0.0000000E+00 a0      max. step      0.0000000E+00 a0

--------------------------------------------------------------------------------

***  Geometry step: 1

 iSCC Total electronic   Diff electronic      SCC error    
    1   -0.19548461E+03    0.00000000E+00    0.71091861E-01
    2   -0.19519156E+03    0.29305099E+00    0.38839006E-01
    3   -0.19519584E+03   -0.42841959E-02    0.12093525E-01
    4   -0.19519688E+03   -0.10338450E-02    0.95937932E-03
    5   -0.19519689E+03   -0.14715337E-04    0.37225497E-03
    6   -0.19519689E+03   -0.49578713E-06    0.14622461E-03
    7   -0.19519689E+03   -0.33800433E-07    0.19501420E-04
    8   -0.19519689E+03   -0.31499496E-08    0.16940913E-05
    9   -0.19519689E+03   -0.16058266E-09    0.57543561E-06
   10   -0.19519689E+03   -0.37516656E-11    0.18780996E-06
   11   -0.19519689E+03   -0.85265128E-13    0.27528144E-07
   12   -0.19519689E+03    0.28421709E-13    0.39545807E-08

Total Energy:                     -192.0483121709 H        -5225.9005 eV
Extrapolated to 0K:               -192.0483121709 H        -5225.9005 eV
Total Mermin free energy:         -192.0483121709 H        -5225.9005 eV
Force related energy:             -192.0483121709 H        -5225.9005 eV

Volume:                              0.936996E+04 au^3   0.138848E+04 A^3
Pressure:                            0.497914E-03 au     0.146491E+11 Pa
>> Charges saved for restart in charges.bin

total energy  -1.9204831E+02 H       energy change -1.7152018E-01 H
gradient norm  4.8578739E-01 H/a0    max. gradient  1.5917371E-01 H/a0
step length    5.3915929E-01 a0      max. step      2.0577544E-01 a0

--------------------------------------------------------------------------------

***  Geometry step: 2

 iSCC Total electronic   Diff electronic      SCC error    
    1   -0.19519689E+03    0.00000000E+00    0.55257029E-01
    2   -0.19510353E+03    0.93358340E-01    0.31721662E-01
    3   -0.19510593E+03   -0.24001904E-02    0.74136893E-02
    4   -0.19510654E+03   -0.60889476E-03    0.73633788E-03
    5   -0.19510655E+03   -0.54721800E-05    0.24638379E-03
    6   -0.19510655E+03   -0.25822922E-06    0.84065242E-04
    7   -0.19510655E+03   -0.14120644E-07    0.15793785E-04
    8   -0.19510655E+03   -0.16847537E-08    0.14350005E-05
    9   -0.19510655E+03   -0.74322770E-10    0.48107346E-06
   10   -0.19510655E+03   -0.19610980E-11    0.18004959E-06
   11   -0.19510655E+03    0.00000000E+00    0.25473665E-07
   12   -0.19510655E+03   -0.11368684E-12    0.25926168E-08

Total Energy:                     -192.1698581735 H        -5229.2079 eV
Extrapolated to 0K:               -192.1698581735 H        -5229.2079 eV
Total Mermin free energy:         -192.1698581735 H        -5229.2079 eV
Force related energy:             -192.1698581735 H        -5229.2079 eV

Volume:                              0.937298E+04 au^3   0.138893E+04 A^3
Pressure:                            0.418784E-03 au     0.123211E+11 Pa
>> Charges saved for restart in charges.bin

total energy  -1.9216986E+02 H       energy change -1.2154600E-01 H
gradient norm  2.8525824E-01 H/a0    max. gradient  5.7546238E-02 H/a0
step length    4.0400918E-01 a0      max. step      7.6249707E-02 a0

--------------------------------------------------------------------------------

***  Geometry step: 3

 iSCC Total electronic   Diff electronic      SCC error    
    1   -0.19510655E+03    0.00000000E+00    0.57310356E-01
    2   -0.19485977E+03    0.24677585E+00    0.32804039E-01
    3   -0.19486159E+03   -0.18174723E-02    0.55446319E-02
    4   -0.19486210E+03   -0.50503487E-03    0.73890945E-03
    5   -0.19486210E+03   -0.63681988E-05    0.22842554E-03
    6   -0.19486210E+03   -0.35113487E-06    0.80768087E-04
    7   -0.19486210E+03   -0.10434121E-07    0.10346101E-04
    8   -0.19486210E+03   -0.14213697E-08    0.19138620E-05
    9   -0.19486210E+03   -0.75687012E-10    0.48983699E-06
   10   -0.19486210E+03   -0.13926638E-11    0.10689448E-06
   11   -0.19486210E+03   -0.85265128E-13    0.21264877E-07
   12   -0.19486210E+03    0.14210855E-12    0.44342650E-08

Total Energy:                     -192.2619799416 H        -5231.7147 eV
Extrapolated to 0K:               -192.2619799416 H        -5231.7147 eV
Total Mermin free energy:         -192.2619799416 H        -5231.7147 eV
Force related energy:             -192.2619799416 H        -5231.7147 eV

Volume:                              0.948422E+04 au^3   0.140542E+04 A^3
Pressure:                            0.283994E-03 au     0.835538E+10 Pa
>> Charges saved for restart in charges.bin

total energy  -1.9226198E+02 H       energy change -9.2121768E-02 H
gradient norm  2.1307280E-01 H/a0    max. gradient  9.9479721E-02 H/a0
step length    5.4778429E-01 a0      max. step      1.1120743E-01 a0

--------------------------------------------------------------------------------

***  Geometry step: 4

 iSCC Total electronic   Diff electronic      SCC error    
    1   -0.19486210E+03    0.00000000E+00    0.44100484E-01
    2   -0.19461027E+03    0.25183018E+00    0.25516607E-01
    3   -0.19461119E+03   -0.91640756E-03    0.43998354E-02
    4   -0.19461142E+03   -0.22723875E-03    0.62861852E-03
    5   -0.19461142E+03   -0.56342102E-05    0.20081315E-03
    6   -0.19461142E+03   -0.26448367E-06    0.96738612E-04
    7   -0.19461142E+03   -0.43536090E-08    0.73657646E-05
    8   -0.19461142E+03   -0.97963948E-09    0.21620380E-05
    9   -0.19461142E+03   -0.39790393E-10    0.28403966E-06
   10   -0.19461142E+03   -0.62527761E-12    0.62089157E-07
   11   -0.19461142E+03    0.00000000E+00    0.18200315E-07
   12   -0.19461142E+03    0.28421709E-13    0.43564485E-08

Total Energy:                     -192.3088659947 H        -5232.9905 eV
Extrapolated to 0K:               -192.3088659947 H        -5232.9905 eV
Total Mermin free energy:         -192.3088659947 H        -5232.9905 eV
Force related energy:             -192.3088659947 H        -5232.9905 eV

Volume:                              0.960534E+04 au^3   0.142337E+04 A^3
Pressure:                            0.162762E-03 au     0.478862E+10 Pa
>> Charges saved for restart in charges.bin

total energy  -1.9230887E+02 H       energy change -4.6886053E-02 H
gradient norm  1.7765955E-01 H/a0    max. gradient  9.6895199E-02 H/a0
step length    4.9916099E-01 a0      max. step      1.1260576E-01 a0

--------------------------------------------------------------------------------

***  Geometry step: 5

 iSCC Total electronic   Diff electronic      SCC error    
    1   -0.19461142E+03    0.00000000E+00    0.25983886E-01
    2   -0.19447139E+03    0.14002958E+00    0.14307972E-01
    3   -0.19447182E+03   -0.43154750E-03    0.19557905E-02
    4   -0.19447194E+03   -0.11579069E-03    0.28748238E-03
    5   -0.19447194E+03   -0.17539451E-05    0.99275963E-04
    6   -0.19447194E+03   -0.73708293E-07    0.48682271E-04
    7   -0.19447194E+03   -0.19637412E-08    0.49903447E-05
    8   -0.19447194E+03   -0.26335556E-09    0.99508806E-06
    9   -0.19447194E+03   -0.17450930E-10    0.17180901E-06
   10   -0.19447194E+03   -0.28421709E-12    0.33961148E-07
   11   -0.19447194E+03    0.00000000E+00    0.81925173E-08

Total Energy:                     -192.3322215172 H        -5233.6260 eV
Extrapolated to 0K:               -192.3322215172 H        -5233.6260 eV
Total Mermin free energy:         -192.3322215172 H        -5233.6260 eV
Force related energy:             -192.3322215172 H        -5233.6260 eV

Volume:                              0.966102E+04 au^3   0.143162E+04 A^3
Pressure:                            0.101546E-03 au     0.298760E+10 Pa
>> Charges saved for restart in charges.bin

total energy  -1.9233222E+02 H       energy change -2.3355522E-02 H
gradient norm  9.4611210E-02 H/a0    max. gradient  2.2994215E-02 H/a0
step length    3.3532792E-01 a0      max. step      6.2323963E-02 a0

--------------------------------------------------------------------------------

***  Geometry step: 6

 iSCC Total electronic   Diff electronic      SCC error    
    1   -0.19447194E+03    0.00000000E+00    0.14216642E-01
    2   -0.19437315E+03    0.98796111E-01    0.62612655E-02
    3   -0.19437333E+03   -0.18032114E-03    0.20987526E-02
    4   -0.19437336E+03   -0.39329674E-04    0.27675637E-03
    5   -0.19437337E+03   -0.67514480E-06    0.64465182E-04
    6   -0.19437337E+03   -0.43615643E-07    0.29009615E-04
    7   -0.19437337E+03   -0.81212193E-09    0.42077802E-05
    8   -0.19437337E+03   -0.96946451E-10    0.84558109E-06
    9   -0.19437337E+03   -0.85549345E-11    0.17390074E-06
   10   -0.19437337E+03   -0.19895197E-12    0.18932785E-07
   11   -0.19437337E+03   -0.28421709E-13    0.53963234E-08

Total Energy:                     -192.3436152699 H        -5233.9361 eV
Extrapolated to 0K:               -192.3436152699 H        -5233.9361 eV
Total Mermin free energy:         -192.3436152699 H        -5233.9361 eV
Force related energy:             -192.3436152699 H        -5233.9361 eV

Volume:                              0.970905E+04 au^3   0.143873E+04 A^3
Pressure:                            0.564211E-04 au     0.165996E+10 Pa
>> Charges saved for restart in charges.bin

total energy  -1.9234362E+02 H       energy change -1.1393753E-02 H
gradient norm  7.0059754E-02 H/a0    max. gradient  1.1870578E-02 H/a0
step length    2.6414982E-01 a0      max. step      5.5597394E-02 a0

--------------------------------------------------------------------------------

***  Geometry step: 7

 iSCC Total electronic   Diff electronic      SCC error    
    1   -0.19437337E+03    0.00000000E+00    0.95603201E-02
    2   -0.19434058E+03    0.32787343E-01    0.52771545E-02
    3   -0.19434075E+03   -0.17512838E-03    0.17977148E-02
    4   -0.19434080E+03   -0.41780220E-04    0.30570621E-03
    5   -0.19434080E+03   -0.59127942E-06    0.48371420E-04
    6   -0.19434080E+03   -0.64956339E-07    0.18124872E-04
    7   -0.19434080E+03   -0.13152430E-08    0.49154723E-05
    8   -0.19434080E+03   -0.55990768E-10    0.61419861E-06
    9   -0.19434080E+03   -0.55138116E-11    0.15026656E-06
   10   -0.19434080E+03   -0.14210855E-12    0.16881343E-07
   11   -0.19434080E+03   -0.28421709E-13    0.30242608E-08

Total Energy:                     -192.3508637134 H        -5234.1333 eV
Extrapolated to 0K:               -192.3508637134 H        -5234.1333 eV
Total Mermin free energy:         -192.3508637134 H        -5234.1333 eV
Force related energy:             -192.3508637134 H        -5234.1333 eV

Volume:                              0.972238E+04 au^3   0.144071E+04 A^3
Pressure:                            0.402537E-04 au     0.118431E+10 Pa
>> Charges saved for restart in charges.bin

total energy  -1.9235086E+02 H       energy change -7.2484436E-03 H
gradient norm  6.0453286E-02 H/a0    max. gradient  2.0730184E-02 H/a0
step length    2.1615544E-01 a0      max. step      4.7172685E-02 a0

--------------------------------------------------------------------------------

***  Geometry step: 8

 iSCC Total electronic   Diff electronic      SCC error    
    1   -0.19434080E+03    0.00000000E+00    0.14742006E-01
    2   -0.19434045E+03    0.34112975E-03    0.88809046E-02
    3   -0.19434059E+03   -0.13831389E-03    0.15990167E-02
    4   -0.19434063E+03   -0.36721621E-04    0.18586617E-03
    5   -0.19434063E+03   -0.10653831E-05    0.73089546E-04
    6   -0.19434063E+03   -0.38084664E-07    0.17896208E-04
    7   -0.19434063E+03   -0.11672512E-08    0.33440727E-05
    8   -0.19434063E+03   -0.81797680E-10    0.67231457E-06
    9   -0.19434063E+03   -0.96065378E-11    0.14147526E-06
   10   -0.19434063E+03   -0.31263880E-12    0.12067571E-07
   11   -0.19434063E+03    0.11368684E-12    0.40518722E-08

Total Energy:                     -192.3557108560 H        -5234.2652 eV
Extrapolated to 0K:               -192.3557108560 H        -5234.2652 eV
Total Mermin free energy:         -192.3557108560 H        -5234.2652 eV
Force related energy:             -192.3557108560 H        -5234.2652 eV

Volume:                              0.972786E+04 au^3   0.144152E+04 A^3
Pressure:                            0.352377E-04 au     0.103673E+10 Pa
>> Charges saved for restart in charges.bin

total energy  -1.9235571E+02 H       energy change -4.8471426E-03 H
gradient norm  5.3102624E-02 H/a0    max. gradient  1.8587007E-02 H/a0
step length    1.9202492E-01 a0      max. step      3.6766517E-02 a0

--------------------------------------------------------------------------------

***  Geometry step: 9

 iSCC Total electronic   Diff electronic      SCC error    
    1   -0.19434063E+03    0.00000000E+00    0.10048941E-01
    2   -0.19436131E+03   -0.20680328E-01    0.62236423E-02
    3   -0.19436136E+03   -0.52415501E-04    0.10853870E-02
    4   -0.19436138E+03   -0.14949044E-04    0.14762616E-03
    5   -0.19436138E+03   -0.66502494E-06    0.51667059E-04
    6   -0.19436138E+03   -0.26666157E-07    0.11271359E-04
    7   -0.19436138E+03   -0.70713213E-09    0.24467172E-05
    8   -0.19436138E+03   -0.44082071E-10    0.48926826E-06
    9   -0.19436138E+03   -0.48316906E-11    0.93897755E-07
   10   -0.19436138E+03   -0.17053026E-12    0.90289154E-08

Total Energy:                     -192.3587018894 H        -5234.3466 eV
Extrapolated to 0K:               -192.3587018894 H        -5234.3466 eV
Total Mermin free energy:         -192.3587018894 H        -5234.3466 eV
Force related energy:             -192.3587018894 H        -5234.3466 eV

Volume:                              0.971932E+04 au^3   0.144026E+04 A^3
Pressure:                            0.410460E-04 au     0.120762E+10 Pa
>> Charges saved for restart in charges.bin

total energy  -1.9235870E+02 H       energy change -2.9910334E-03 H
gradient norm  4.1436076E-02 H/a0    max. gradient  8.3756111E-03 H/a0
step length    1.3684926E-01 a0      max. step      2.2808223E-02 a0

--------------------------------------------------------------------------------

***  Geometry step: 10

 iSCC Total electronic   Diff electronic      SCC error    
    1   -0.19436138E+03    0.00000000E+00    0.10390143E-01
    2   -0.19437700E+03   -0.15617672E-01    0.58846466E-02
    3   -0.19437707E+03   -0.71983242E-04    0.14650564E-02
    4   -0.19437709E+03   -0.18516566E-04    0.16258575E-03
    5   -0.19437709E+03   -0.77165399E-06    0.46502924E-04
    6   -0.19437709E+03   -0.21627841E-07    0.16286173E-04
    7   -0.19437709E+03   -0.49780624E-09    0.17179737E-05
    8   -0.19437709E+03   -0.68382633E-10    0.36423896E-06
    9   -0.19437709E+03   -0.20179414E-11    0.46359646E-07
   10   -0.19437709E+03   -0.19895197E-12    0.12395842E-07
   11   -0.19437709E+03    0.11368684E-12    0.26849221E-08

Total Energy:                     -192.3617724811 H        -5234.4302 eV
Extrapolated to 0K:               -192.3617724811 H        -5234.4302 eV
Total Mermin free energy:         -192.3617724811 H        -5234.4302 eV
Force related energy:             -192.3617724811 H        -5234.4302 eV

Volume:                              0.971960E+04 au^3   0.144030E+04 A^3
Pressure:                            0.443592E-04 au     0.130509E+10 Pa
>> Charges saved for restart in charges.bin

total energy  -1.9236177E+02 H       energy change -3.0705917E-03 H
gradient norm  3.7705491E-02 H/a0    max. gradient  7.1371811E-03 H/a0
step length    1.6170926E-01 a0      max. step      2.7700425E-02 a0

--------------------------------------------------------------------------------

***  Geometry step: 11

 iSCC Total electronic   Diff electronic      SCC error    
    1   -0.19437709E+03    0.00000000E+00    0.90202673E-02
    2   -0.19437653E+03    0.55568291E-03    0.49203146E-02
    3   -0.19437660E+03   -0.70319001E-04    0.14413154E-02
    4   -0.19437662E+03   -0.16409474E-04    0.16297482E-03
    5   -0.19437662E+03   -0.43087005E-06    0.19784755E-04
    6   -0.19437662E+03   -0.20355088E-07    0.65923905E-05
    7   -0.19437662E+03   -0.20625635E-09    0.13279265E-05
    8   -0.19437662E+03   -0.32088110E-10    0.23624751E-06
    9   -0.19437662E+03   -0.85265128E-12    0.44328384E-07
   10   -0.19437662E+03   -0.11368684E-12    0.89864725E-08

Total Energy:                     -192.3643102467 H        -5234.4992 eV
Extrapolated to 0K:               -192.3643102467 H        -5234.4992 eV
Total Mermin free energy:         -192.3643102467 H        -5234.4992 eV
Force related energy:             -192.3643102467 H        -5234.4992 eV

Volume:                              0.973060E+04 au^3   0.144193E+04 A^3
Pressure:                            0.414449E-04 au     0.121935E+10 Pa
>> Charges saved for restart in charges.bin

total energy  -1.9236431E+02 H       energy change -2.5377656E-03 H
gradient norm  3.8681209E-02 H/a0    max. gradient  1.6168680E-02 H/a0
step length    1.6391849E-01 a0      max. step      3.0411344E-02 a0

--------------------------------------------------------------------------------

***  Geometry step: 12

 iSCC Total electronic   Diff electronic      SCC error    
    1   -0.19437662E+03    0.00000000E+00    0.79797104E-02
    2   -0.19436129E+03    0.15325623E-01    0.50415846E-02
    3   -0.19436133E+03   -0.40584835E-04    0.15234262E-02
    4   -0.19436134E+03   -0.93524081E-05    0.14158510E-03
    5   -0.19436134E+03   -0.25422491E-06    0.16611199E-04
    6   -0.19436134E+03   -0.16989418E-07    0.66690460E-05
    7   -0.19436134E+03   -0.24763835E-09    0.19150455E-05
    8   -0.19436134E+03   -0.13244517E-10    0.24568773E-06
    9   -0.19436134E+03   -0.93791641E-12    0.82848294E-07
   10   -0.19436134E+03    0.00000000E+00    0.12198178E-07
   11   -0.19436134E+03   -0.56843419E-13    0.13879897E-08

Total Energy:                     -192.3663710703 H        -5234.5553 eV
Extrapolated to 0K:               -192.3663710703 H        -5234.5553 eV
Total Mermin free energy:         -192.3663710703 H        -5234.5553 eV
Force related energy:             -192.3663710703 H        -5234.5553 eV

Volume:                              0.975263E+04 au^3   0.144519E+04 A^3
Pressure:                            0.324926E-04 au     0.955964E+09 Pa
>> Charges saved for restart in charges.bin

total energy  -1.9236637E+02 H       energy change -2.0608236E-03 H
gradient norm  3.4374000E-02 H/a0    max. gradient  1.2127747E-02 H/a0
step length    1.5822606E-01 a0      max. step      2.8585096E-02 a0

--------------------------------------------------------------------------------

***  Geometry step: 13

 iSCC Total electronic   Diff electronic      SCC error    
    1   -0.19436134E+03    0.00000000E+00    0.68818712E-02
    2   -0.19434361E+03    0.17730440E-01    0.42064770E-02
    3   -0.19434364E+03   -0.25684028E-04    0.12170234E-02
    4   -0.19434365E+03   -0.56428876E-05    0.11918408E-03
    5   -0.19434365E+03   -0.15783147E-06    0.23752579E-04
    6   -0.19434365E+03   -0.11176155E-07    0.90028409E-05
    7   -0.19434365E+03   -0.23982238E-09    0.22388338E-05
    8   -0.19434365E+03   -0.11198154E-10    0.21279905E-06
    9   -0.19434365E+03   -0.99475983E-12    0.58809078E-07
   10   -0.19434365E+03    0.28421709E-13    0.10933897E-07
   11   -0.19434365E+03   -0.28421709E-13    0.93989705E-09

Total Energy:                     -192.3679215280 H        -5234.5975 eV
Extrapolated to 0K:               -192.3679215280 H        -5234.5975 eV
Total Mermin free energy:         -192.3679215280 H        -5234.5975 eV
Force related energy:             -192.3679215280 H        -5234.5975 eV

Volume:                              0.977947E+04 au^3   0.144917E+04 A^3
Pressure:                            0.231747E-04 au     0.681822E+09 Pa
>> Charges saved for restart in charges.bin

total energy  -1.9236792E+02 H       energy change -1.5504577E-03 H
gradient norm  2.6346711E-02 H/a0    max. gradient  7.0045306E-03 H/a0
step length    1.4120357E-01 a0      max. step      2.6024737E-02 a0

--------------------------------------------------------------------------------

***  Geometry step: 14

 iSCC Total electronic   Diff electronic      SCC error    
    1   -0.19434365E+03    0.00000000E+00    0.58598545E-02
    2   -0.19433380E+03    0.98438995E-02    0.24813676E-02
    3   -0.19433382E+03   -0.22243384E-04    0.78900503E-03
    4   -0.19433383E+03   -0.47930687E-05    0.97280263E-04
    5   -0.19433383E+03   -0.88643958E-07    0.12721757E-04
    6   -0.19433383E+03   -0.86903640E-08    0.34342656E-05
    7   -0.19433383E+03   -0.30323122E-09    0.14810465E-05
    8   -0.19433383E+03   -0.15404567E-10    0.35526697E-06
    9   -0.19433383E+03   -0.73896445E-12    0.38418269E-07
   10   -0.19433383E+03   -0.56843419E-13    0.80160549E-08

Total Energy:                     -192.3689695420 H        -5234.6260 eV
Extrapolated to 0K:               -192.3689695420 H        -5234.6260 eV
Total Mermin free energy:         -192.3689695420 H        -5234.6260 eV
Force related energy:             -192.3689695420 H        -5234.6260 eV

Volume:                              0.980042E+04 au^3   0.145227E+04 A^3
Pressure:                            0.182921E-04 au     0.538171E+09 Pa
>> Charges saved for restart in charges.bin

total energy  -1.9236897E+02 H       energy change -1.0480140E-03 H
gradient norm  2.2811287E-02 H/a0    max. gradient  5.0258652E-03 H/a0
step length    1.0500423E-01 a0      max. step      2.1924885E-02 a0

--------------------------------------------------------------------------------

***  Geometry step: 15

 iSCC Total electronic   Diff electronic      SCC error    
    1   -0.19433383E+03    0.00000000E+00    0.48089815E-02
    2   -0.19432718E+03    0.66454867E-02    0.21896955E-02
    3   -0.19432720E+03   -0.21959283E-04    0.75042778E-03
    4   -0.19432721E+03   -0.48082004E-05    0.12437039E-03
    5   -0.19432721E+03   -0.72015013E-07    0.25066087E-04
    6   -0.19432721E+03   -0.70587589E-08    0.68186629E-05
    7   -0.19432721E+03   -0.24209612E-09    0.16214044E-05
    8   -0.19432721E+03   -0.86686214E-11    0.30837798E-06
    9   -0.19432721E+03   -0.82422957E-12    0.40302853E-07
   10   -0.19432721E+03    0.56843419E-13    0.63652759E-08

Total Energy:                     -192.3699050134 H        -5234.6515 eV
Extrapolated to 0K:               -192.3699050134 H        -5234.6515 eV
Total Mermin free energy:         -192.3699050134 H        -5234.6515 eV
Force related energy:             -192.3699050134 H        -5234.6515 eV

Volume:                              0.982169E+04 au^3   0.145542E+04 A^3
Pressure:                            0.144611E-04 au     0.425459E+09 Pa
>> Charges saved for restart in charges.bin

total energy  -1.9236991E+02 H       energy change -9.3547142E-04 H
gradient norm  2.4279914E-02 H/a0    max. gradient  6.1071924E-03 H/a0
step length    1.0614897E-01 a0      max. step      2.2457022E-02 a0

--------------------------------------------------------------------------------

***  Geometry step: 16

 iSCC Total electronic   Diff electronic      SCC error    
    1   -0.19432721E+03    0.00000000E+00    0.45937065E-02
    2   -0.19432767E+03   -0.45633673E-03    0.25068258E-02
    3   -0.19432768E+03   -0.18058909E-04    0.66829686E-03
    4   -0.19432769E+03   -0.41075444E-05    0.11596001E-03
    5   -0.19432769E+03   -0.76867963E-07    0.26171699E-04
    6   -0.19432769E+03   -0.82139593E-08    0.58186971E-05
    7   -0.19432769E+03   -0.22217250E-09    0.13800326E-05
    8   -0.19432769E+03   -0.49737992E-11    0.27726931E-06
    9   -0.19432769E+03   -0.10516032E-11    0.43427760E-07
   10   -0.19432769E+03    0.28421709E-13    0.63696408E-08

Total Energy:                     -192.3707936721 H        -5234.6756 eV
Extrapolated to 0K:               -192.3707936721 H        -5234.6756 eV
Total Mermin free energy:         -192.3707936721 H        -5234.6756 eV
Force related energy:             -192.3707936721 H        -5234.6756 eV

Volume:                              0.983834E+04 au^3   0.145789E+04 A^3
Pressure:                            0.132456E-04 au     0.389699E+09 Pa
>> Charges saved for restart in charges.bin

total energy  -1.9237079E+02 H       energy change -8.8865872E-04 H
gradient norm  2.3341644E-02 H/a0    max. gradient  5.8465860E-03 H/a0
step length    1.1070322E-01 a0      max. step      2.2177530E-02 a0

--------------------------------------------------------------------------------

***  Geometry step: 17

 iSCC Total electronic   Diff electronic      SCC error    
    1   -0.19432769E+03    0.00000000E+00    0.45912332E-02
    2   -0.19433053E+03   -0.28458491E-02    0.26011670E-02
    3   -0.19433055E+03   -0.15863856E-04    0.61185109E-03
    4   -0.19433055E+03   -0.33908845E-05    0.10309321E-03
    5   -0.19433055E+03   -0.78371500E-07    0.30598564E-04
    6   -0.19433055E+03   -0.80571851E-08    0.65852171E-05
    7   -0.19433055E+03   -0.16120794E-09    0.19322663E-05
    8   -0.19433055E+03   -0.44906301E-11    0.22276744E-06
    9   -0.19433055E+03   -0.11084467E-11    0.38477044E-07
   10   -0.19433055E+03   -0.14210855E-12    0.55102407E-08

Total Energy:                     -192.3716548033 H        -5234.6991 eV
Extrapolated to 0K:               -192.3716548033 H        -5234.6991 eV
Total Mermin free energy:         -192.3716548033 H        -5234.6991 eV
Force related energy:             -192.3716548033 H        -5234.6991 eV

Volume:                              0.985566E+04 au^3   0.146046E+04 A^3
Pressure:                            0.131193E-04 au     0.385984E+09 Pa
>> Charges saved for restart in charges.bin

total energy  -1.9237165E+02 H       energy change -8.6113117E-04 H
gradient norm  2.1495368E-02 H/a0    max. gradient  5.4003256E-03 H/a0
step length    1.2262682E-01 a0      max. step      2.1503051E-02 a0

--------------------------------------------------------------------------------

***  Geometry step: 18

 iSCC Total electronic   Diff electronic      SCC error    
    1   -0.19433055E+03    0.00000000E+00    0.46121889E-02
    2   -0.19433341E+03   -0.28544081E-02    0.20194302E-02
    3   -0.19433342E+03   -0.14713074E-04    0.66991773E-03
    4   -0.19433343E+03   -0.28651590E-05    0.11571419E-03
    5   -0.19433343E+03   -0.57915003E-07    0.24500133E-04
    6   -0.19433343E+03   -0.62968866E-08    0.68372402E-05
    7   -0.19433343E+03   -0.11249313E-09    0.17029503E-05
    8   -0.19433343E+03   -0.25011104E-11    0.21879543E-06
    9   -0.19433343E+03   -0.71054274E-12    0.52152535E-07
   10   -0.19433343E+03   -0.85265128E-13    0.51684705E-08

Total Energy:                     -192.3724332052 H        -5234.7202 eV
Extrapolated to 0K:               -192.3724332052 H        -5234.7202 eV
Total Mermin free energy:         -192.3724332052 H        -5234.7202 eV
Force related energy:             -192.3724332052 H        -5234.7202 eV

Volume:                              0.987127E+04 au^3   0.146277E+04 A^3
Pressure:                            0.129964E-04 au     0.382369E+09 Pa
>> Charges saved for restart in charges.bin

total energy  -1.9237243E+02 H       energy change -7.7840191E-04 H
gradient norm  1.9785506E-02 H/a0    max. gradient  3.4829399E-03 H/a0
step length    1.2068748E-01 a0      max. step      2.1218088E-02 a0

--------------------------------------------------------------------------------

***  Geometry step: 19

 iSCC Total electronic   Diff electronic      SCC error    
    1   -0.19433343E+03    0.00000000E+00    0.44007902E-02
    2   -0.19433253E+03    0.89315056E-03    0.19100026E-02
    3   -0.19433255E+03   -0.17869698E-04    0.61488844E-03
    4   -0.19433255E+03   -0.36168427E-05    0.97429432E-04
    5   -0.19433255E+03   -0.62584036E-07    0.17183291E-04
    6   -0.19433255E+03   -0.59764318E-08    0.53350947E-05
    7   -0.19433255E+03   -0.15597834E-09    0.13125885E-05
    8   -0.19433255E+03   -0.60254024E-11    0.20240903E-06
    9   -0.19433255E+03   -0.76738615E-12    0.52164345E-07
   10   -0.19433255E+03    0.28421709E-13    0.64369807E-08

Total Energy:                     -192.3731473043 H        -5234.7397 eV
Extrapolated to 0K:               -192.3731473043 H        -5234.7397 eV
Total Mermin free energy:         -192.3731473043 H        -5234.7397 eV
Force related energy:             -192.3731473043 H        -5234.7397 eV

Volume:                              0.988902E+04 au^3   0.146540E+04 A^3
Pressure:                            0.113211E-04 au     0.333078E+09 Pa
>> Charges saved for restart in charges.bin

total energy  -1.9237315E+02 H       energy change -7.1409905E-04 H
gradient norm  1.9154007E-02 H/a0    max. gradient  4.6887737E-03 H/a0
step length    1.2070871E-01 a0      max. step      2.3064186E-02 a0

--------------------------------------------------------------------------------

***  Geometry step: 20

 iSCC Total electronic   Diff electronic      SCC error    
    1   -0.19433255E+03    0.00000000E+00    0.50649129E-02
    2   -0.19432935E+03    0.32010260E-02    0.23090767E-02
    3   -0.19432937E+03   -0.14442146E-04    0.49006831E-03
    4   -0.19432937E+03   -0.33227711E-05    0.85516936E-04
    5   -0.19432937E+03   -0.65876236E-07    0.27246979E-04
    6   -0.19432937E+03   -0.50387428E-08    0.64202236E-05
    7   -0.19432937E+03   -0.14546231E-09    0.97270937E-06
    8   -0.19432937E+03   -0.44622084E-11    0.19491626E-06
    9   -0.19432937E+03   -0.85265128E-12    0.37880957E-07
   10   -0.19432937E+03    0.00000000E+00    0.51974203E-08

Total Energy:                     -192.3737331874 H        -5234.7556 eV
Extrapolated to 0K:               -192.3737331874 H        -5234.7556 eV
Total Mermin free energy:         -192.3737331874 H        -5234.7556 eV
Force related energy:             -192.3737331874 H        -5234.7556 eV

Volume:                              0.990502E+04 au^3   0.146777E+04 A^3
Pressure:                            0.882811E-05 au     0.259732E+09 Pa
>> Charges saved for restart in charges.bin

total energy  -1.9237373E+02 H       energy change -5.8588311E-04 H
gradient norm  1.8311943E-02 H/a0    max. gradient  5.6491498E-03 H/a0
step length    1.0637276E-01 a0      max. step      2.0635953E-02 a0

--------------------------------------------------------------------------------

***  Geometry step: 21

 iSCC Total electronic   Diff electronic      SCC error    
    1   -0.19432937E+03    0.00000000E+00    0.37174757E-02
    2   -0.19432517E+03    0.42003205E-02    0.16218792E-02
    3   -0.19432518E+03   -0.83196565E-05    0.44593797E-03
    4   -0.19432518E+03   -0.20439375E-05    0.66096062E-04
    5   -0.19432518E+03   -0.45924793E-07    0.20124830E-04
    6   -0.19432518E+03   -0.28832119E-08    0.37927084E-05
    7   -0.19432518E+03   -0.81513463E-10    0.72200904E-06
    8   -0.19432518E+03   -0.21600499E-11    0.18009753E-06
    9   -0.19432518E+03   -0.45474735E-12    0.29716078E-07
   10   -0.19432518E+03   -0.85265128E-13    0.41513948E-08

Total Energy:                     -192.3741573919 H        -5234.7672 eV
Extrapolated to 0K:               -192.3741573919 H        -5234.7672 eV
Total Mermin free energy:         -192.3741573919 H        -5234.7672 eV
Force related energy:             -192.3741573919 H        -5234.7672 eV

Volume:                              0.991890E+04 au^3   0.146983E+04 A^3
Pressure:                            0.583115E-05 au     0.171558E+09 Pa
>> Charges saved for restart in charges.bin

total energy  -1.9237416E+02 H       energy change -4.2420454E-04 H
gradient norm  1.4626868E-02 H/a0    max. gradient  2.8676339E-03 H/a0
step length    8.2380531E-02 a0      max. step      1.5558227E-02 a0

--------------------------------------------------------------------------------

***  Geometry step: 22

 iSCC Total electronic   Diff electronic      SCC error    
    1   -0.19432518E+03    0.00000000E+00    0.31144103E-02
    2   -0.19432468E+03    0.50351767E-03    0.13230369E-02
    3   -0.19432468E+03   -0.75869942E-05    0.36274458E-03
    4   -0.19432469E+03   -0.16858983E-05    0.45806489E-04
    5   -0.19432469E+03   -0.24185340E-07    0.15479757E-04
    6   -0.19432469E+03   -0.19554705E-08    0.42726706E-05
    7   -0.19432469E+03   -0.47378990E-10    0.10690143E-05
    8   -0.19432469E+03   -0.11084467E-11    0.12725628E-06
    9   -0.19432469E+03   -0.19895197E-12    0.36357573E-07
   10   -0.19432469E+03    0.28421709E-13    0.38851109E-08

Total Energy:                     -192.3744643156 H        -5234.7755 eV
Extrapolated to 0K:               -192.3744643156 H        -5234.7755 eV
Total Mermin free energy:         -192.3744643156 H        -5234.7755 eV
Force related energy:             -192.3744643156 H        -5234.7755 eV

Volume:                              0.992879E+04 au^3   0.147129E+04 A^3
Pressure:                            0.457991E-05 au     0.134746E+09 Pa
>> Charges saved for restart in charges.bin

total energy  -1.9237446E+02 H       energy change -3.0692365E-04 H
gradient norm  1.1084889E-02 H/a0    max. gradient  2.0612556E-03 H/a0
step length    6.4933322E-02 a0      max. step      1.1654700E-02 a0

--------------------------------------------------------------------------------

***  Geometry step: 23

 iSCC Total electronic   Diff electronic      SCC error    
    1   -0.19432469E+03    0.00000000E+00    0.29621086E-02
    2   -0.19432657E+03   -0.18805609E-02    0.12382122E-02
    3   -0.19432657E+03   -0.58263288E-05    0.27963626E-03
    4   -0.19432657E+03   -0.12536149E-05    0.36707692E-04
    5   -0.19432657E+03   -0.12686655E-07    0.10732580E-04
    6   -0.19432657E+03   -0.10560939E-08    0.31602040E-05
    7   -0.19432657E+03   -0.25522695E-10    0.89210057E-06
    8   -0.19432657E+03   -0.65369932E-12    0.97205239E-07
    9   -0.19432657E+03   -0.85265128E-13    0.23466459E-07
   10   -0.19432657E+03    0.56843419E-13    0.25875480E-08

Total Energy:                     -192.3746659124 H        -5234.7810 eV
Extrapolated to 0K:               -192.3746659124 H        -5234.7810 eV
Total Mermin free energy:         -192.3746659124 H        -5234.7810 eV
Force related energy:             -192.3746659124 H        -5234.7810 eV

Volume:                              0.993569E+04 au^3   0.147232E+04 A^3
Pressure:                            0.450057E-05 au     0.132411E+09 Pa
>> Charges saved for restart in charges.bin

total energy  -1.9237467E+02 H       energy change -2.0159683E-04 H
gradient norm  1.0060905E-02 H/a0    max. gradient  1.9562596E-03 H/a0
step length    4.8437826E-02 a0      max. step      8.6030942E-03 a0

--------------------------------------------------------------------------------

***  Geometry step: 24

 iSCC Total electronic   Diff electronic      SCC error    
    1   -0.19432657E+03    0.00000000E+00    0.25675313E-02
    2   -0.19432965E+03   -0.30741421E-02    0.14570147E-02
    3   -0.19432965E+03   -0.36210349E-05    0.29653843E-03
    4   -0.19432965E+03   -0.81660212E-06    0.28121893E-04
    5   -0.19432965E+03   -0.14029638E-07    0.13729817E-04
    6   -0.19432965E+03   -0.82684437E-09    0.23015035E-05
    7   -0.19432965E+03   -0.18843593E-10    0.42507310E-06
    8   -0.19432965E+03   -0.65369932E-12    0.11939419E-06
    9   -0.19432965E+03   -0.85265128E-13    0.21114341E-07
   10   -0.19432965E+03   -0.85265128E-13    0.22654492E-08

Total Energy:                     -192.3748202638 H        -5234.7852 eV
Extrapolated to 0K:               -192.3748202638 H        -5234.7852 eV
Total Mermin free energy:         -192.3748202638 H        -5234.7852 eV
Force related energy:             -192.3748202638 H        -5234.7852 eV

Volume:                              0.994125E+04 au^3   0.147314E+04 A^3
Pressure:                            0.504706E-05 au     0.148490E+09 Pa
>> Charges saved for restart in charges.bin

total energy  -1.9237482E+02 H       energy change -1.5435138E-04 H
gradient norm  1.0272539E-02 H/a0    max. gradient  2.2027841E-03 H/a0
step length    4.3888700E-02 a0      max. step      8.3778921E-03 a0

--------------------------------------------------------------------------------

***  Geometry step: 25

 iSCC Total electronic   Diff electronic      SCC error    
    1   -0.19432965E+03    0.00000000E+00    0.25293793E-02
    2   -0.19433278E+03   -0.31290087E-02    0.14468821E-02
    3   -0.19433278E+03   -0.29448084E-05    0.24702887E-03
    4   -0.19433279E+03   -0.67736889E-06    0.34811058E-04
    5   -0.19433279E+03   -0.21019844E-07    0.15152562E-04
    6   -0.19433279E+03   -0.90656727E-09    0.18694022E-05
    7   -0.19433279E+03   -0.21600499E-10    0.33518497E-06
    8   -0.19433279E+03   -0.82422957E-12    0.12031535E-06
    9   -0.19433279E+03   -0.19895197E-12    0.16114430E-07
   10   -0.19433279E+03   -0.28421709E-13    0.21001423E-08

Total Energy:                     -192.3749918090 H        -5234.7899 eV
Extrapolated to 0K:               -192.3749918090 H        -5234.7899 eV
Total Mermin free energy:         -192.3749918090 H        -5234.7899 eV
Force related energy:             -192.3749918090 H        -5234.7899 eV

Volume:                              0.994829E+04 au^3   0.147419E+04 A^3
Pressure:                            0.553966E-05 au     0.162982E+09 Pa
>> Charges saved for restart in charges.bin

total energy  -1.9237499E+02 H       energy change -1.7154522E-04 H
gradient norm  1.0305777E-02 H/a0    max. gradient  2.6284318E-03 H/a0
step length    5.2788436E-02 a0      max. step      9.8792225E-03 a0

--------------------------------------------------------------------------------

***  Geometry step: 26

 iSCC Total electronic   Diff electronic      SCC error    
    1   -0.19433279E+03    0.00000000E+00    0.23957753E-02
    2   -0.19433473E+03   -0.19405729E-02    0.11711799E-02
    3   -0.19433473E+03   -0.43866770E-05    0.37248439E-03
    4   -0.19433473E+03   -0.10145399E-05    0.40318594E-04
    5   -0.19433473E+03   -0.26883356E-07    0.13708411E-04
    6   -0.19433473E+03   -0.15701858E-08    0.27145303E-05
    7   -0.19433473E+03   -0.33423930E-10    0.50952542E-06
    8   -0.19433473E+03   -0.10800250E-11    0.12162460E-06
    9   -0.19433473E+03   -0.11368684E-12    0.20307167E-07
   10   -0.19433473E+03    0.56843419E-13    0.36062224E-08

Total Energy:                     -192.3751950943 H        -5234.7954 eV
Extrapolated to 0K:               -192.3751950943 H        -5234.7954 eV
Total Mermin free energy:         -192.3751950943 H        -5234.7954 eV
Force related energy:             -192.3751950943 H        -5234.7954 eV

Volume:                              0.995799E+04 au^3   0.147562E+04 A^3
Pressure:                            0.539749E-05 au     0.158800E+09 Pa
>> Charges saved for restart in charges.bin

total energy  -1.9237520E+02 H       energy change -2.0328528E-04 H
gradient norm  1.0587626E-02 H/a0    max. gradient  2.4359155E-03 H/a0
step length    6.8900354E-02 a0      max. step      1.2283140E-02 a0

--------------------------------------------------------------------------------

***  Geometry step: 27

 iSCC Total electronic   Diff electronic      SCC error    
    1   -0.19433473E+03    0.00000000E+00    0.19891887E-02
    2   -0.19433421E+03    0.52045622E-03    0.12454211E-02
    3   -0.19433422E+03   -0.39957592E-05    0.38484222E-03
    4   -0.19433422E+03   -0.89869800E-06    0.46205970E-04
    5   -0.19433422E+03   -0.21558407E-07    0.43295984E-05
    6   -0.19433422E+03   -0.15591013E-08    0.11788287E-05
    7   -0.19433422E+03   -0.23533175E-10    0.45021732E-06
    8   -0.19433422E+03   -0.65369932E-12    0.10100767E-06
    9   -0.19433422E+03   -0.85265128E-13    0.13774137E-07
   10   -0.19433422E+03    0.28421709E-13    0.32001699E-08

Total Energy:                     -192.3753965180 H        -5234.8009 eV
Extrapolated to 0K:               -192.3753965180 H        -5234.8009 eV
Total Mermin free energy:         -192.3753965180 H        -5234.8009 eV
Force related energy:             -192.3753965180 H        -5234.8009 eV

Volume:                              0.996875E+04 au^3   0.147722E+04 A^3
Pressure:                            0.441879E-05 au     0.130005E+09 Pa
>> Charges saved for restart in charges.bin

total energy  -1.9237540E+02 H       energy change -2.0142376E-04 H
gradient norm  1.1157142E-02 H/a0    max. gradient  2.5933003E-03 H/a0
step length    7.2729620E-02 a0      max. step      1.3416631E-02 a0

--------------------------------------------------------------------------------

***  Geometry step: 28

 iSCC Total electronic   Diff electronic      SCC error    
    1   -0.19433422E+03    0.00000000E+00    0.18073053E-02
    2   -0.19433148E+03    0.27373157E-02    0.11302082E-02
    3   -0.19433148E+03   -0.35671449E-05    0.35493902E-03
    4   -0.19433148E+03   -0.77798146E-06    0.44329008E-04
    5   -0.19433148E+03   -0.17128485E-07    0.75851949E-05
    6   -0.19433148E+03   -0.13518786E-08    0.17902321E-05
    7   -0.19433148E+03   -0.19412028E-10    0.42815949E-06
    8   -0.19433148E+03   -0.28421709E-12    0.93754624E-07
    9   -0.19433148E+03   -0.22737368E-12    0.26374593E-07
   10   -0.19433148E+03    0.14210855E-12    0.30521865E-08

Total Energy:                     -192.3756014579 H        -5234.8065 eV
Extrapolated to 0K:               -192.3756014579 H        -5234.8065 eV
Total Mermin free energy:         -192.3756014579 H        -5234.8065 eV
Force related energy:             -192.3756014579 H        -5234.8065 eV

Volume:                              0.998022E+04 au^3   0.147892E+04 A^3
Pressure:                            0.259759E-05 au     0.764238E+08 Pa
>> Charges saved for restart in charges.bin

total energy  -1.9237560E+02 H       energy change -2.0493982E-04 H
gradient norm  1.0815613E-02 H/a0    max. gradient  2.2315194E-03 H/a0
step length    7.8217903E-02 a0      max. step      1.5710257E-02 a0

--------------------------------------------------------------------------------

***  Geometry step: 29

 iSCC Total electronic   Diff electronic      SCC error    
    1   -0.19433148E+03    0.00000000E+00    0.18919176E-02
    2   -0.19432849E+03    0.29922606E-02    0.88714136E-03
    3   -0.19432849E+03   -0.28834120E-05    0.22290421E-03
    4   -0.19432849E+03   -0.61756694E-06    0.40578492E-04
    5   -0.19432849E+03   -0.12803014E-07    0.11680091E-04
    6   -0.19432849E+03   -0.10074359E-08    0.19206265E-05
    7   -0.19432849E+03   -0.13727686E-10    0.32965366E-06
    8   -0.19432849E+03   -0.28421709E-12    0.67155999E-07
    9   -0.19432849E+03   -0.14210855E-12    0.15190607E-07
   10   -0.19432849E+03    0.56843419E-13    0.20286173E-08

Total Energy:                     -192.3757847409 H        -5234.8114 eV
Extrapolated to 0K:               -192.3757847409 H        -5234.8114 eV
Total Mermin free energy:         -192.3757847409 H        -5234.8114 eV
Force related energy:             -192.3757847409 H        -5234.8114 eV

Volume:                              0.998977E+04 au^3   0.148033E+04 A^3
Pressure:                            0.700433E-06 au     0.206074E+08 Pa
>> Charges saved for restart in charges.bin

total energy  -1.9237578E+02 H       energy change -1.8328305E-04 H
gradient norm  1.0101946E-02 H/a0    max. gradient  2.5491609E-03 H/a0
step length    7.3817056E-02 a0      max. step      1.5968144E-02 a0

--------------------------------------------------------------------------------

***  Geometry step: 30

 iSCC Total electronic   Diff electronic      SCC error    
    1   -0.19432849E+03    0.00000000E+00    0.17740407E-02
    2   -0.19432744E+03    0.10516099E-02    0.78050343E-03
    3   -0.19432745E+03   -0.32230345E-05    0.24328927E-03
    4   -0.19432745E+03   -0.71678119E-06    0.32161324E-04
    5   -0.19432745E+03   -0.12331355E-07    0.10712310E-04
    6   -0.19432745E+03   -0.10682299E-08    0.20711009E-05
    7   -0.19432745E+03   -0.23590019E-10    0.53035405E-06
    8   -0.19432745E+03   -0.39790393E-12    0.96661672E-07
    9   -0.19432745E+03   -0.85265128E-13    0.21829343E-07
   10   -0.19432745E+03    0.00000000E+00    0.30343150E-08

Total Energy:                     -192.3759552096 H        -5234.8161 eV
Extrapolated to 0K:               -192.3759552096 H        -5234.8161 eV
Total Mermin free energy:         -192.3759552096 H        -5234.8161 eV
Force related energy:             -192.3759552096 H        -5234.8161 eV

Volume:                              0.999602E+04 au^3   0.148126E+04 A^3
Pressure:                           -0.352839E-06 au    -0.103809E+08 Pa
>> Charges saved for restart in charges.bin

total energy  -1.9237596E+02 H       energy change -1.7046873E-04 H
gradient norm  9.6114858E-03 H/a0    max. gradient  1.8901319E-03 H/a0
step length    6.9742362E-02 a0      max. step      1.5109656E-02 a0

--------------------------------------------------------------------------------

***  Geometry step: 31

 iSCC Total electronic   Diff electronic      SCC error    
    1   -0.19432745E+03    0.00000000E+00    0.21636938E-02
    2   -0.19432885E+03   -0.14036085E-02    0.83417681E-03
    3   -0.19432885E+03   -0.39621175E-05    0.25710493E-03
    4   -0.19432886E+03   -0.96438973E-06    0.39842801E-04
    5   -0.19432886E+03   -0.13246591E-07    0.70534587E-05
    6   -0.19432886E+03   -0.13030217E-08    0.10789164E-05
    7   -0.19432886E+03   -0.28819613E-10    0.42971280E-06
    8   -0.19432886E+03   -0.62527761E-12    0.86551443E-07
    9   -0.19432886E+03    0.00000000E+00    0.14679653E-07
   10   -0.19432886E+03   -0.28421709E-13    0.28951721E-08

Total Energy:                     -192.3761214149 H        -5234.8206 eV
Extrapolated to 0K:               -192.3761214149 H        -5234.8206 eV
Total Mermin free energy:         -192.3761214149 H        -5234.8206 eV
Force related energy:             -192.3761214149 H        -5234.8206 eV

Volume:                              0.999946E+04 au^3   0.148177E+04 A^3
Pressure:                           -0.300607E-06 au    -0.884416E+07 Pa
>> Charges saved for restart in charges.bin

total energy  -1.9237612E+02 H       energy change -1.6620525E-04 H
gradient norm  9.9784632E-03 H/a0    max. gradient  2.1517113E-03 H/a0
step length    6.9560310E-02 a0      max. step      1.4049850E-02 a0

--------------------------------------------------------------------------------

***  Geometry step: 32

 iSCC Total electronic   Diff electronic      SCC error    
    1   -0.19432886E+03    0.00000000E+00    0.15130348E-02
    2   -0.19433194E+03   -0.30867995E-02    0.67041742E-03
    3   -0.19433195E+03   -0.33130648E-05    0.26264134E-03
    4   -0.19433195E+03   -0.79784087E-06    0.40699873E-04
    5   -0.19433195E+03   -0.10905126E-07    0.58163623E-05
    6   -0.19433195E+03   -0.10532801E-08    0.13010065E-05
    7   -0.19433195E+03   -0.17195134E-10    0.42295094E-06
    8   -0.19433195E+03   -0.22737368E-12    0.53396650E-07
    9   -0.19433195E+03   -0.85265128E-13    0.12192668E-07
   10   -0.19433195E+03    0.28421709E-13    0.17182638E-08

Total Energy:                     -192.3762922519 H        -5234.8253 eV
Extrapolated to 0K:               -192.3762922519 H        -5234.8253 eV
Total Mermin free energy:         -192.3762922519 H        -5234.8253 eV
Force related energy:             -192.3762922519 H        -5234.8253 eV

Volume:                              0.100011E+05 au^3   0.148202E+04 A^3
Pressure:                            0.522971E-06 au     0.153863E+08 Pa
>> Charges saved for restart in charges.bin

total energy  -1.9237629E+02 H       energy change -1.7083706E-04 H
gradient norm  1.0537654E-02 H/a0    max. gradient  2.4875760E-03 H/a0
step length    7.1568284E-02 a0      max. step      1.3595469E-02 a0

--------------------------------------------------------------------------------

***  Geometry step: 33

 iSCC Total electronic   Diff electronic      SCC error    
    1   -0.19433195E+03    0.00000000E+00    0.16790413E-02
    2   -0.19433637E+03   -0.44221032E-02    0.97254301E-03
    3   -0.19433637E+03   -0.30853357E-05    0.27979173E-03
    4   -0.19433637E+03   -0.72733675E-06    0.41386282E-04
    5   -0.19433637E+03   -0.14137299E-07    0.10953936E-04
    6   -0.19433637E+03   -0.10846577E-08    0.16933880E-05
    7   -0.19433637E+03   -0.14665602E-10    0.37645245E-06
    8   -0.19433637E+03   -0.14210855E-12    0.76894244E-07
    9   -0.19433637E+03   -0.14210855E-12    0.17142749E-07
   10   -0.19433637E+03   -0.28421709E-13    0.16907031E-08

Total Energy:                     -192.3764820108 H        -5234.8304 eV
Extrapolated to 0K:               -192.3764820108 H        -5234.8304 eV
Total Mermin free energy:         -192.3764820108 H        -5234.8304 eV
Force related energy:             -192.3764820108 H        -5234.8304 eV

Volume:                              0.100020E+05 au^3   0.148215E+04 A^3
Pressure:                            0.212249E-05 au     0.624457E+08 Pa
>> Charges saved for restart in charges.bin

total energy  -1.9237648E+02 H       energy change -1.8975890E-04 H
gradient norm  1.0817627E-02 H/a0    max. gradient  2.8094003E-03 H/a0
step length    9.1050977E-02 a0      max. step      1.7668645E-02 a0

--------------------------------------------------------------------------------

***  Geometry step: 34

 iSCC Total electronic   Diff electronic      SCC error    
    1   -0.19433637E+03    0.00000000E+00    0.13626989E-02
    2   -0.19433861E+03   -0.22423198E-02    0.82907890E-03
    3   -0.19433862E+03   -0.19296271E-05    0.22335368E-03
    4   -0.19433862E+03   -0.42081462E-06    0.27722685E-04
    5   -0.19433862E+03   -0.12095171E-07    0.84586245E-05
    6   -0.19433862E+03   -0.67646511E-09    0.12004986E-05
    7   -0.19433862E+03   -0.99191766E-11    0.29764278E-06
    8   -0.19433862E+03   -0.19895197E-12    0.74500597E-07
    9   -0.19433862E+03   -0.11368684E-12    0.13746520E-07
   10   -0.19433862E+03    0.56843419E-13    0.22042066E-08

Total Energy:                     -192.3766557832 H        -5234.8351 eV
Extrapolated to 0K:               -192.3766557832 H        -5234.8351 eV
Total Mermin free energy:         -192.3766557832 H        -5234.8351 eV
Force related energy:             -192.3766557832 H        -5234.8351 eV

Volume:                              0.100035E+05 au^3   0.148236E+04 A^3
Pressure:                            0.286243E-05 au     0.842154E+08 Pa
>> Charges saved for restart in charges.bin

total energy  -1.9237666E+02 H       energy change -1.7377233E-04 H
gradient norm  1.0391747E-02 H/a0    max. gradient  2.4151505E-03 H/a0
step length    8.4852789E-02 a0      max. step      1.6706223E-02 a0

--------------------------------------------------------------------------------

***  Geometry step: 35

 iSCC Total electronic   Diff electronic      SCC error    
    1   -0.19433862E+03    0.00000000E+00    0.24291914E-02
    2   -0.19433968E+03   -0.10598287E-02    0.13045180E-02
    3   -0.19433968E+03   -0.41340669E-05    0.32183956E-03
    4   -0.19433968E+03   -0.89572859E-06    0.31627052E-04
    5   -0.19433968E+03   -0.27021827E-07    0.13800990E-04
    6   -0.19433968E+03   -0.15075159E-08    0.33968702E-05
    7   -0.19433968E+03   -0.27142733E-10    0.63304222E-06
    8   -0.19433968E+03   -0.62527761E-12    0.11481938E-06
    9   -0.19433968E+03   -0.11368684E-12    0.25387346E-07
   10   -0.19433968E+03   -0.28421709E-13    0.29619196E-08

Total Energy:                     -192.3768663143 H        -5234.8409 eV
Extrapolated to 0K:               -192.3768663143 H        -5234.8409 eV
Total Mermin free energy:         -192.3768663143 H        -5234.8409 eV
Force related energy:             -192.3768663143 H        -5234.8409 eV

Volume:                              0.100053E+05 au^3   0.148263E+04 A^3
Pressure:                            0.317916E-05 au     0.935341E+08 Pa
>> Charges saved for restart in charges.bin

total energy  -1.9237687E+02 H       energy change -2.1053116E-04 H
gradient norm  1.0137262E-02 H/a0    max. gradient  2.1899214E-03 H/a0
step length    1.0804295E-01 a0      max. step      2.0758005E-02 a0

--------------------------------------------------------------------------------

***  Geometry step: 36

 iSCC Total electronic   Diff electronic      SCC error    
    1   -0.19433968E+03    0.00000000E+00    0.28535392E-02
    2   -0.19433874E+03    0.94274488E-03    0.15910782E-02
    3   -0.19433874E+03   -0.40757513E-05    0.31164504E-03
    4   -0.19433874E+03   -0.93961791E-06    0.33811583E-04
    5   -0.19433874E+03   -0.25780025E-07    0.15361696E-04
    6   -0.19433874E+03   -0.16625279E-08    0.35838468E-05
    7   -0.19433874E+03   -0.34106051E-10    0.74866277E-06
    8   -0.19433874E+03   -0.79580786E-12    0.12335821E-06
    9   -0.19433874E+03   -0.17053026E-12    0.28648032E-07
   10   -0.19433874E+03   -0.11368684E-12    0.29413694E-08

Total Energy:                     -192.3770373975 H        -5234.8455 eV
Extrapolated to 0K:               -192.3770373975 H        -5234.8455 eV
Total Mermin free energy:         -192.3770373975 H        -5234.8455 eV
Force related energy:             -192.3770373975 H        -5234.8455 eV

Volume:                              0.100076E+05 au^3   0.148297E+04 A^3
Pressure:                            0.274818E-05 au     0.808543E+08 Pa
>> Charges saved for restart in charges.bin

total energy  -1.9237704E+02 H       energy change -1.7108318E-04 H
gradient norm  9.6687549E-03 H/a0    max. gradient  2.1678237E-03 H/a0
step length    9.3535840E-02 a0      max. step      1.8364401E-02 a0

--------------------------------------------------------------------------------

***  Geometry step: 37

 iSCC Total electronic   Diff electronic      SCC error    
    1   -0.19433874E+03    0.00000000E+00    0.21485537E-02
    2   -0.19433753E+03    0.12186162E-02    0.12105379E-02
    3   -0.19433753E+03   -0.26901288E-05    0.23806221E-03
    4   -0.19433753E+03   -0.63707634E-06    0.27229139E-04
    5   -0.19433753E+03   -0.13957447E-07    0.10757946E-04
    6   -0.19433753E+03   -0.91048946E-09    0.21511576E-05
    7   -0.19433753E+03   -0.18474111E-10    0.42166955E-06
    8   -0.19433753E+03   -0.54001248E-12    0.88013619E-07
    9   -0.19433753E+03   -0.28421709E-13    0.20153547E-07
   10   -0.19433753E+03   -0.28421709E-13    0.21513160E-08

Total Energy:                     -192.3771703026 H        -5234.8492 eV
Extrapolated to 0K:               -192.3771703026 H        -5234.8492 eV
Total Mermin free energy:         -192.3771703026 H        -5234.8492 eV
Force related energy:             -192.3771703026 H        -5234.8492 eV

Volume:                              0.100101E+05 au^3   0.148334E+04 A^3
Pressure:                            0.217357E-05 au     0.639487E+08 Pa
>> Charges saved for restart in charges.bin

total energy  -1.9237717E+02 H       energy change -1.3290513E-04 H
gradient norm  8.2743170E-03 H/a0    max. gradient  1.7901739E-03 H/a0
step length    7.2408155E-02 a0      max. step      1.4540502E-02 a0

--------------------------------------------------------------------------------

***  Geometry step: 38

 iSCC Total electronic   Diff electronic      SCC error    
    1   -0.19433753E+03    0.00000000E+00    0.17317771E-02
    2   -0.19433692E+03    0.60791218E-03    0.78044431E-03
    3   -0.19433692E+03   -0.21105785E-05    0.19819435E-03
    4   -0.19433692E+03   -0.48932833E-06    0.38170366E-04
    5   -0.19433692E+03   -0.69953785E-08    0.71605499E-05
    6   -0.19433692E+03   -0.61845640E-09    0.11953325E-05
    7   -0.19433692E+03   -0.13727686E-10    0.27191782E-06
    8   -0.19433692E+03   -0.42632564E-12    0.57714971E-07
    9   -0.19433692E+03   -0.28421709E-13    0.17155211E-07
   10   -0.19433692E+03    0.28421709E-13    0.16314790E-08

Total Energy:                     -192.3772777450 H        -5234.8521 eV
Extrapolated to 0K:               -192.3772777450 H        -5234.8521 eV
Total Mermin free energy:         -192.3772777450 H        -5234.8521 eV
Force related energy:             -192.3772777450 H        -5234.8521 eV

Volume:                              0.100131E+05 au^3   0.148379E+04 A^3
Pressure:                            0.158519E-05 au     0.466379E+08 Pa
>> Charges saved for restart in charges.bin

total energy  -1.9237728E+02 H       energy change -1.0744240E-04 H
gradient norm  7.5405715E-03 H/a0    max. gradient  1.7131701E-03 H/a0
step length    6.1508272E-02 a0      max. step      1.2548155E-02 a0

--------------------------------------------------------------------------------

***  Geometry step: 39

 iSCC Total electronic   Diff electronic      SCC error    
    1   -0.19433692E+03    0.00000000E+00    0.18033125E-02
    2   -0.19433817E+03   -0.12467388E-02    0.68644635E-03
    3   -0.19433817E+03   -0.18180677E-05    0.14173315E-03
    4   -0.19433817E+03   -0.42161247E-06    0.27746565E-04
    5   -0.19433817E+03   -0.46254343E-08    0.52534435E-05
    6   -0.19433817E+03   -0.29351099E-09    0.12554042E-05
    7   -0.19433817E+03   -0.11368684E-10    0.31156551E-06
    8   -0.19433817E+03   -0.34106051E-12    0.43386499E-07
    9   -0.19433817E+03    0.56843419E-13    0.83567526E-08

Total Energy:                     -192.3773738149 H        -5234.8547 eV
Extrapolated to 0K:               -192.3773738149 H        -5234.8547 eV
Total Mermin free energy:         -192.3773738149 H        -5234.8547 eV
Force related energy:             -192.3773738149 H        -5234.8547 eV

Volume:                              0.100156E+05 au^3   0.148416E+04 A^3
Pressure:                            0.150266E-05 au     0.442097E+08 Pa
>> Charges saved for restart in charges.bin

total energy  -1.9237737E+02 H       energy change -9.6069884E-05 H
gradient norm  7.4675478E-03 H/a0    max. gradient  1.2479927E-03 H/a0
step length    5.2174675E-02 a0      max. step      1.0793626E-02 a0

--------------------------------------------------------------------------------

***  Geometry step: 40

 iSCC Total electronic   Diff electronic      SCC error    
    1   -0.19433817E+03    0.00000000E+00    0.19560678E-02
    2   -0.19434093E+03   -0.27547591E-02    0.72931993E-03
    3   -0.19434093E+03   -0.21293270E-05    0.17583562E-03
    4   -0.19434093E+03   -0.47377122E-06    0.27894173E-04
    5   -0.19434093E+03   -0.77069444E-08    0.70440966E-05
    6   -0.19434093E+03   -0.52398264E-09    0.16177954E-05
    7   -0.19434093E+03   -0.17820412E-10    0.37355677E-06
    8   -0.19434093E+03   -0.39790393E-12    0.67224589E-07
    9   -0.19434093E+03   -0.14210855E-12    0.14007808E-07
   10   -0.19434093E+03    0.85265128E-13    0.20093180E-08

Total Energy:                     -192.3774765784 H        -5234.8575 eV
Extrapolated to 0K:               -192.3774765784 H        -5234.8575 eV
Total Mermin free energy:         -192.3774765784 H        -5234.8575 eV
Force related energy:             -192.3774765784 H        -5234.8575 eV

Volume:                              0.100187E+05 au^3   0.148462E+04 A^3
Pressure:                            0.184062E-05 au     0.541529E+08 Pa
>> Charges saved for restart in charges.bin

total energy  -1.9237748E+02 H       energy change -1.0276351E-04 H
gradient norm  7.8578242E-03 H/a0    max. gradient  1.5565528E-03 H/a0
step length    6.2351396E-02 a0      max. step      1.3352325E-02 a0

--------------------------------------------------------------------------------

***  Geometry step: 41

 iSCC Total electronic   Diff electronic      SCC error    
    1   -0.19434093E+03    0.00000000E+00    0.14301418E-02
    2   -0.19434425E+03   -0.33235794E-02    0.79214159E-03
    3   -0.19434425E+03   -0.14614511E-05    0.18737004E-03
    4   -0.19434426E+03   -0.32602040E-06    0.24511338E-04
    5   -0.19434426E+03   -0.80111988E-08    0.86160011E-05
    6   -0.19434426E+03   -0.53444182E-09    0.16023756E-05
    7   -0.19434426E+03   -0.96918029E-11    0.24035725E-06
    8   -0.19434426E+03   -0.25579538E-12    0.72901155E-07
    9   -0.19434426E+03   -0.85265128E-13    0.18432377E-07
   10   -0.19434426E+03   -0.28421709E-13    0.14741390E-08

Total Energy:                     -192.3775681643 H        -5234.8600 eV
Extrapolated to 0K:               -192.3775681643 H        -5234.8600 eV
Total Mermin free energy:         -192.3775681643 H        -5234.8600 eV
Force related energy:             -192.3775681643 H        -5234.8600 eV

Volume:                              0.100220E+05 au^3   0.148511E+04 A^3
Pressure:                            0.245142E-05 au     0.721233E+08 Pa
>> Charges saved for restart in charges.bin

total energy  -1.9237757E+02 H       energy change -9.1585878E-05 H
gradient norm  7.8535020E-03 H/a0    max. gradient  2.0080662E-03 H/a0
step length    6.3620525E-02 a0      max. step      1.4018620E-02 a0

--------------------------------------------------------------------------------

***  Geometry step: 42

 iSCC Total electronic   Diff electronic      SCC error    
    1   -0.19434426E+03    0.00000000E+00    0.15368741E-02
    2   -0.19434684E+03   -0.25879816E-02    0.73283636E-03
    3   -0.19434684E+03   -0.14634002E-05    0.18136187E-03
    4   -0.19434684E+03   -0.32927866E-06    0.27222543E-04
    5   -0.19434684E+03   -0.79704705E-08    0.65077766E-05
    6   -0.19434684E+03   -0.54433258E-09    0.13046246E-05
    7   -0.19434684E+03   -0.90949470E-11    0.26920430E-06
    8   -0.19434684E+03   -0.31263880E-12    0.75089421E-07
    9   -0.19434684E+03    0.28421709E-13    0.19834629E-07
   10   -0.19434684E+03   -0.56843419E-13    0.17585120E-08

Total Energy:                     -192.3776596128 H        -5234.8625 eV
Extrapolated to 0K:               -192.3776596128 H        -5234.8625 eV
Total Mermin free energy:         -192.3776596128 H        -5234.8625 eV
Force related energy:             -192.3776596128 H        -5234.8625 eV

Volume:                              0.100263E+05 au^3   0.148574E+04 A^3
Pressure:                            0.288986E-05 au     0.850224E+08 Pa
>> Charges saved for restart in charges.bin

total energy  -1.9237766E+02 H       energy change -9.1448514E-05 H
gradient norm  6.9795022E-03 H/a0    max. gradient  1.7262812E-03 H/a0
step length    6.9973778E-02 a0      max. step      1.5332065E-02 a0

--------------------------------------------------------------------------------

***  Geometry step: 43

 iSCC Total electronic   Diff electronic      SCC error    
    1   -0.19434684E+03    0.00000000E+00    0.12248086E-02
    2   -0.19434750E+03   -0.65045684E-03    0.52976731E-03
    3   -0.19434750E+03   -0.15708321E-05    0.19418283E-03
    4   -0.19434750E+03   -0.35291956E-06    0.23060130E-04
    5   -0.19434750E+03   -0.44417732E-08    0.33568940E-05
    6   -0.19434750E+03   -0.37840664E-09    0.80347337E-06
    7   -0.19434750E+03   -0.65938366E-11    0.21805733E-06
    8   -0.19434750E+03   -0.28421709E-13    0.50443046E-07
    9   -0.19434750E+03   -0.28421709E-13    0.12929148E-07
   10   -0.19434750E+03   -0.56843419E-13    0.21590494E-08

Total Energy:                     -192.3777411651 H        -5234.8647 eV
Extrapolated to 0K:               -192.3777411651 H        -5234.8647 eV
Total Mermin free energy:         -192.3777411651 H        -5234.8647 eV
Force related energy:             -192.3777411651 H        -5234.8647 eV

Volume:                              0.100312E+05 au^3   0.148647E+04 A^3
Pressure:                            0.266173E-05 au     0.783108E+08 Pa
>> Charges saved for restart in charges.bin

total energy  -1.9237774E+02 H       energy change -8.1552272E-05 H
gradient norm  6.6753185E-03 H/a0    max. gradient  2.1740363E-03 H/a0
step length    6.2698925E-02 a0      max. step      1.3934286E-02 a0

--------------------------------------------------------------------------------

***  Geometry step: 44

 iSCC Total electronic   Diff electronic      SCC error    
    1   -0.19434750E+03    0.00000000E+00    0.13925771E-02
    2   -0.19434671E+03    0.79052031E-03    0.54876663E-03
    3   -0.19434671E+03   -0.16524035E-05    0.20371941E-03
    4   -0.19434671E+03   -0.37501715E-06    0.24734995E-04
    5   -0.19434671E+03   -0.34787604E-08    0.29342724E-05
    6   -0.19434671E+03   -0.30487968E-09    0.82303605E-06
    7   -0.19434671E+03   -0.50874860E-11    0.25697780E-06
    8   -0.19434671E+03   -0.85265128E-13    0.38798097E-07
    9   -0.19434671E+03    0.00000000E+00    0.11440666E-07
   10   -0.19434671E+03    0.85265128E-13    0.23517561E-08

Total Energy:                     -192.3778236913 H        -5234.8669 eV
Extrapolated to 0K:               -192.3778236913 H        -5234.8669 eV
Total Mermin free energy:         -192.3778236913 H        -5234.8669 eV
Force related energy:             -192.3778236913 H        -5234.8669 eV

Volume:                              0.100364E+05 au^3   0.148725E+04 A^3
Pressure:                            0.194859E-05 au     0.573295E+08 Pa
>> Charges saved for restart in charges.bin

total energy  -1.9237782E+02 H       energy change -8.2526210E-05 H
gradient norm  7.3583931E-03 H/a0    max. gradient  2.2605780E-03 H/a0
step length    6.1159585E-02 a0      max. step      1.3999217E-02 a0

--------------------------------------------------------------------------------

***  Geometry step: 45

 iSCC Total electronic   Diff electronic      SCC error    
    1   -0.19434671E+03    0.00000000E+00    0.11744363E-02
    2   -0.19434522E+03    0.14845453E-02    0.53966651E-03
    3   -0.19434523E+03   -0.13468691E-05    0.19718589E-03
    4   -0.19434523E+03   -0.28887257E-06    0.27395615E-04
    5   -0.19434523E+03   -0.29898786E-08    0.42387592E-05
    6   -0.19434523E+03   -0.23484859E-09    0.99216560E-06
    7   -0.19434523E+03   -0.31832315E-11    0.23296946E-06
    8   -0.19434523E+03   -0.14210855E-12    0.29701831E-07
    9   -0.19434523E+03   -0.17053026E-12    0.73738216E-08

Total Energy:                     -192.3779151563 H        -5234.8694 eV
Extrapolated to 0K:               -192.3779151563 H        -5234.8694 eV
Total Mermin free energy:         -192.3779151563 H        -5234.8694 eV
Force related energy:             -192.3779151563 H        -5234.8694 eV

Volume:                              0.100421E+05 au^3   0.148809E+04 A^3
Pressure:                            0.100687E-05 au     0.296231E+08 Pa
>> Charges saved for restart in charges.bin

total energy  -1.9237792E+02 H       energy change -9.1464981E-05 H
gradient norm  7.6178985E-03 H/a0    max. gradient  1.6888858E-03 H/a0
step length    6.7878403E-02 a0      max. step      1.5786053E-02 a0

--------------------------------------------------------------------------------

***  Geometry step: 46

 iSCC Total electronic   Diff electronic      SCC error    
    1   -0.19434523E+03    0.00000000E+00    0.15856832E-02
    2   -0.19434353E+03    0.17008481E-02    0.61328651E-03
    3   -0.19434353E+03   -0.12426017E-05    0.14964770E-03
    4   -0.19434353E+03   -0.26802167E-06    0.16586127E-04
    5   -0.19434353E+03   -0.28496174E-08    0.37170073E-05
    6   -0.19434353E+03   -0.22717472E-09    0.74621154E-06
    7   -0.19434353E+03   -0.36948222E-11    0.16182662E-06
    8   -0.19434353E+03   -0.56843419E-13    0.42104233E-07
    9   -0.19434353E+03    0.00000000E+00    0.10743641E-07
   10   -0.19434353E+03    0.28421709E-13    0.12818635E-08

Total Energy:                     -192.3780050185 H        -5234.8719 eV
Extrapolated to 0K:               -192.3780050185 H        -5234.8719 eV
Total Mermin free energy:         -192.3780050185 H        -5234.8719 eV
Force related energy:             -192.3780050185 H        -5234.8719 eV

Volume:                              0.100480E+05 au^3   0.148896E+04 A^3
Pressure:                           -0.271848E-07 au    -0.799804E+06 Pa
>> Charges saved for restart in charges.bin

total energy  -1.9237801E+02 H       energy change -8.9862234E-05 H
gradient norm  6.9104869E-03 H/a0    max. gradient  1.5157069E-03 H/a0
step length    7.6170385E-02 a0      max. step      1.8222735E-02 a0

--------------------------------------------------------------------------------

***  Geometry step: 47

 iSCC Total electronic   Diff electronic      SCC error    
    1   -0.19434353E+03    0.00000000E+00    0.13286170E-02
    2   -0.19434366E+03   -0.13175962E-03    0.52615991E-03
    3   -0.19434366E+03   -0.12238326E-05    0.11591155E-03
    4   -0.19434366E+03   -0.27269991E-06    0.19947808E-04
    5   -0.19434366E+03   -0.23642031E-08    0.23862078E-05
    6   -0.19434366E+03   -0.15452883E-09    0.43114258E-06
    7   -0.19434366E+03   -0.57696070E-11    0.13703220E-06
    8   -0.19434366E+03   -0.17053026E-12    0.40652719E-07
    9   -0.19434366E+03    0.11368684E-12    0.56325993E-08

Total Energy:                     -192.3780778613 H        -5234.8738 eV
Extrapolated to 0K:               -192.3780778613 H        -5234.8738 eV
Total Mermin free energy:         -192.3780778613 H        -5234.8738 eV
Force related energy:             -192.3780778613 H        -5234.8738 eV

Volume:                              0.100513E+05 au^3   0.148944E+04 A^3
Pressure:                           -0.309924E-06 au    -0.911829E+07 Pa
>> Charges saved for restart in charges.bin

total energy  -1.9237808E+02 H       energy change -7.2842724E-05 H
gradient norm  6.3658502E-03 H/a0    max. gradient  1.3622803E-03 H/a0
step length    6.2234017E-02 a0      max. step      1.5021290E-02 a0

--------------------------------------------------------------------------------

***  Geometry step: 48

 iSCC Total electronic   Diff electronic      SCC error    
    1   -0.19434366E+03    0.00000000E+00    0.12942065E-02
    2   -0.19434514E+03   -0.14781126E-02    0.54452080E-03
    3   -0.19434514E+03   -0.19228054E-05    0.12046490E-03
    4   -0.19434514E+03   -0.45552591E-06    0.26695328E-04
    5   -0.19434514E+03   -0.41027590E-08    0.42792011E-05
    6   -0.19434514E+03   -0.22689051E-09    0.10053030E-05
    7   -0.19434514E+03   -0.12789769E-10    0.29376781E-06
    8   -0.19434514E+03   -0.25579538E-12    0.56887438E-07
    9   -0.19434514E+03    0.14210855E-12    0.95291672E-08

Total Energy:                     -192.3781513016 H        -5234.8758 eV
Extrapolated to 0K:               -192.3781513016 H        -5234.8758 eV
Total Mermin free energy:         -192.3781513016 H        -5234.8758 eV
Force related energy:             -192.3781513016 H        -5234.8758 eV

Volume:                              0.100535E+05 au^3   0.148978E+04 A^3
Pressure:                           -0.108568E-06 au    -0.319417E+07 Pa
>> Charges saved for restart in charges.bin

total energy  -1.9237815E+02 H       energy change -7.3440330E-05 H
gradient norm  6.5287034E-03 H/a0    max. gradient  1.5472855E-03 H/a0
step length    6.5572257E-02 a0      max. step      1.5943762E-02 a0

--------------------------------------------------------------------------------

***  Geometry step: 49

 iSCC Total electronic   Diff electronic      SCC error    
    1   -0.19434514E+03    0.00000000E+00    0.10750961E-02
    2   -0.19434771E+03   -0.25732995E-02    0.53645977E-03
    3   -0.19434771E+03   -0.13090905E-05    0.13383401E-03
    4   -0.19434772E+03   -0.29742679E-06    0.22982553E-04
    5   -0.19434772E+03   -0.32480045E-08    0.54596955E-05
    6   -0.19434772E+03   -0.21765345E-09    0.10769934E-05
    7   -0.19434772E+03   -0.57980287E-11    0.20135909E-06
    8   -0.19434772E+03   -0.19895197E-12    0.47503182E-07
    9   -0.19434772E+03    0.28421709E-13    0.97354818E-08

Total Energy:                     -192.3782208986 H        -5234.8777 eV
Extrapolated to 0K:               -192.3782208986 H        -5234.8777 eV
Total Mermin free energy:         -192.3782208986 H        -5234.8777 eV
Force related energy:             -192.3782208986 H        -5234.8777 eV

Volume:                              0.100543E+05 au^3   0.148989E+04 A^3
Pressure:                            0.546659E-06 au     0.160832E+08 Pa
>> Charges saved for restart in charges.bin

total energy  -1.9237822E+02 H       energy change -6.9596991E-05 H
gradient norm  6.9087733E-03 H/a0    max. gradient  1.8818953E-03 H/a0
step length    5.6768599E-02 a0      max. step      1.3218492E-02 a0

--------------------------------------------------------------------------------

***  Geometry step: 50

 iSCC Total electronic   Diff electronic      SCC error    
    1   -0.19434772E+03    0.00000000E+00    0.15147484E-02
    2   -0.19435077E+03   -0.30593737E-02    0.60912821E-03
    3   -0.19435078E+03   -0.15786845E-05    0.17756284E-03
    4   -0.19435078E+03   -0.31870252E-06    0.21829946E-04
    5   -0.19435078E+03   -0.50382880E-08    0.54677409E-05
    6   -0.19435078E+03   -0.32386538E-09    0.11283485E-05
    7   -0.19435078E+03   -0.64517280E-11    0.15537039E-06
    8   -0.19435078E+03   -0.14210855E-12    0.54272776E-07
    9   -0.19435078E+03    0.28421709E-13    0.10681030E-07
   10   -0.19435078E+03   -0.28421709E-13    0.10601280E-08

Total Energy:                     -192.3783106787 H        -5234.8802 eV
Extrapolated to 0K:               -192.3783106787 H        -5234.8802 eV
Total Mermin free energy:         -192.3783106787 H        -5234.8802 eV
Force related energy:             -192.3783106787 H        -5234.8802 eV

Volume:                              0.100552E+05 au^3   0.149002E+04 A^3
Pressure:                            0.135579E-05 au     0.398888E+08 Pa
>> Charges saved for restart in charges.bin

total energy  -1.9237831E+02 H       energy change -8.9780115E-05 H
gradient norm  7.4816057E-03 H/a0    max. gradient  2.0597266E-03 H/a0
step length    7.8065182E-02 a0      max. step      1.7566124E-02 a0

--------------------------------------------------------------------------------

***  Geometry step: 51

 iSCC Total electronic   Diff electronic      SCC error    
    1   -0.19435078E+03    0.00000000E+00    0.13938937E-02
    2   -0.19435245E+03   -0.16700980E-02    0.80944948E-03
    3   -0.19435245E+03   -0.13432150E-05    0.24854258E-03
    4   -0.19435245E+03   -0.27669427E-06    0.21583712E-04
    5   -0.19435245E+03   -0.59836793E-08    0.60474441E-05
    6   -0.19435245E+03   -0.31494096E-09    0.13552480E-05
    7   -0.19435245E+03   -0.38085091E-11    0.19341490E-06
    8   -0.19435245E+03   -0.14210855E-12    0.41318665E-07
    9   -0.19435245E+03   -0.14210855E-12    0.11402938E-07
   10   -0.19435245E+03    0.85265128E-13    0.11417542E-08

Total Energy:                     -192.3784036408 H        -5234.8827 eV
Extrapolated to 0K:               -192.3784036408 H        -5234.8827 eV
Total Mermin free energy:         -192.3784036408 H        -5234.8827 eV
Force related energy:             -192.3784036408 H        -5234.8827 eV

Volume:                              0.100566E+05 au^3   0.149023E+04 A^3
Pressure:                            0.176838E-05 au     0.520276E+08 Pa
>> Charges saved for restart in charges.bin

total energy  -1.9237840E+02 H       energy change -9.2962068E-05 H
gradient norm  7.3208334E-03 H/a0    max. gradient  2.0896882E-03 H/a0
step length    8.3493124E-02 a0      max. step      1.8972082E-02 a0

--------------------------------------------------------------------------------

***  Geometry step: 52

 iSCC Total electronic   Diff electronic      SCC error    
    1   -0.19435245E+03    0.00000000E+00    0.21955116E-02
    2   -0.19435228E+03    0.17097568E-03    0.12226525E-02
    3   -0.19435228E+03   -0.24574400E-05    0.31570074E-03
    4   -0.19435228E+03   -0.55791153E-06    0.35899425E-04
    5   -0.19435228E+03   -0.11295185E-07    0.70819058E-05
    6   -0.19435228E+03   -0.55348437E-09    0.16836342E-05
    7   -0.19435228E+03   -0.93223207E-11    0.31747719E-06
[...]
Extrapolated to 0K:               -192.3805665872 H        -5234.9416 eV
Total Mermin free energy:         -192.3805665872 H        -5234.9416 eV
Force related energy:             -192.3805665872 H        -5234.9416 eV

Volume:                              0.995645E+04 au^3   0.147539E+04 A^3
Pressure:                            0.313146E-06 au     0.921307E+07 Pa
>> Charges saved for restart in charges.bin

total energy  -1.9238057E+02 H       energy change -2.6146595E-06 H
gradient norm  1.2393869E-03 H/a0    max. gradient  2.5408477E-04 H/a0
step length    2.2642474E-02 a0      max. step      6.4268317E-03 a0

--------------------------------------------------------------------------------

***  Geometry step: 198

 iSCC Total electronic   Diff electronic      SCC error    
    1   -0.19434493E+03    0.00000000E+00    0.24743653E-03
    2   -0.19434503E+03   -0.99701419E-04    0.10411929E-03
    3   -0.19434503E+03   -0.51812378E-07    0.28346401E-04
    4   -0.19434503E+03   -0.10693270E-07    0.39628199E-05
    5   -0.19434503E+03   -0.17985258E-09    0.10877563E-05
    6   -0.19434503E+03   -0.12050805E-10    0.19082679E-06
    7   -0.19434503E+03   -0.34106051E-12    0.25608329E-07
    8   -0.19434503E+03    0.56843419E-13    0.10902437E-07
    9   -0.19434503E+03   -0.56843419E-13    0.25507738E-08

Total Energy:                     -192.3805688317 H        -5234.9416 eV
Extrapolated to 0K:               -192.3805688317 H        -5234.9416 eV
Total Mermin free energy:         -192.3805688317 H        -5234.9416 eV
Force related energy:             -192.3805688317 H        -5234.9416 eV

Volume:                              0.995598E+04 au^3   0.147532E+04 A^3
Pressure:                            0.351297E-06 au     0.103355E+08 Pa
>> Charges saved for restart in charges.bin

total energy  -1.9238057E+02 H       energy change -2.2445462E-06 H
gradient norm  1.1449479E-03 H/a0    max. gradient  2.9743258E-04 H/a0
step length    1.0536436E-02 a0      max. step      2.1455252E-03 a0

--------------------------------------------------------------------------------

***  Geometry step: 199

 iSCC Total electronic   Diff electronic      SCC error    
    1   -0.19434503E+03    0.00000000E+00    0.26211824E-03
    2   -0.19434468E+03    0.34134324E-03    0.14968997E-03
    3   -0.19434468E+03   -0.54247238E-07    0.39022817E-04
    4   -0.19434468E+03   -0.10604396E-07    0.60549661E-05
    5   -0.19434468E+03   -0.18238211E-09    0.10655137E-05
    6   -0.19434468E+03   -0.11624479E-10    0.20712696E-06
    7   -0.19434468E+03   -0.31263880E-12    0.18618913E-07
    8   -0.19434468E+03    0.28421709E-13    0.73673294E-08

Total Energy:                     -192.3805710095 H        -5234.9417 eV
Extrapolated to 0K:               -192.3805710095 H        -5234.9417 eV
Total Mermin free energy:         -192.3805710095 H        -5234.9417 eV
Force related energy:             -192.3805710095 H        -5234.9417 eV

Volume:                              0.995544E+04 au^3   0.147524E+04 A^3
Pressure:                            0.227639E-06 au     0.669736E+07 Pa
>> Charges saved for restart in charges.bin

total energy  -1.9238057E+02 H       energy change -2.1778093E-06 H
gradient norm  1.0333284E-03 H/a0    max. gradient  2.5194853E-04 H/a0
step length    1.7747898E-02 a0      max. step      3.9461935E-03 a0

--------------------------------------------------------------------------------

***  Geometry step: 200

 iSCC Total electronic   Diff electronic      SCC error    
    1   -0.19434468E+03    0.00000000E+00    0.19430956E-03
    2   -0.19434447E+03    0.21081673E-03    0.85582718E-04
    3   -0.19434447E+03   -0.27865212E-07    0.19850576E-04
    4   -0.19434447E+03   -0.66059442E-08    0.23746060E-05
    5   -0.19434447E+03   -0.73924866E-10    0.63718957E-06
    6   -0.19434447E+03   -0.42348347E-11    0.10772968E-06
    7   -0.19434447E+03   -0.14210855E-12    0.13111059E-07
    8   -0.19434447E+03    0.85265128E-13    0.49585926E-08

Total Energy:                     -192.3805726087 H        -5234.9417 eV
Extrapolated to 0K:               -192.3805726087 H        -5234.9417 eV
Total Mermin free energy:         -192.3805726087 H        -5234.9417 eV
Force related energy:             -192.3805726087 H        -5234.9417 eV

Volume:                              0.995575E+04 au^3   0.147529E+04 A^3
Pressure:                            0.129497E-06 au     0.380994E+07 Pa
>> Charges saved for restart in charges.bin

total energy  -1.9238057E+02 H       energy change -1.5991868E-06 H
gradient norm  9.8862358E-04 H/a0    max. gradient  2.1505636E-04 H/a0
step length    5.3970693E-03 a0      max. step      1.1707392E-03 a0

--------------------------------------------------------------------------------

***  Geometry step: 201

 iSCC Total electronic   Diff electronic      SCC error    
    1   -0.19434447E+03    0.00000000E+00    0.26405106E-03
    2   -0.19434419E+03    0.28467952E-03    0.11597706E-03
    3   -0.19434419E+03   -0.34870453E-07    0.17761365E-04
    4   -0.19434419E+03   -0.78556468E-08    0.25462822E-05
    5   -0.19434419E+03   -0.67899464E-10    0.67656736E-06
    6   -0.19434419E+03   -0.47180038E-11    0.11810117E-06
    7   -0.19434419E+03   -0.85265128E-13    0.19858182E-07
    8   -0.19434419E+03    0.00000000E+00    0.46159592E-08

Total Energy:                     -192.3805742164 H        -5234.9418 eV
Extrapolated to 0K:               -192.3805742164 H        -5234.9418 eV
Total Mermin free energy:         -192.3805742164 H        -5234.9418 eV
Force related energy:             -192.3805742164 H        -5234.9418 eV

Volume:                              0.995619E+04 au^3   0.147535E+04 A^3
Pressure:                            0.993077E-08 au     0.292173E+06 Pa
>> Charges saved for restart in charges.bin

total energy  -1.9238057E+02 H       energy change -1.6076681E-06 H
gradient norm  9.4809806E-04 H/a0    max. gradient  2.0322835E-04 H/a0
step length    5.5565351E-03 a0      max. step      1.3709049E-03 a0

--------------------------------------------------------------------------------

***  Geometry step: 202

 iSCC Total electronic   Diff electronic      SCC error    
    1   -0.19434419E+03    0.00000000E+00    0.21367612E-03
    2   -0.19434407E+03    0.11745478E-03    0.92902080E-04
    3   -0.19434407E+03   -0.25163303E-07    0.24982365E-04
    4   -0.19434407E+03   -0.54421605E-08    0.31050550E-05
    5   -0.19434407E+03   -0.49112714E-10    0.31519266E-06
    6   -0.19434407E+03   -0.42064130E-11    0.64484044E-07
    7   -0.19434407E+03   -0.85265128E-13    0.11780367E-07
    8   -0.19434407E+03   -0.28421709E-13    0.36744359E-08

Total Energy:                     -192.3805756794 H        -5234.9418 eV
Extrapolated to 0K:               -192.3805756794 H        -5234.9418 eV
Total Mermin free energy:         -192.3805756794 H        -5234.9418 eV
Force related energy:             -192.3805756794 H        -5234.9418 eV

Volume:                              0.995646E+04 au^3   0.147540E+04 A^3
Pressure:                           -0.502449E-07 au    -0.147825E+07 Pa
>> Charges saved for restart in charges.bin

total energy  -1.9238058E+02 H       energy change -1.4629530E-06 H
gradient norm  8.8578199E-04 H/a0    max. gradient  1.5378900E-04 H/a0
step length    6.6360307E-03 a0      max. step      1.3452915E-03 a0

--------------------------------------------------------------------------------

***  Geometry step: 203

 iSCC Total electronic   Diff electronic      SCC error    
    1   -0.19434407E+03    0.00000000E+00    0.24200995E-03
    2   -0.19434414E+03   -0.63843645E-04    0.10130689E-03
    3   -0.19434414E+03   -0.31723573E-07    0.33312679E-04
    4   -0.19434414E+03   -0.67565793E-08    0.34559572E-05
    5   -0.19434414E+03   -0.64147798E-10    0.58939261E-06
    6   -0.19434414E+03   -0.46327386E-11    0.11338239E-06
    7   -0.19434414E+03   -0.11368684E-12    0.14970036E-07
    8   -0.19434414E+03    0.28421709E-13    0.56707421E-08

Total Energy:                     -192.3805771320 H        -5234.9419 eV
Extrapolated to 0K:               -192.3805771320 H        -5234.9419 eV
Total Mermin free energy:         -192.3805771320 H        -5234.9419 eV
Force related energy:             -192.3805771320 H        -5234.9419 eV

Volume:                              0.995656E+04 au^3   0.147541E+04 A^3
Pressure:                           -0.484045E-07 au    -0.142411E+07 Pa
>> Charges saved for restart in charges.bin

total energy  -1.9238058E+02 H       energy change -1.4526835E-06 H
gradient norm  7.8907463E-04 H/a0    max. gradient  1.5509063E-04 H/a0
step length    7.9883587E-03 a0      max. step      1.7018518E-03 a0

--------------------------------------------------------------------------------

***  Geometry step: 204

 iSCC Total electronic   Diff electronic      SCC error    
    1   -0.19434414E+03    0.00000000E+00    0.17369032E-03
    2   -0.19434425E+03   -0.11011842E-03    0.74317687E-04
    3   -0.19434425E+03   -0.26229145E-07    0.24059723E-04
    4   -0.19434425E+03   -0.54795066E-08    0.25638004E-05
    5   -0.19434425E+03   -0.64005690E-10    0.51171797E-06
    6   -0.19434425E+03   -0.44622084E-11    0.12167144E-06
    7   -0.19434425E+03   -0.28421709E-13    0.12987905E-07
    8   -0.19434425E+03    0.28421709E-13    0.44668735E-08

Total Energy:                     -192.3805783231 H        -5234.9419 eV
Extrapolated to 0K:               -192.3805783231 H        -5234.9419 eV
Total Mermin free energy:         -192.3805783231 H        -5234.9419 eV
Force related energy:             -192.3805783231 H        -5234.9419 eV

Volume:                              0.995618E+04 au^3   0.147535E+04 A^3
Pressure:                            0.962640E-08 au     0.283218E+06 Pa
>> Charges saved for restart in charges.bin

total energy  -1.9238058E+02 H       energy change -1.1910957E-06 H
gradient norm  7.4513612E-04 H/a0    max. gradient  1.3924333E-04 H/a0
step length    1.1340613E-02 a0      max. step      2.2060903E-03 a0

--------------------------------------------------------------------------------

***  Geometry step: 205

 iSCC Total electronic   Diff electronic      SCC error    
    1   -0.19434425E+03    0.00000000E+00    0.15045589E-03
    2   -0.19434434E+03   -0.89561874E-04    0.68051386E-04
    3   -0.19434434E+03   -0.95355404E-08    0.12675429E-04
    4   -0.19434434E+03   -0.21210838E-08    0.16472647E-05
    5   -0.19434434E+03   -0.27853275E-10    0.45931735E-06
    6   -0.19434434E+03   -0.25011104E-11    0.82393216E-07
    7   -0.19434434E+03    0.85265128E-13    0.88920507E-08

Total Energy:                     -192.3805790594 H        -5234.9419 eV
Extrapolated to 0K:               -192.3805790594 H        -5234.9419 eV
Total Mermin free energy:         -192.3805790594 H        -5234.9419 eV
Force related energy:             -192.3805790594 H        -5234.9419 eV

Volume:                              0.995607E+04 au^3   0.147534E+04 A^3
Pressure:                            0.439215E-07 au     0.129221E+07 Pa
>> Charges saved for restart in charges.bin

total energy  -1.9238058E+02 H       energy change -7.3626097E-07 H
gradient norm  6.3833758E-04 H/a0    max. gradient  1.2596712E-04 H/a0
step length    2.1890259E-03 a0      max. step      4.1104972E-04 a0

--------------------------------------------------------------------------------

***  Geometry step: 206

 iSCC Total electronic   Diff electronic      SCC error    
    1   -0.19434434E+03    0.00000000E+00    0.20968708E-03
    2   -0.19434453E+03   -0.19073398E-03    0.95632141E-04
    3   -0.19434453E+03   -0.26508985E-07    0.18472802E-04
    4   -0.19434453E+03   -0.57329999E-08    0.25962642E-05
    5   -0.19434453E+03   -0.74720674E-10    0.61417860E-06
    6   -0.19434453E+03   -0.66506800E-11    0.13510465E-06
    7   -0.19434453E+03   -0.11368684E-12    0.13290077E-07
    8   -0.19434453E+03   -0.11368684E-12    0.42365360E-08

Total Energy:                     -192.3805799723 H        -5234.9419 eV
Extrapolated to 0K:               -192.3805799723 H        -5234.9419 eV
Total Mermin free energy:         -192.3805799723 H        -5234.9419 eV
Force related energy:             -192.3805799723 H        -5234.9419 eV

Volume:                              0.995590E+04 au^3   0.147531E+04 A^3
Pressure:                            0.127145E-06 au     0.374074E+07 Pa
>> Charges saved for restart in charges.bin

total energy  -1.9238058E+02 H       energy change -9.1294825E-07 H
gradient norm  6.1462936E-04 H/a0    max. gradient  1.4991118E-04 H/a0
step length    3.7861268E-03 a0      max. step      7.0073140E-04 a0

--------------------------------------------------------------------------------

***  Geometry step: 207

 iSCC Total electronic   Diff electronic      SCC error    
    1   -0.19434453E+03    0.00000000E+00    0.98742779E-04
    2   -0.19434457E+03   -0.39882311E-04    0.40162072E-04
    3   -0.19434457E+03   -0.82724796E-08    0.12990690E-04
    4   -0.19434457E+03   -0.17012667E-08    0.15433469E-05
    5   -0.19434457E+03   -0.24698465E-10    0.21759937E-06
    6   -0.19434457E+03   -0.23590019E-11    0.73570411E-07
    7   -0.19434457E+03   -0.85265128E-13    0.87888656E-08

Total Energy:                     -192.3805805444 H        -5234.9419 eV
Extrapolated to 0K:               -192.3805805444 H        -5234.9419 eV
Total Mermin free energy:         -192.3805805444 H        -5234.9419 eV
Force related energy:             -192.3805805444 H        -5234.9419 eV

Volume:                              0.995587E+04 au^3   0.147531E+04 A^3
Pressure:                            0.120333E-06 au     0.354033E+07 Pa
>> Charges saved for restart in charges.bin

total energy  -1.9238058E+02 H       energy change -5.7207956E-07 H
gradient norm  5.9896648E-04 H/a0    max. gradient  1.4573376E-04 H/a0
step length    3.0883005E-03 a0      max. step      6.5934032E-04 a0

--------------------------------------------------------------------------------

***  Geometry step: 208

 iSCC Total electronic   Diff electronic      SCC error    
    1   -0.19434457E+03    0.00000000E+00    0.11906721E-03
    2   -0.19434462E+03   -0.50104757E-04    0.49411235E-04
    3   -0.19434462E+03   -0.14201703E-07    0.15663848E-04
    4   -0.19434462E+03   -0.30302374E-08    0.24615919E-05
    5   -0.19434462E+03   -0.44934723E-10    0.29216013E-06
    6   -0.19434462E+03   -0.44053650E-11    0.80046390E-07
    7   -0.19434462E+03   -0.28421709E-13    0.12132259E-07
    8   -0.19434462E+03    0.00000000E+00    0.27612601E-08

Total Energy:                     -192.3805813213 H        -5234.9420 eV
Extrapolated to 0K:               -192.3805813213 H        -5234.9420 eV
Total Mermin free energy:         -192.3805813213 H        -5234.9420 eV
Force related energy:             -192.3805813213 H        -5234.9420 eV

Volume:                              0.995578E+04 au^3   0.147530E+04 A^3
Pressure:                            0.121379E-06 au     0.357110E+07 Pa
>> Charges saved for restart in charges.bin

total energy  -1.9238058E+02 H       energy change -7.7688804E-07 H
gradient norm  5.9661246E-04 H/a0    max. gradient  1.2229727E-04 H/a0
step length    5.7853471E-03 a0      max. step      1.2009077E-03 a0

--------------------------------------------------------------------------------

***  Geometry step: 209

 iSCC Total electronic   Diff electronic      SCC error    
    1   -0.19434462E+03    0.00000000E+00    0.14542566E-03
    2   -0.19434452E+03    0.96333575E-04    0.63574612E-04
    3   -0.19434452E+03   -0.10891711E-07    0.11391813E-04
    4   -0.19434452E+03   -0.23018742E-08    0.15561039E-05
    5   -0.19434452E+03   -0.26517455E-10    0.20782991E-06
    6   -0.19434452E+03   -0.25295321E-11    0.76482633E-07
    7   -0.19434452E+03   -0.28421709E-13    0.95685722E-08

Total Energy:                     -192.3805820223 H        -5234.9420 eV
Extrapolated to 0K:               -192.3805820223 H        -5234.9420 eV
Total Mermin free energy:         -192.3805820223 H        -5234.9420 eV
Force related energy:             -192.3805820223 H        -5234.9420 eV

Volume:                              0.995561E+04 au^3   0.147527E+04 A^3
Pressure:                            0.767222E-07 au     0.225725E+07 Pa
>> Charges saved for restart in charges.bin

total energy  -1.9238058E+02 H       energy change -7.0096391E-07 H
gradient norm  5.7637476E-04 H/a0    max. gradient  1.1202057E-04 H/a0
step length    7.8733594E-03 a0      max. step      1.6226515E-03 a0

--------------------------------------------------------------------------------

***  Geometry step: 210

 iSCC Total electronic   Diff electronic      SCC error    
    1   -0.19434452E+03    0.00000000E+00    0.13774482E-03
    2   -0.19434441E+03    0.11320915E-03    0.63181164E-04
    3   -0.19434441E+03   -0.11068835E-07    0.16194143E-04
    4   -0.19434441E+03   -0.24008386E-08    0.21676456E-05
    5   -0.19434441E+03   -0.40841996E-10    0.34212352E-06
    6   -0.19434441E+03   -0.26147973E-11    0.69870005E-07
    7   -0.19434441E+03    0.00000000E+00    0.73188158E-08

Total Energy:                     -192.3805827138 H        -5234.9420 eV
Extrapolated to 0K:               -192.3805827138 H        -5234.9420 eV
Total Mermin free energy:         -192.3805827138 H        -5234.9420 eV
Force related energy:             -192.3805827138 H        -5234.9420 eV

Volume:                              0.995539E+04 au^3   0.147524E+04 A^3
Pressure:                            0.517289E-07 au     0.152192E+07 Pa
>> Charges saved for restart in charges.bin

total energy  -1.9238058E+02 H       energy change -6.9150235E-07 H
gradient norm  5.3824310E-04 H/a0    max. gradient  1.0133323E-04 H/a0
step length    8.5365994E-03 a0      max. step      1.5885258E-03 a0

--------------------------------------------------------------------------------

***  Geometry step: 211

 iSCC Total electronic   Diff electronic      SCC error    
    1   -0.19434441E+03    0.00000000E+00    0.85033136E-04
    2   -0.19434432E+03    0.84653807E-04    0.40674274E-04
    3   -0.19434432E+03   -0.73301578E-08    0.12420397E-04
    4   -0.19434432E+03   -0.15202772E-08    0.14419842E-05
    5   -0.19434432E+03   -0.32116532E-10    0.43092708E-06
    6   -0.19434432E+03   -0.20179414E-11    0.67620585E-07
    7   -0.19434432E+03   -0.28421709E-13    0.66718147E-08

Total Energy:                     -192.3805832023 H        -5234.9420 eV
Extrapolated to 0K:               -192.3805832023 H        -5234.9420 eV
Total Mermin free energy:         -192.3805832023 H        -5234.9420 eV
Force related energy:             -192.3805832023 H        -5234.9420 eV

Volume:                              0.995540E+04 au^3   0.147524E+04 A^3
Pressure:                            0.678343E-08 au     0.199575E+06 Pa
>> Charges saved for restart in charges.bin

total energy  -1.9238058E+02 H       energy change -4.8849131E-07 H
gradient norm  5.1274682E-04 H/a0    max. gradient  9.2998633E-05 H/a0
step length    2.0550013E-03 a0      max. step      4.3008610E-04 a0

Geometry converged

--------------------------------------------------------------------------------
DFTB+ running times                          cpu [s]             wall clock [s]
--------------------------------------------------------------------------------
Pre-SCC initialisation                 +       7.49 (  0.3%)       3.39 (  0.9%)
SCC                                    +    2726.39 ( 91.7%)     355.49 ( 89.4%)
Post-SCC processing                    +     238.08 (  8.0%)      38.53 (  9.7%)
--------------------------------------------------------------------------------
Missing                                +       0.18 (  0.0%)       0.01 (  0.0%)
Total                                  =    2972.14 (100.0%)     397.42 (100.0%)
--------------------------------------------------------------------------------
