|===============================================================================
|
|  DFTB+ release 24.1
|
|  Copyright (C) 2006 - 2024  DFTB+ developers group
|
|===============================================================================
|
|  When publishing results obtained with DFTB+, please cite the following
|  reference:
|
|  * DFTB+, a software package for efficient approximate density functional
|    theory based atomistic simulations, J. Chem. Phys. 152, 124101 (2020).
|    [doi: 10.1063/1.5143190]
|
|  You should also cite additional publications crediting the parametrization
|  data you use. Please consult the documentation of the SK-files for the
|  references.
|
|===============================================================================

Reading input file 'dftb_in.hsd'
Parser version: 14

--------------------------------------------------------------------------------
Reading SK-files:
./SKFiles/Ge-Ge.skf
./SKFiles/Ge-Si.skf
./SKFiles/Ge-O.skf
./SKFiles/Si-Si.skf
./SKFiles/Si-O.skf
./SKFiles/O-O.skf
Done.


Processed input in HSD format written to 'dftb_pin.hsd'

Starting initialization...
--------------------------------------------------------------------------------
WARNING!
-> Dipole printed for extended system : value printed is not well defined
MPI processes:               1
OpenMP threads:              8
BLACS orbital grid size:     1 x 1
BLACS atom grid size:        1 x 1
Chosen random seed:          141345643
Current stacksize:           unlimited
Mode:                        Static calculation
Self consistent charges:     Yes
SCC-tolerance:                 0.100000E-07
Max. scc iterations:                    500
Shell resolved Hubbard:      No
Spin polarisation:           No
Nr. of up electrons:           192.000000
Nr. of down electrons:         192.000000
Periodic boundaries:         Yes
Electronic solver:           Relatively robust
Mixer:                       Broyden mixer
Mixing parameter:                  0.200000
Maximal SCC-cycles:                     500
Nr. of chrg. vec. in memory:            500
Electronic temperature:              0.100000E-07 H      0.272114E-06 eV
Initial charges:             Set automatically (system chrg:   0.000E+00)
Included shells:            Ge:  s, p, d
                            Si:  s, p, d
                             O:  s, p
K-points and weights:           1:  0.500000  0.500000  0.500000     1.000000

K-points in absolute space:     1:  0.025319  0.017606  0.037774

Extra options:
                             Mulliken analysis
Force type                   original

--------------------------------------------------------------------------------

***  Geometry step: 0

 iSCC Total electronic   Diff electronic      SCC error    
    1    0.00000000E+00    0.00000000E+00    0.14597589E+01
    2   -0.19480593E+03   -0.19480593E+03    0.99372374E+00
    3   -0.19517180E+03   -0.36587209E+00    0.38486257E-01
    4   -0.19548761E+03   -0.31580709E+00    0.27178472E-01
    5   -0.19548950E+03   -0.18894879E-02    0.37381365E-02
    6   -0.19548964E+03   -0.13556994E-03    0.16838398E-02
    7   -0.19548964E+03   -0.29062242E-05    0.37260962E-03
    8   -0.19548964E+03   -0.10345601E-05    0.47577465E-04
    9   -0.19548964E+03   -0.51874622E-07    0.30093173E-04
   10   -0.19548964E+03   -0.13372414E-09    0.15657062E-05
   11   -0.19548964E+03   -0.16592594E-09    0.36638833E-06
   12   -0.19548964E+03   -0.15063506E-11    0.27001353E-06
   13   -0.19548964E+03   -0.11368684E-12    0.13838076E-07
   14   -0.19548964E+03    0.14210855E-12    0.17331927E-08

Total Energy:                     -191.8776471665 H        -5221.2564 eV
Extrapolated to 0K:               -191.8776471665 H        -5221.2564 eV
Total Mermin free energy:         -191.8776471665 H        -5221.2564 eV
Force related energy:             -191.8776471665 H        -5221.2564 eV

Volume:                              0.913789E+04 au^3   0.135410E+04 A^3
Pressure:                            0.717304E-03 au     0.211038E+11 Pa
>> Charges saved for restart in charges.bin

total energy  -1.9187765E+02 H       energy change -1.9187765E+02 H
gradient norm  1.0873662E+00 H/a0    max. gradient  6.8325013E-01 H/a0
step length    0.0000000E+00 a0      max. step      0.0000000E+00 a0

--------------------------------------------------------------------------------

***  Geometry step: 1

 iSCC Total electronic   Diff electronic      SCC error    
    1   -0.19548964E+03    0.00000000E+00    0.12321888E+00
    2   -0.19505345E+03    0.43618712E+00    0.64533436E-01
    3   -0.19506342E+03   -0.99709876E-02    0.18810354E-01
    4   -0.19506540E+03   -0.19738188E-02    0.11536446E-02
    5   -0.19506543E+03   -0.34787166E-04    0.55377296E-03
    6   -0.19506543E+03   -0.12328051E-05    0.15545432E-03
    7   -0.19506543E+03   -0.50231307E-07    0.26621380E-04
    8   -0.19506543E+03   -0.81473672E-08    0.41752051E-05
    9   -0.19506543E+03   -0.39730708E-09    0.11991224E-05
   10   -0.19506543E+03   -0.83559826E-11    0.36917157E-06
   11   -0.19506543E+03   -0.22737368E-12    0.70380833E-07
   12   -0.19506543E+03    0.00000000E+00    0.10997752E-07
   13   -0.19506543E+03    0.00000000E+00    0.16863249E-08

Total Energy:                     -192.0078834334 H        -5224.8003 eV
Extrapolated to 0K:               -192.0078834334 H        -5224.8003 eV
Total Mermin free energy:         -192.0078834334 H        -5224.8003 eV
Force related energy:             -192.0078834334 H        -5224.8003 eV

Volume:                              0.954769E+04 au^3   0.141482E+04 A^3
Pressure:                            0.439294E-03 au     0.129245E+11 Pa
>> Charges saved for restart in charges.bin

total energy  -1.9200788E+02 H       energy change -1.3023627E-01 H
gradient norm  7.0625887E-01 H/a0    max. gradient  2.4431013E-01 H/a0
step length    6.4082793E-01 a0      max. step      4.0266634E-01 a0

--------------------------------------------------------------------------------

***  Geometry step: 2

 iSCC Total electronic   Diff electronic      SCC error    
    1   -0.19506543E+03    0.00000000E+00    0.59154976E-01
    2   -0.19502079E+03    0.44643307E-01    0.23432946E-01
    3   -0.19502402E+03   -0.32280547E-02    0.39824889E-02
    4   -0.19502467E+03   -0.65211424E-03    0.10055224E-02
    5   -0.19502468E+03   -0.76568845E-05    0.22982042E-03
    6   -0.19502468E+03   -0.33471670E-06    0.60554098E-04
    7   -0.19502468E+03   -0.38108709E-07    0.18290937E-04
    8   -0.19502468E+03   -0.31238301E-08    0.14614119E-05
    9   -0.19502468E+03   -0.49453774E-10    0.39290569E-06
   10   -0.19502468E+03   -0.27284841E-11    0.14040813E-06
   11   -0.19502468E+03   -0.14210855E-12    0.32371340E-07
   12   -0.19502468E+03    0.85265128E-13    0.39793639E-08

Total Energy:                     -192.1701440912 H        -5229.2157 eV
Extrapolated to 0K:               -192.1701440912 H        -5229.2157 eV
Total Mermin free energy:         -192.1701440912 H        -5229.2157 eV
Force related energy:             -192.1701440912 H        -5229.2157 eV

Volume:                              0.952316E+04 au^3   0.141119E+04 A^3
Pressure:                            0.372182E-03 au     0.109500E+11 Pa
>> Charges saved for restart in charges.bin

total energy  -1.9217014E+02 H       energy change -1.6226066E-01 H
gradient norm  3.4916521E-01 H/a0    max. gradient  8.6271760E-02 H/a0
step length    3.6423044E-01 a0      max. step      1.0700431E-01 a0

--------------------------------------------------------------------------------

***  Geometry step: 3

 iSCC Total electronic   Diff electronic      SCC error    
    1   -0.19502468E+03    0.00000000E+00    0.56300180E-01
    2   -0.19492088E+03    0.10379647E+00    0.25160811E-01
    3   -0.19492333E+03   -0.24525844E-02    0.48345978E-02
    4   -0.19492387E+03   -0.53326278E-03    0.93191041E-03
    5   -0.19492387E+03   -0.65406257E-05    0.19878107E-03
    6   -0.19492387E+03   -0.49106526E-06    0.53120729E-04
    7   -0.19492387E+03   -0.23585585E-07    0.91961290E-05
    8   -0.19492387E+03   -0.27121416E-08    0.21873342E-05
    9   -0.19492387E+03   -0.33480774E-10    0.26728093E-06
   10   -0.19492387E+03   -0.23305802E-11    0.13035885E-06
   11   -0.19492387E+03    0.00000000E+00    0.28172226E-07
   12   -0.19492387E+03    0.00000000E+00    0.32220426E-08

Total Energy:                     -192.2477110502 H        -5231.3264 eV
Extrapolated to 0K:               -192.2477110502 H        -5231.3264 eV
Total Mermin free energy:         -192.2477110502 H        -5231.3264 eV
Force related energy:             -192.2477110502 H        -5231.3264 eV

Volume:                              0.952795E+04 au^3   0.141190E+04 A^3
Pressure:                            0.312684E-03 au     0.919947E+10 Pa
>> Charges saved for restart in charges.bin

total energy  -1.9224771E+02 H       energy change -7.7566959E-02 H
gradient norm  2.7698222E-01 H/a0    max. gradient  1.7311523E-01 H/a0
step length    4.2987047E-01 a0      max. step      9.7881905E-02 a0

--------------------------------------------------------------------------------

***  Geometry step: 4

 iSCC Total electronic   Diff electronic      SCC error    
    1   -0.19492387E+03    0.00000000E+00    0.34765209E-01
    2   -0.19473794E+03    0.18593268E+00    0.15661056E-01
    3   -0.19473887E+03   -0.92391556E-03    0.32350825E-02
    4   -0.19473907E+03   -0.20293166E-03    0.63118776E-03
    5   -0.19473907E+03   -0.24869187E-05    0.88827233E-04
    6   -0.19473907E+03   -0.26461791E-06    0.23060769E-04
    7   -0.19473907E+03   -0.55392491E-08    0.71151647E-05
    8   -0.19473907E+03   -0.83048235E-09    0.10263983E-05
    9   -0.19473907E+03   -0.14864554E-10    0.20119804E-06
   10   -0.19473907E+03   -0.11368684E-11    0.63104289E-07
   11   -0.19473907E+03   -0.56843419E-13    0.17492437E-07
   12   -0.19473907E+03    0.28421709E-13    0.14541812E-08

Total Energy:                     -192.2805378671 H        -5232.2196 eV
Extrapolated to 0K:               -192.2805378671 H        -5232.2196 eV
Total Mermin free energy:         -192.2805378671 H        -5232.2196 eV
Force related energy:             -192.2805378671 H        -5232.2196 eV

Volume:                              0.963024E+04 au^3   0.142705E+04 A^3
Pressure:                            0.223830E-03 au     0.658530E+10 Pa
>> Charges saved for restart in charges.bin

total energy  -1.9228054E+02 H       energy change -3.2826817E-02 H
gradient norm  3.0182790E-01 H/a0    max. gradient  1.6451527E-01 H/a0
step length    3.4201308E-01 a0      max. step      1.1693293E-01 a0

--------------------------------------------------------------------------------

***  Geometry step: 5

 iSCC Total electronic   Diff electronic      SCC error    
    1   -0.19473907E+03    0.00000000E+00    0.38481611E-01
    2   -0.19449134E+03    0.24772734E+00    0.15184389E-01
    3   -0.19449224E+03   -0.89155870E-03    0.31401400E-02
    4   -0.19449243E+03   -0.18974474E-03    0.39126680E-03
    5   -0.19449243E+03   -0.31840385E-05    0.10664330E-03
    6   -0.19449243E+03   -0.19891786E-06    0.59867870E-04
    7   -0.19449243E+03   -0.29107809E-08    0.52617230E-05
    8   -0.19449243E+03   -0.42393822E-09    0.11639956E-05
    9   -0.19449243E+03   -0.20122570E-10    0.24076233E-06
   10   -0.19449243E+03   -0.28421709E-12    0.30199907E-07
   11   -0.19449243E+03   -0.14210855E-12    0.86724028E-08

Total Energy:                     -192.3187128180 H        -5233.2584 eV
Extrapolated to 0K:               -192.3187128180 H        -5233.2584 eV
Total Mermin free energy:         -192.3187128180 H        -5233.2584 eV
Force related energy:             -192.3187128180 H        -5233.2584 eV

Volume:                              0.977257E+04 au^3   0.144815E+04 A^3
Pressure:                            0.111914E-03 au     0.329263E+10 Pa
>> Charges saved for restart in charges.bin

total energy  -1.9231871E+02 H       energy change -3.8174951E-02 H
gradient norm  1.3543284E-01 H/a0    max. gradient  5.6278052E-02 H/a0
step length    4.3690373E-01 a0      max. step      1.3800006E-01 a0

--------------------------------------------------------------------------------

***  Geometry step: 6

 iSCC Total electronic   Diff electronic      SCC error    
    1   -0.19449243E+03    0.00000000E+00    0.23239287E-01
    2   -0.19440212E+03    0.90310346E-01    0.99354295E-02
    3   -0.19440253E+03   -0.40871091E-03    0.25738375E-02
    4   -0.19440261E+03   -0.78727286E-04    0.49056213E-03
    5   -0.19440261E+03   -0.12785716E-05    0.84153214E-04
    6   -0.19440261E+03   -0.12106679E-06    0.38226096E-04
    7   -0.19440261E+03   -0.28671252E-08    0.72681942E-05
    8   -0.19440261E+03   -0.19994673E-09    0.82184588E-06
    9   -0.19440261E+03   -0.15830892E-10    0.15351936E-06
   10   -0.19440261E+03   -0.42632564E-12    0.33711419E-07
   11   -0.19440261E+03    0.00000000E+00    0.59490448E-08

Total Energy:                     -192.3319958616 H        -5233.6199 eV
Extrapolated to 0K:               -192.3319958616 H        -5233.6199 eV
Total Mermin free energy:         -192.3319958616 H        -5233.6199 eV
Force related energy:             -192.3319958616 H        -5233.6199 eV

Volume:                              0.980951E+04 au^3   0.145362E+04 A^3
Pressure:                            0.691138E-04 au     0.203340E+10 Pa
>> Charges saved for restart in charges.bin

total energy  -1.9233200E+02 H       energy change -1.3283044E-02 H
gradient norm  9.7063416E-02 H/a0    max. gradient  3.3518360E-02 H/a0
step length    2.6693500E-01 a0      max. step      5.4412392E-02 a0

--------------------------------------------------------------------------------

***  Geometry step: 7

 iSCC Total electronic   Diff electronic      SCC error    
    1   -0.19440261E+03    0.00000000E+00    0.12284647E-01
    2   -0.19436830E+03    0.34305160E-01    0.57143546E-02
    3   -0.19436844E+03   -0.14161104E-03    0.12240211E-02
    4   -0.19436848E+03   -0.36605159E-04    0.18262565E-03
    5   -0.19436848E+03   -0.20394077E-06    0.21153780E-04
    6   -0.19436848E+03   -0.16955056E-07    0.11678558E-04
    7   -0.19436848E+03   -0.36504844E-09    0.30701715E-05
    8   -0.19436848E+03   -0.40898840E-10    0.33491241E-06
    9   -0.19436848E+03   -0.11652901E-11    0.98843441E-07
   10   -0.19436848E+03   -0.17053026E-12    0.19840690E-07
   11   -0.19436848E+03    0.28421709E-13    0.24014684E-08

Total Energy:                     -192.3406853023 H        -5233.8563 eV
Extrapolated to 0K:               -192.3406853023 H        -5233.8563 eV
Total Mermin free energy:         -192.3406853023 H        -5233.8563 eV
Force related energy:             -192.3406853023 H        -5233.8563 eV

Volume:                              0.981900E+04 au^3   0.145503E+04 A^3
Pressure:                            0.518260E-04 au     0.152477E+10 Pa
>> Charges saved for restart in charges.bin

total energy  -1.9234069E+02 H       energy change -8.6894407E-03 H
gradient norm  6.7750418E-02 H/a0    max. gradient  1.2537852E-02 H/a0
step length    1.8257167E-01 a0      max. step      3.7533879E-02 a0

--------------------------------------------------------------------------------

***  Geometry step: 8

 iSCC Total electronic   Diff electronic      SCC error    
    1   -0.19436848E+03    0.00000000E+00    0.11739819E-01
    2   -0.19435283E+03    0.15651172E-01    0.77245367E-02
    3   -0.19435298E+03   -0.14614254E-03    0.23484213E-02
    4   -0.19435301E+03   -0.37266719E-04    0.23468519E-03
    5   -0.19435301E+03   -0.91816838E-06    0.36966126E-04
    6   -0.19435301E+03   -0.54414556E-07    0.14652594E-04
    7   -0.19435301E+03   -0.11872601E-08    0.38760482E-05
    8   -0.19435301E+03   -0.88419938E-10    0.70724114E-06
    9   -0.19435301E+03   -0.33821834E-11    0.13831902E-06
   10   -0.19435301E+03   -0.28421709E-12    0.21517216E-07
   11   -0.19435301E+03    0.00000000E+00    0.27796809E-08

Total Energy:                     -192.3495267239 H        -5234.0969 eV
Extrapolated to 0K:               -192.3495267239 H        -5234.0969 eV
Total Mermin free energy:         -192.3495267239 H        -5234.0969 eV
Force related energy:             -192.3495267239 H        -5234.0969 eV

Volume:                              0.982015E+04 au^3   0.145520E+04 A^3
Pressure:                            0.409185E-04 au     0.120386E+10 Pa
>> Charges saved for restart in charges.bin

total energy  -1.9234953E+02 H       energy change -8.8414217E-03 H
gradient norm  5.2416696E-02 H/a0    max. gradient  1.7757947E-02 H/a0
step length    2.6015846E-01 a0      max. step      5.1674443E-02 a0

--------------------------------------------------------------------------------

***  Geometry step: 9

 iSCC Total electronic   Diff electronic      SCC error    
    1   -0.19435301E+03    0.00000000E+00    0.77975605E-02
    2   -0.19435535E+03   -0.23324308E-02    0.48094559E-02
    3   -0.19435541E+03   -0.59653521E-04    0.10055361E-02
    4   -0.19435542E+03   -0.17292322E-04    0.14915467E-03
    5   -0.19435542E+03   -0.51865962E-06    0.33388750E-04
    6   -0.19435542E+03   -0.39972093E-07    0.62927699E-05
    7   -0.19435542E+03   -0.13456827E-08    0.13039887E-05
    8   -0.19435542E+03   -0.56672889E-10    0.38989250E-06
    9   -0.19435542E+03   -0.22453150E-11    0.56989245E-07
   10   -0.19435542E+03   -0.11368684E-12    0.13836907E-07
   11   -0.19435542E+03    0.56843419E-13    0.30631546E-08

Total Energy:                     -192.3532568232 H        -5234.1984 eV
Extrapolated to 0K:               -192.3532568232 H        -5234.1984 eV
Total Mermin free energy:         -192.3532568232 H        -5234.1984 eV
Force related energy:             -192.3532568232 H        -5234.1984 eV

Volume:                              0.981568E+04 au^3   0.145453E+04 A^3
Pressure:                            0.398567E-04 au     0.117262E+10 Pa
>> Charges saved for restart in charges.bin

total energy  -1.9235326E+02 H       energy change -3.7300993E-03 H
gradient norm  4.2939700E-02 H/a0    max. gradient  1.2969918E-02 H/a0
step length    1.7131457E-01 a0      max. step      3.0182628E-02 a0

--------------------------------------------------------------------------------

***  Geometry step: 10

 iSCC Total electronic   Diff electronic      SCC error    
    1   -0.19435542E+03    0.00000000E+00    0.78064157E-02
    2   -0.19435487E+03    0.55227392E-03    0.35846220E-02
    3   -0.19435492E+03   -0.47881191E-04    0.88957491E-03
    4   -0.19435493E+03   -0.11584274E-04    0.11458773E-03
    5   -0.19435493E+03   -0.37719857E-06    0.33000453E-04
    6   -0.19435493E+03   -0.31328284E-07    0.83835089E-05
    7   -0.19435493E+03   -0.11618511E-08    0.32119405E-05
    8   -0.19435493E+03   -0.45730530E-10    0.44573816E-06
    9   -0.19435493E+03   -0.21600499E-11    0.62965334E-07
   10   -0.19435493E+03   -0.11368684E-12    0.14854787E-07
   11   -0.19435493E+03    0.14210855E-12    0.26199984E-08

Total Energy:                     -192.3559379433 H        -5234.2714 eV
Extrapolated to 0K:               -192.3559379433 H        -5234.2714 eV
Total Mermin free energy:         -192.3559379433 H        -5234.2714 eV
Force related energy:             -192.3559379433 H        -5234.2714 eV

Volume:                              0.981789E+04 au^3   0.145486E+04 A^3
Pressure:                            0.373179E-04 au     0.109793E+10 Pa
>> Charges saved for restart in charges.bin

total energy  -1.9235594E+02 H       energy change -2.6811201E-03 H
gradient norm  3.7063775E-02 H/a0    max. gradient  1.0999755E-02 H/a0
step length    1.5608603E-01 a0      max. step      2.9181304E-02 a0

--------------------------------------------------------------------------------

***  Geometry step: 11

 iSCC Total electronic   Diff electronic      SCC error    
    1   -0.19435493E+03    0.00000000E+00    0.94177988E-02
    2   -0.19435168E+03    0.32487071E-02    0.53166896E-02
    3   -0.19435173E+03   -0.45186448E-04    0.99518851E-03
    4   -0.19435174E+03   -0.11127606E-04    0.12874185E-03
    5   -0.19435174E+03   -0.30572775E-06    0.45282710E-04
    6   -0.19435174E+03   -0.19674133E-07    0.14554026E-04
    7   -0.19435174E+03   -0.60478555E-09    0.43084225E-05
    8   -0.19435174E+03   -0.27682745E-10    0.28152340E-06
    9   -0.19435174E+03   -0.22453150E-11    0.80568918E-07
   10   -0.19435174E+03    0.00000000E+00    0.14322305E-07
   11   -0.19435174E+03   -0.56843419E-13    0.20315123E-08

Total Energy:                     -192.3582658570 H        -5234.3347 eV
Extrapolated to 0K:               -192.3582658570 H        -5234.3347 eV
Total Mermin free energy:         -192.3582658570 H        -5234.3347 eV
Force related energy:             -192.3582658570 H        -5234.3347 eV

Volume:                              0.982681E+04 au^3   0.145618E+04 A^3
Pressure:                            0.330228E-04 au     0.971564E+09 Pa
>> Charges saved for restart in charges.bin

total energy  -1.9235827E+02 H       energy change -2.3279137E-03 H
gradient norm  3.4129015E-02 H/a0    max. gradient  7.1573096E-03 H/a0
step length    1.4855030E-01 a0      max. step      2.9987611E-02 a0

--------------------------------------------------------------------------------

***  Geometry step: 12

 iSCC Total electronic   Diff electronic      SCC error    
    1   -0.19435174E+03    0.00000000E+00    0.94962785E-02
    2   -0.19434677E+03    0.49697751E-02    0.54774234E-02
    3   -0.19434681E+03   -0.37762299E-04    0.96953333E-03
    4   -0.19434682E+03   -0.94260392E-05    0.13207572E-03
    5   -0.19434682E+03   -0.27951660E-06    0.45172905E-04
    6   -0.19434682E+03   -0.12525931E-07    0.15813336E-04
    7   -0.19434682E+03   -0.14952661E-09    0.17576893E-05
    8   -0.19434682E+03   -0.23760549E-10    0.21700184E-06
    9   -0.19434682E+03   -0.13358203E-11    0.73521204E-07
   10   -0.19434682E+03    0.56843419E-13    0.96226920E-08

Total Energy:                     -192.3603303655 H        -5234.3909 eV
Extrapolated to 0K:               -192.3603303655 H        -5234.3909 eV
Total Mermin free energy:         -192.3603303655 H        -5234.3909 eV
Force related energy:             -192.3603303655 H        -5234.3909 eV

Volume:                              0.984235E+04 au^3   0.145849E+04 A^3
Pressure:                            0.291066E-04 au     0.856347E+09 Pa
>> Charges saved for restart in charges.bin

total energy  -1.9236033E+02 H       energy change -2.0645085E-03 H
gradient norm  3.2574741E-02 H/a0    max. gradient  1.1670651E-02 H/a0
step length    1.4516639E-01 a0      max. step      2.9870681E-02 a0

--------------------------------------------------------------------------------

***  Geometry step: 13

 iSCC Total electronic   Diff electronic      SCC error    
    1   -0.19434682E+03    0.00000000E+00    0.63466900E-02
    2   -0.19433964E+03    0.71743117E-02    0.39003946E-02
    3   -0.19433967E+03   -0.27942703E-04    0.98643294E-03
    4   -0.19433968E+03   -0.64390740E-05    0.11546548E-03
    5   -0.19433968E+03   -0.24564901E-06    0.50814613E-04
    6   -0.19433968E+03   -0.12391865E-07    0.13560087E-04
    7   -0.19433968E+03   -0.28288127E-09    0.19146367E-05
    8   -0.19433968E+03   -0.11624479E-10    0.30724522E-06
    9   -0.19433968E+03   -0.24726887E-11    0.66833131E-07
   10   -0.19433968E+03    0.00000000E+00    0.68544015E-08

Total Energy:                     -192.3620352793 H        -5234.4373 eV
Extrapolated to 0K:               -192.3620352793 H        -5234.4373 eV
Total Mermin free energy:         -192.3620352793 H        -5234.4373 eV
Force related energy:             -192.3620352793 H        -5234.4373 eV

Volume:                              0.986157E+04 au^3   0.146133E+04 A^3
Pressure:                            0.246798E-04 au     0.726103E+09 Pa
>> Charges saved for restart in charges.bin

total energy  -1.9236204E+02 H       energy change -1.7049138E-03 H
gradient norm  2.9600788E-02 H/a0    max. gradient  9.7097432E-03 H/a0
step length    1.4151031E-01 a0      max. step      2.6337774E-02 a0

--------------------------------------------------------------------------------

***  Geometry step: 14

 iSCC Total electronic   Diff electronic      SCC error    
    1   -0.19433968E+03    0.00000000E+00    0.57419534E-02
    2   -0.19433108E+03    0.86011838E-02    0.35542397E-02
    3   -0.19433110E+03   -0.27230814E-04    0.10313408E-02
    4   -0.19433111E+03   -0.61184412E-05    0.87839438E-04
    5   -0.19433111E+03   -0.17408053E-06    0.22476369E-04
    6   -0.19433111E+03   -0.10964158E-07    0.63630444E-05
    7   -0.19433111E+03   -0.47481308E-09    0.15387677E-05
    8   -0.19433111E+03   -0.22481572E-10    0.28095197E-06
    9   -0.19433111E+03   -0.99475983E-12    0.49741881E-07
   10   -0.19433111E+03   -0.56843419E-13    0.96252246E-08

Total Energy:                     -192.3634583077 H        -5234.4760 eV
Extrapolated to 0K:               -192.3634583077 H        -5234.4760 eV
Total Mermin free energy:         -192.3634583077 H        -5234.4760 eV
Force related energy:             -192.3634583077 H        -5234.4760 eV

Volume:                              0.988397E+04 au^3   0.146465E+04 A^3
Pressure:                            0.193312E-04 au     0.568745E+09 Pa
>> Charges saved for restart in charges.bin

total energy  -1.9236346E+02 H       energy change -1.4230284E-03 H
gradient norm  2.7470386E-02 H/a0    max. gradient  7.9316919E-03 H/a0
step length    1.4067509E-01 a0      max. step      2.6782281E-02 a0

--------------------------------------------------------------------------------

***  Geometry step: 15

 iSCC Total electronic   Diff electronic      SCC error    
    1   -0.19433111E+03    0.00000000E+00    0.52535094E-02
    2   -0.19432921E+03    0.19023884E-02    0.26164999E-02
    3   -0.19432924E+03   -0.37126567E-04    0.90306724E-03
    4   -0.19432925E+03   -0.77402748E-05    0.13971111E-03
    5   -0.19432925E+03   -0.16299347E-06    0.23742345E-04
    6   -0.19432925E+03   -0.17512860E-07    0.57005079E-05
    7   -0.19432925E+03   -0.68857275E-09    0.19961900E-05
    8   -0.19432925E+03   -0.31235459E-10    0.30249097E-06
    9   -0.19432925E+03   -0.14210855E-11    0.42983538E-07
   10   -0.19432925E+03   -0.56843419E-13    0.13177491E-07
   11   -0.19432925E+03   -0.56843419E-13    0.12869954E-08

Total Energy:                     -192.3645798035 H        -5234.5065 eV
Extrapolated to 0K:               -192.3645798035 H        -5234.5065 eV
Total Mermin free energy:         -192.3645798035 H        -5234.5065 eV
Force related energy:             -192.3645798035 H        -5234.5065 eV

Volume:                              0.990080E+04 au^3   0.146715E+04 A^3
Pressure:                            0.171122E-04 au     0.503459E+09 Pa
>> Charges saved for restart in charges.bin

total energy  -1.9236458E+02 H       energy change -1.1214958E-03 H
gradient norm  2.5321277E-02 H/a0    max. gradient  6.3917777E-03 H/a0
step length    1.2417646E-01 a0      max. step      2.4042861E-02 a0

--------------------------------------------------------------------------------

***  Geometry step: 16

 iSCC Total electronic   Diff electronic      SCC error    
    1   -0.19432925E+03    0.00000000E+00    0.68832294E-02
    2   -0.19432748E+03    0.17715621E-02    0.38737270E-02
    3   -0.19432750E+03   -0.20256563E-04    0.84511503E-03
    4   -0.19432751E+03   -0.45804198E-05    0.10600451E-03
    5   -0.19432751E+03   -0.90086729E-07    0.30912171E-04
    6   -0.19432751E+03   -0.85684349E-08    0.84802872E-05
    7   -0.19432751E+03   -0.27989699E-09    0.25310914E-05
    8   -0.19432751E+03   -0.65369932E-11    0.22322726E-06
    9   -0.19432751E+03   -0.10800250E-11    0.46343224E-07
   10   -0.19432751E+03   -0.85265128E-13    0.76796045E-08

Total Energy:                     -192.3655121618 H        -5234.5319 eV
Extrapolated to 0K:               -192.3655121618 H        -5234.5319 eV
Total Mermin free energy:         -192.3655121618 H        -5234.5319 eV
Force related energy:             -192.3655121618 H        -5234.5319 eV

Volume:                              0.991627E+04 au^3   0.146944E+04 A^3
Pressure:                            0.149290E-04 au     0.439225E+09 Pa
>> Charges saved for restart in charges.bin

total energy  -1.9236551E+02 H       energy change -9.3235834E-04 H
gradient norm  2.4022765E-02 H/a0    max. gradient  5.2159121E-03 H/a0
step length    1.1022695E-01 a0      max. step      2.4675401E-02 a0

--------------------------------------------------------------------------------

***  Geometry step: 17

 iSCC Total electronic   Diff electronic      SCC error    
    1   -0.19432751E+03    0.00000000E+00    0.68546331E-02
    2   -0.19432934E+03   -0.18348063E-02    0.39999001E-02
    3   -0.19432935E+03   -0.13386080E-04    0.90605556E-03
    4   -0.19432936E+03   -0.29942883E-05    0.11173972E-03
    5   -0.19432936E+03   -0.80850612E-07    0.30802249E-04
    6   -0.19432936E+03   -0.78217965E-08    0.62340030E-05
    7   -0.19432936E+03   -0.15157298E-09    0.13534541E-05
    8   -0.19432936E+03   -0.39790393E-11    0.18546534E-06
    9   -0.19432936E+03   -0.99475983E-12    0.45834936E-07
   10   -0.19432936E+03    0.28421709E-13    0.43061190E-08

Total Energy:                     -192.3664406650 H        -5234.5572 eV
Extrapolated to 0K:               -192.3664406650 H        -5234.5572 eV
Total Mermin free energy:         -192.3664406650 H        -5234.5572 eV
Force related energy:             -192.3664406650 H        -5234.5572 eV

Volume:                              0.992771E+04 au^3   0.147114E+04 A^3
Pressure:                            0.141466E-04 au     0.416207E+09 Pa
>> Charges saved for restart in charges.bin

total energy  -1.9236644E+02 H       energy change -9.2850324E-04 H
gradient norm  2.4600469E-02 H/a0    max. gradient  5.6241556E-03 H/a0
step length    1.0896866E-01 a0      max. step      1.9912841E-02 a0

--------------------------------------------------------------------------------

***  Geometry step: 18

 iSCC Total electronic   Diff electronic      SCC error    
    1   -0.19432936E+03    0.00000000E+00    0.43855169E-02
    2   -0.19433086E+03   -0.15002049E-02    0.26817429E-02
    3   -0.19433087E+03   -0.14685589E-04    0.82309862E-03
    4   -0.19433087E+03   -0.32069894E-05    0.94991025E-04
    5   -0.19433087E+03   -0.79889702E-07    0.22604174E-04
    6   -0.19433087E+03   -0.63615744E-08    0.76589879E-05
    7   -0.19433087E+03   -0.10058443E-09    0.19759463E-05
    8   -0.19433087E+03   -0.32684966E-11    0.18710807E-06
    9   -0.19433087E+03   -0.56843419E-12    0.43384121E-07
   10   -0.19433087E+03   -0.56843419E-13    0.41569761E-08

Total Energy:                     -192.3674319414 H        -5234.5842 eV
Extrapolated to 0K:               -192.3674319414 H        -5234.5842 eV
Total Mermin free energy:         -192.3674319414 H        -5234.5842 eV
Force related energy:             -192.3674319414 H        -5234.5842 eV

Volume:                              0.994145E+04 au^3   0.147317E+04 A^3
Pressure:                            0.135557E-04 au     0.398823E+09 Pa
>> Charges saved for restart in charges.bin

total energy  -1.9236743E+02 H       energy change -9.9127641E-04 H
gradient norm  2.2760748E-02 H/a0    max. gradient  6.3747979E-03 H/a0
step length    1.2884585E-01 a0      max. step      2.2436053E-02 a0

--------------------------------------------------------------------------------

***  Geometry step: 19

 iSCC Total electronic   Diff electronic      SCC error    
    1   -0.19433087E+03    0.00000000E+00    0.46575968E-02
    2   -0.19432888E+03    0.19978010E-02    0.25632911E-02
    3   -0.19432889E+03   -0.16633945E-04    0.77726131E-03
    4   -0.19432890E+03   -0.34283522E-05    0.88688364E-04
    5   -0.19432890E+03   -0.59370677E-07    0.11882169E-04
    6   -0.19432890E+03   -0.54807572E-08    0.39896119E-05
    7   -0.19432890E+03   -0.10999202E-09    0.12135838E-05
    8   -0.19432890E+03   -0.37800874E-11    0.20154574E-06
    9   -0.19432890E+03   -0.36948222E-12    0.49906215E-07
   10   -0.19432890E+03    0.11368684E-12    0.50504303E-08

Total Energy:                     -192.3683014444 H        -5234.6078 eV
Extrapolated to 0K:               -192.3683014444 H        -5234.6078 eV
Total Mermin free energy:         -192.3683014444 H        -5234.6078 eV
Force related energy:             -192.3683014444 H        -5234.6078 eV

Volume:                              0.995971E+04 au^3   0.147588E+04 A^3
Pressure:                            0.112883E-04 au     0.332114E+09 Pa
>> Charges saved for restart in charges.bin

total energy  -1.9236830E+02 H       energy change -8.6950291E-04 H
gradient norm  2.0458466E-02 H/a0    max. gradient  4.8466617E-03 H/a0
step length    1.4086578E-01 a0      max. step      2.6182884E-02 a0

--------------------------------------------------------------------------------

***  Geometry step: 20

 iSCC Total electronic   Diff electronic      SCC error    
    1   -0.19432890E+03    0.00000000E+00    0.49669815E-02
    2   -0.19432573E+03    0.31648486E-02    0.22248279E-02
    3   -0.19432575E+03   -0.12771316E-04    0.44639095E-03
    4   -0.19432575E+03   -0.26846424E-05    0.67399442E-04
    5   -0.19432575E+03   -0.49497800E-07    0.21595513E-04
    6   -0.19432575E+03   -0.39299266E-08    0.66222678E-05
    7   -0.19432575E+03   -0.10317081E-09    0.15064775E-05
    8   -0.19432575E+03   -0.30411229E-11    0.14960439E-06
    9   -0.19432575E+03   -0.54001248E-12    0.36999917E-07
   10   -0.19432575E+03    0.00000000E+00    0.65033086E-08

Total Energy:                     -192.3689638201 H        -5234.6258 eV
Extrapolated to 0K:               -192.3689638201 H        -5234.6258 eV
Total Mermin free energy:         -192.3689638201 H        -5234.6258 eV
Force related energy:             -192.3689638201 H        -5234.6258 eV

Volume:                              0.997682E+04 au^3   0.147841E+04 A^3
Pressure:                            0.886768E-05 au     0.260896E+09 Pa
>> Charges saved for restart in charges.bin

total energy  -1.9236896E+02 H       energy change -6.6237574E-04 H
gradient norm  1.8152775E-02 H/a0    max. gradient  3.8037796E-03 H/a0
step length    1.1897965E-01 a0      max. step      2.3185579E-02 a0

--------------------------------------------------------------------------------

***  Geometry step: 21

 iSCC Total electronic   Diff electronic      SCC error    
    1   -0.19432575E+03    0.00000000E+00    0.39174773E-02
    2   -0.19432280E+03    0.29498206E-02    0.20978234E-02
    3   -0.19432281E+03   -0.10468939E-04    0.50645824E-03
    4   -0.19432281E+03   -0.23673652E-05    0.64128039E-04
    5   -0.19432281E+03   -0.53866671E-07    0.27041244E-04
    6   -0.19432281E+03   -0.32573269E-08    0.61595713E-05
    7   -0.19432281E+03   -0.10280132E-09    0.10213197E-05
    8   -0.19432281E+03   -0.28137492E-11    0.15433207E-06
    9   -0.19432281E+03   -0.68212103E-12    0.36417810E-07
   10   -0.19432281E+03   -0.85265128E-13    0.50537357E-08

Total Energy:                     -192.3695363503 H        -5234.6414 eV
Extrapolated to 0K:               -192.3695363503 H        -5234.6414 eV
Total Mermin free energy:         -192.3695363503 H        -5234.6414 eV
Force related energy:             -192.3695363503 H        -5234.6414 eV

Volume:                              0.999280E+04 au^3   0.148078E+04 A^3
Pressure:                            0.690795E-05 au     0.203239E+09 Pa
>> Charges saved for restart in charges.bin

total energy  -1.9236954E+02 H       energy change -5.7253022E-04 H
gradient norm  1.6712831E-02 H/a0    max. gradient  3.0755229E-03 H/a0
step length    1.0922596E-01 a0      max. step      2.2781903E-02 a0

--------------------------------------------------------------------------------

***  Geometry step: 22

 iSCC Total electronic   Diff electronic      SCC error    
    1   -0.19432281E+03    0.00000000E+00    0.33415284E-02
    2   -0.19432081E+03    0.20037125E-02    0.18268003E-02
    3   -0.19432082E+03   -0.92909005E-05    0.43845474E-03
    4   -0.19432082E+03   -0.21431920E-05    0.47288051E-04
    5   -0.19432082E+03   -0.50109492E-07    0.19943136E-04
    6   -0.19432082E+03   -0.21904611E-08    0.48096557E-05
    7   -0.19432082E+03   -0.70969008E-10    0.80575830E-06
    8   -0.19432082E+03   -0.25011104E-11    0.16126418E-06
    9   -0.19432082E+03   -0.59685590E-12    0.32274189E-07
   10   -0.19432082E+03    0.56843419E-13    0.46111133E-08

Total Energy:                     -192.3700182740 H        -5234.6545 eV
Extrapolated to 0K:               -192.3700182740 H        -5234.6545 eV
Total Mermin free energy:         -192.3700182740 H        -5234.6545 eV
Force related energy:             -192.3700182740 H        -5234.6545 eV

Volume:                              0.100068E+05 au^3   0.148286E+04 A^3
Pressure:                            0.525642E-05 au     0.154649E+09 Pa
>> Charges saved for restart in charges.bin

total energy  -1.9237002E+02 H       energy change -4.8192366E-04 H
gradient norm  1.6216815E-02 H/a0    max. gradient  3.9972879E-03 H/a0
step length    1.0058284E-01 a0      max. step      2.2575974E-02 a0

--------------------------------------------------------------------------------

***  Geometry step: 23

 iSCC Total electronic   Diff electronic      SCC error    
    1   -0.19432082E+03    0.00000000E+00    0.36408160E-02
    2   -0.19432087E+03   -0.53019921E-04    0.19814632E-02
    3   -0.19432088E+03   -0.77847101E-05    0.37661871E-03
    4   -0.19432088E+03   -0.17768603E-05    0.49701502E-04
    5   -0.19432088E+03   -0.30444369E-07    0.17726360E-04
    6   -0.19432088E+03   -0.14782700E-08    0.37665606E-05
    7   -0.19432088E+03   -0.63266725E-10    0.73284203E-06
    8   -0.19432088E+03   -0.17053026E-11    0.12809206E-06
    9   -0.19432088E+03   -0.39790393E-12    0.25676033E-07
   10   -0.19432088E+03    0.28421709E-13    0.41084389E-08

Total Energy:                     -192.3703869523 H        -5234.6646 eV
Extrapolated to 0K:               -192.3703869523 H        -5234.6646 eV
Total Mermin free energy:         -192.3703869523 H        -5234.6646 eV
Force related energy:             -192.3703869523 H        -5234.6646 eV

Volume:                              0.100160E+05 au^3   0.148422E+04 A^3
Pressure:                            0.438606E-05 au     0.129042E+09 Pa
>> Charges saved for restart in charges.bin

total energy  -1.9237039E+02 H       energy change -3.6867835E-04 H
gradient norm  1.3583909E-02 H/a0    max. gradient  3.4995604E-03 H/a0
step length    7.5803824E-02 a0      max. step      1.6393403E-02 a0

--------------------------------------------------------------------------------

***  Geometry step: 24

 iSCC Total electronic   Diff electronic      SCC error    
    1   -0.19432088E+03    0.00000000E+00    0.28601607E-02
    2   -0.19432365E+03   -0.27704547E-02    0.15737718E-02
    3   -0.19432366E+03   -0.64192967E-05    0.31394181E-03
    4   -0.19432366E+03   -0.14241685E-05    0.35239315E-04
    5   -0.19432366E+03   -0.21483459E-07    0.12041156E-04
    6   -0.19432366E+03   -0.10513759E-08    0.31867724E-05
    7   -0.19432366E+03   -0.19269919E-10    0.36263260E-06
    8   -0.19432366E+03   -0.11368684E-11    0.81244764E-07
    9   -0.19432366E+03   -0.14210855E-12    0.15109968E-07
   10   -0.19432366E+03    0.28421709E-13    0.21253319E-08

Total Energy:                     -192.3706660365 H        -5234.6722 eV
Extrapolated to 0K:               -192.3706660365 H        -5234.6722 eV
Total Mermin free energy:         -192.3706660365 H        -5234.6722 eV
Force related energy:             -192.3706660365 H        -5234.6722 eV

Volume:                              0.100221E+05 au^3   0.148512E+04 A^3
Pressure:                            0.477170E-05 au     0.140388E+09 Pa
>> Charges saved for restart in charges.bin

total energy  -1.9237067E+02 H       energy change -2.7908413E-04 H
gradient norm  1.1598784E-02 H/a0    max. gradient  2.2588890E-03 H/a0
step length    6.3975745E-02 a0      max. step      1.4011568E-02 a0

--------------------------------------------------------------------------------

***  Geometry step: 25

 iSCC Total electronic   Diff electronic      SCC error    
    1   -0.19432366E+03    0.00000000E+00    0.21916791E-02
    2   -0.19432606E+03   -0.23986286E-02    0.12409584E-02
    3   -0.19432606E+03   -0.28395422E-05    0.28701789E-03
    4   -0.19432606E+03   -0.65709395E-06    0.35158161E-04
    5   -0.19432606E+03   -0.16485785E-07    0.86627976E-05
    6   -0.19432606E+03   -0.62757977E-09    0.15876354E-05
    7   -0.19432606E+03   -0.92654773E-11    0.22905233E-06
    8   -0.19432606E+03   -0.36948222E-12    0.64943705E-07
    9   -0.19432606E+03   -0.14210855E-12    0.14691524E-07
   10   -0.19432606E+03    0.00000000E+00    0.16671242E-08

Total Energy:                     -192.3708645834 H        -5234.6776 eV
Extrapolated to 0K:               -192.3708645834 H        -5234.6776 eV
Total Mermin free energy:         -192.3708645834 H        -5234.6776 eV
Force related energy:             -192.3708645834 H        -5234.6776 eV

Volume:                              0.100267E+05 au^3   0.148581E+04 A^3
Pressure:                            0.520298E-05 au     0.153077E+09 Pa
>> Charges saved for restart in charges.bin

total energy  -1.9237086E+02 H       energy change -1.9854690E-04 H
gradient norm  1.1304439E-02 H/a0    max. gradient  2.2180275E-03 H/a0
step length    4.6938816E-02 a0      max. step      9.7478476E-03 a0

--------------------------------------------------------------------------------

***  Geometry step: 26

 iSCC Total electronic   Diff electronic      SCC error    
    1   -0.19432606E+03    0.00000000E+00    0.26113525E-02
    2   -0.19432743E+03   -0.13717955E-02    0.14435367E-02
    3   -0.19432744E+03   -0.39889738E-05    0.39606107E-03
    4   -0.19432744E+03   -0.90459275E-06    0.45019927E-04
    5   -0.19432744E+03   -0.36841215E-07    0.13225359E-04
    6   -0.19432744E+03   -0.11233396E-08    0.29028262E-05
    7   -0.19432744E+03   -0.14409807E-10    0.40611279E-06
    8   -0.19432744E+03   -0.93791641E-12    0.10677976E-06
    9   -0.19432744E+03   -0.14210855E-12    0.28633370E-07
   10   -0.19432744E+03    0.28421709E-13    0.26958311E-08

Total Energy:                     -192.3711152566 H        -5234.6844 eV
Extrapolated to 0K:               -192.3711152566 H        -5234.6844 eV
Total Mermin free energy:         -192.3711152566 H        -5234.6844 eV
Force related energy:             -192.3711152566 H        -5234.6844 eV

Volume:                              0.100355E+05 au^3   0.148711E+04 A^3
Pressure:                            0.486631E-05 au     0.143172E+09 Pa
>> Charges saved for restart in charges.bin

total energy  -1.9237112E+02 H       energy change -2.5067326E-04 H
gradient norm  1.2357486E-02 H/a0    max. gradient  2.3132205E-03 H/a0
step length    6.7771997E-02 a0      max. step      1.4339669E-02 a0

--------------------------------------------------------------------------------

***  Geometry step: 27

 iSCC Total electronic   Diff electronic      SCC error    
    1   -0.19432744E+03    0.00000000E+00    0.24588001E-02
    2   -0.19432760E+03   -0.16527024E-03    0.14987686E-02
    3   -0.19432761E+03   -0.51458867E-05    0.43172930E-03
    4   -0.19432761E+03   -0.10955517E-05    0.33013375E-04
    5   -0.19432761E+03   -0.39168498E-07    0.90526514E-05
    6   -0.19432761E+03   -0.14141506E-08    0.31606749E-05
    7   -0.19432761E+03   -0.97770680E-11    0.37472963E-06
    8   -0.19432761E+03   -0.90949470E-12    0.85515373E-07
    9   -0.19432761E+03   -0.19895197E-12    0.19745728E-07
   10   -0.19432761E+03    0.00000000E+00    0.29076732E-08

Total Energy:                     -192.3713781981 H        -5234.6915 eV
Extrapolated to 0K:               -192.3713781981 H        -5234.6915 eV
Total Mermin free energy:         -192.3713781981 H        -5234.6915 eV
Force related energy:             -192.3713781981 H        -5234.6915 eV

Volume:                              0.100467E+05 au^3   0.148877E+04 A^3
Pressure:                            0.400911E-05 au     0.117952E+09 Pa
>> Charges saved for restart in charges.bin

total energy  -1.9237138E+02 H       energy change -2.6294151E-04 H
gradient norm  1.2584765E-02 H/a0    max. gradient  2.6425364E-03 H/a0
step length    7.9433389E-02 a0      max. step      1.6835056E-02 a0

--------------------------------------------------------------------------------

***  Geometry step: 28

 iSCC Total electronic   Diff electronic      SCC error    
    1   -0.19432761E+03    0.00000000E+00    0.24780065E-02
    2   -0.19432542E+03    0.21915854E-02    0.13330219E-02
    3   -0.19432542E+03   -0.59806963E-05    0.40316787E-03
    4   -0.19432543E+03   -0.11838059E-05    0.43176843E-04
    5   -0.19432543E+03   -0.34920220E-07    0.13914252E-04
    6   -0.19432543E+03   -0.13920101E-08    0.42631756E-05
    7   -0.19432543E+03   -0.10118129E-10    0.43240270E-06
    8   -0.19432543E+03   -0.99475983E-12    0.13852465E-06
    9   -0.19432543E+03    0.00000000E+00    0.20509635E-07
   10   -0.19432543E+03   -0.85265128E-13    0.24732580E-08

Total Energy:                     -192.3716413759 H        -5234.6987 eV
Extrapolated to 0K:               -192.3716413759 H        -5234.6987 eV
Total Mermin free energy:         -192.3716413759 H        -5234.6987 eV
Force related energy:             -192.3716413759 H        -5234.6987 eV

Volume:                              0.100609E+05 au^3   0.149088E+04 A^3
Pressure:                            0.197066E-05 au     0.579789E+08 Pa
>> Charges saved for restart in charges.bin

total energy  -1.9237164E+02 H       energy change -2.6317775E-04 H
gradient norm  1.1427950E-02 H/a0    max. gradient  2.3825603E-03 H/a0
step length    9.2170182E-02 a0      max. step      1.9164232E-02 a0

--------------------------------------------------------------------------------

***  Geometry step: 29

 iSCC Total electronic   Diff electronic      SCC error    
    1   -0.19432543E+03    0.00000000E+00    0.21338381E-02
    2   -0.19432370E+03    0.17222366E-02    0.94436703E-03
    3   -0.19432371E+03   -0.44957571E-05    0.30391876E-03
    4   -0.19432371E+03   -0.89436864E-06    0.30463330E-04
    5   -0.19432371E+03   -0.16544220E-07    0.10631302E-04
    6   -0.19432371E+03   -0.11255850E-08    0.23946800E-05
    7   -0.19432371E+03   -0.15262458E-10    0.43773288E-06
    8   -0.19432371E+03   -0.65369932E-12    0.12378911E-06
    9   -0.19432371E+03   -0.56843419E-13    0.20035768E-07
   10   -0.19432371E+03    0.56843419E-13    0.21385445E-08

Total Energy:                     -192.3718564731 H        -5234.7046 eV
Extrapolated to 0K:               -192.3718564731 H        -5234.7046 eV
Total Mermin free energy:         -192.3718564731 H        -5234.7046 eV
Force related energy:             -192.3718564731 H        -5234.7046 eV

Volume:                              0.100717E+05 au^3   0.149248E+04 A^3
Pressure:                            0.537494E-06 au     0.158136E+08 Pa
>> Charges saved for restart in charges.bin

total energy  -1.9237186E+02 H       energy change -2.1509719E-04 H
gradient norm  1.0780018E-02 H/a0    max. gradient  2.2898720E-03 H/a0
step length    7.7664904E-02 a0      max. step      1.5838044E-02 a0

--------------------------------------------------------------------------------

***  Geometry step: 30

 iSCC Total electronic   Diff electronic      SCC error    
    1   -0.19432371E+03    0.00000000E+00    0.20882940E-02
    2   -0.19432234E+03    0.13699466E-02    0.95525343E-03
    3   -0.19432234E+03   -0.55145938E-05    0.30725226E-03
    4   -0.19432235E+03   -0.11672268E-05    0.44098684E-04
    5   -0.19432235E+03   -0.14063971E-07    0.99112533E-05
    6   -0.19432235E+03   -0.13781687E-08    0.23227267E-05
    7   -0.19432235E+03   -0.29444891E-10    0.54681114E-06
    8   -0.19432235E+03   -0.56843419E-12    0.13412029E-06
    9   -0.19432235E+03   -0.25579538E-12    0.27170152E-07
   10   -0.19432235E+03    0.00000000E+00    0.29664777E-08

Total Energy:                     -192.3720808729 H        -5234.7107 eV
Extrapolated to 0K:               -192.3720808729 H        -5234.7107 eV
Total Mermin free energy:         -192.3720808729 H        -5234.7107 eV
Force related energy:             -192.3720808729 H        -5234.7107 eV

Volume:                              0.100812E+05 au^3   0.149388E+04 A^3
Pressure:                           -0.740517E-06 au    -0.217867E+08 Pa
>> Charges saved for restart in charges.bin

total energy  -1.9237208E+02 H       energy change -2.2439986E-04 H
gradient norm  1.1167143E-02 H/a0    max. gradient  4.1808661E-03 H/a0
step length    8.3419247E-02 a0      max. step      1.6833074E-02 a0

--------------------------------------------------------------------------------

***  Geometry step: 31

 iSCC Total electronic   Diff electronic      SCC error    
    1   -0.19432235E+03    0.00000000E+00    0.15046214E-02
    2   -0.19432279E+03   -0.44117011E-03    0.90122482E-03
    3   -0.19432279E+03   -0.42600745E-05    0.32541736E-03
    4   -0.19432279E+03   -0.92432992E-06    0.48445850E-04
    5   -0.19432279E+03   -0.95043902E-08    0.70447868E-05
    6   -0.19432279E+03   -0.10633698E-08    0.19058954E-05
    7   -0.19432279E+03   -0.24158453E-10    0.53288947E-06
    8   -0.19432279E+03   -0.48316906E-12    0.11373056E-06
    9   -0.19432279E+03   -0.85265128E-13    0.22545356E-07
   10   -0.19432279E+03    0.00000000E+00    0.38996495E-08

Total Energy:                     -192.3722983449 H        -5234.7166 eV
Extrapolated to 0K:               -192.3722983449 H        -5234.7166 eV
Total Mermin free energy:         -192.3722983449 H        -5234.7166 eV
Force related energy:             -192.3722983449 H        -5234.7166 eV

Volume:                              0.100868E+05 au^3   0.149471E+04 A^3
Pressure:                           -0.119004E-05 au    -0.350121E+08 Pa
>> Charges saved for restart in charges.bin

total energy  -1.9237230E+02 H       energy change -2.1747202E-04 H
gradient norm  1.1784103E-02 H/a0    max. gradient  4.9485517E-03 H/a0
step length    7.9237987E-02 a0      max. step      1.5449986E-02 a0

--------------------------------------------------------------------------------

***  Geometry step: 32

 iSCC Total electronic   Diff electronic      SCC error    
    1   -0.19432279E+03    0.00000000E+00    0.16854286E-02
    2   -0.19432546E+03   -0.26633930E-02    0.10113363E-02
    3   -0.19432546E+03   -0.42268548E-05    0.31360743E-03
    4   -0.19432546E+03   -0.91175090E-06    0.42130498E-04
    5   -0.19432546E+03   -0.12285824E-07    0.86912301E-05
    6   -0.19432546E+03   -0.13020838E-08    0.26731533E-05
    7   -0.19432546E+03   -0.23078428E-10    0.69472759E-06
    8   -0.19432546E+03   -0.54001248E-12    0.84539156E-07
    9   -0.19432546E+03   -0.28421709E-13    0.25013716E-07
   10   -0.19432546E+03   -0.56843419E-13    0.32610714E-08

Total Energy:                     -192.3725433937 H        -5234.7232 eV
Extrapolated to 0K:               -192.3725433937 H        -5234.7232 eV
Total Mermin free energy:         -192.3725433937 H        -5234.7232 eV
Force related energy:             -192.3725433937 H        -5234.7232 eV

Volume:                              0.100896E+05 au^3   0.149513E+04 A^3
Pressure:                           -0.706246E-06 au    -0.207785E+08 Pa
>> Charges saved for restart in charges.bin

total energy  -1.9237254E+02 H       energy change -2.4504880E-04 H
gradient norm  1.1820040E-02 H/a0    max. gradient  4.0928766E-03 H/a0
step length    9.2447348E-02 a0      max. step      1.7369170E-02 a0

--------------------------------------------------------------------------------

***  Geometry step: 33

 iSCC Total electronic   Diff electronic      SCC error    
    1   -0.19432546E+03    0.00000000E+00    0.18374722E-02
    2   -0.19432943E+03   -0.39687080E-02    0.76635626E-03
    3   -0.19432943E+03   -0.29795600E-05    0.24497047E-03
    4   -0.19432943E+03   -0.65588139E-06    0.26351300E-04
    5   -0.19432943E+03   -0.11607227E-07    0.80181713E-05
    6   -0.19432943E+03   -0.73231377E-09    0.17344104E-05
    7   -0.19432943E+03   -0.12562396E-10    0.35866907E-06
    8   -0.19432943E+03   -0.31263880E-12    0.89878674E-07
    9   -0.19432943E+03   -0.17053026E-12    0.17684388E-07
   10   -0.19432943E+03    0.56843419E-13    0.12846781E-08

Total Energy:                     -192.3727759079 H        -5234.7296 eV
Extrapolated to 0K:               -192.3727759079 H        -5234.7296 eV
Total Mermin free energy:         -192.3727759079 H        -5234.7296 eV
Force related energy:             -192.3727759079 H        -5234.7296 eV

Volume:                              0.100898E+05 au^3   0.149515E+04 A^3
Pressure:                            0.489478E-06 au     0.144009E+08 Pa
>> Charges saved for restart in charges.bin

total energy  -1.9237278E+02 H       energy change -2.3251415E-04 H
gradient norm  1.1597417E-02 H/a0    max. gradient  2.5829041E-03 H/a0
step length    9.0163750E-02 a0      max. step      1.6827845E-02 a0

--------------------------------------------------------------------------------

***  Geometry step: 34

 iSCC Total electronic   Diff electronic      SCC error    
    1   -0.19432943E+03    0.00000000E+00    0.17764123E-02
    2   -0.19433363E+03   -0.41935959E-02    0.89512709E-03
    3   -0.19433363E+03   -0.32055257E-05    0.30770903E-03
    4   -0.19433363E+03   -0.73791438E-06    0.29197994E-04
    5   -0.19433363E+03   -0.11825335E-07    0.79785635E-05
    6   -0.19433363E+03   -0.57261218E-09    0.18908013E-05
    7   -0.19433363E+03   -0.85833562E-11    0.27727707E-06
    8   -0.19433363E+03   -0.17053026E-12    0.71572667E-07
    9   -0.19433363E+03   -0.14210855E-12    0.17496020E-07
   10   -0.19433363E+03   -0.28421709E-13    0.23144282E-08

Total Energy:                     -192.3730171382 H        -5234.7361 eV
Extrapolated to 0K:               -192.3730171382 H        -5234.7361 eV
Total Mermin free energy:         -192.3730171382 H        -5234.7361 eV
Force related energy:             -192.3730171382 H        -5234.7361 eV

Volume:                              0.100894E+05 au^3   0.149509E+04 A^3
Pressure:                            0.175155E-05 au     0.515323E+08 Pa
>> Charges saved for restart in charges.bin

total energy  -1.9237302E+02 H       energy change -2.4123031E-04 H
gradient norm  1.1975458E-02 H/a0    max. gradient  2.7040751E-03 H/a0
step length    9.9747978E-02 a0      max. step      2.0038929E-02 a0

--------------------------------------------------------------------------------

***  Geometry step: 35

 iSCC Total electronic   Diff electronic      SCC error    
    1   -0.19433363E+03    0.00000000E+00    0.20758486E-02
    2   -0.19433738E+03   -0.37508674E-02    0.97700359E-03
    3   -0.19433739E+03   -0.38596230E-05    0.32373624E-03
    4   -0.19433739E+03   -0.91901083E-06    0.27499843E-04
    5   -0.19433739E+03   -0.12764019E-07    0.52985150E-05
    6   -0.19433739E+03   -0.84156682E-09    0.16406072E-05
    7   -0.19433739E+03   -0.10885515E-10    0.32215530E-06
    8   -0.19433739E+03   -0.45474735E-12    0.42357661E-07
    9   -0.19433739E+03   -0.19895197E-12    0.16773582E-07
   10   -0.19433739E+03    0.85265128E-13    0.18947417E-08

Total Energy:                     -192.3732713084 H        -5234.7431 eV
Extrapolated to 0K:               -192.3732713084 H        -5234.7431 eV
Total Mermin free energy:         -192.3732713084 H        -5234.7431 eV
Force related energy:             -192.3732713084 H        -5234.7431 eV

Volume:                              0.100891E+05 au^3   0.149505E+04 A^3
Pressure:                            0.280825E-05 au     0.826215E+08 Pa
>> Charges saved for restart in charges.bin

total energy  -1.9237327E+02 H       energy change -2.5417015E-04 H
gradient norm  1.2341467E-02 H/a0    max. gradient  2.5881431E-03 H/a0
step length    1.0965749E-01 a0      max. step      2.1684160E-02 a0

--------------------------------------------------------------------------------

***  Geometry step: 36

 iSCC Total electronic   Diff electronic      SCC error    
    1   -0.19433739E+03    0.00000000E+00    0.28403130E-02
    2   -0.19433996E+03   -0.25705177E-02    0.15402023E-02
    3   -0.19433996E+03   -0.51841600E-05    0.34247617E-03
    4   -0.19433996E+03   -0.12173354E-05    0.43196685E-04
    5   -0.19433996E+03   -0.20117227E-07    0.11323140E-04
    6   -0.19433996E+03   -0.13498322E-08    0.32274963E-05
    7   -0.19433996E+03   -0.29189096E-10    0.70146104E-06
    8   -0.19433996E+03   -0.82422957E-12    0.90945083E-07
    9   -0.19433996E+03   -0.19895197E-12    0.25476163E-07
   10   -0.19433996E+03    0.85265128E-13    0.37210857E-08

Total Energy:                     -192.3735352485 H        -5234.7502 eV
Extrapolated to 0K:               -192.3735352485 H        -5234.7502 eV
Total Mermin free energy:         -192.3735352485 H        -5234.7502 eV
Force related energy:             -192.3735352485 H        -5234.7502 eV

Volume:                              0.100894E+05 au^3   0.149509E+04 A^3
Pressure:                            0.335993E-05 au     0.988526E+08 Pa
>> Charges saved for restart in charges.bin

total energy  -1.9237354E+02 H       energy change -2.6394014E-04 H
gradient norm  1.1548903E-02 H/a0    max. gradient  2.4619392E-03 H/a0
step length    1.2145559E-01 a0      max. step      2.2918677E-02 a0

--------------------------------------------------------------------------------

***  Geometry step: 37

 iSCC Total electronic   Diff electronic      SCC error    
    1   -0.19433996E+03    0.00000000E+00    0.25808695E-02
    2   -0.19434081E+03   -0.84305829E-03    0.13980138E-02
    3   -0.19434081E+03   -0.38775155E-05    0.31643793E-03
    4   -0.19434081E+03   -0.88795642E-06    0.34295472E-04
    5   -0.19434081E+03   -0.18808123E-07    0.10203139E-04
    6   -0.19434081E+03   -0.90312824E-09    0.27749920E-05
    7   -0.19434081E+03   -0.16939339E-10    0.54298787E-06
    8   -0.19434081E+03   -0.73896445E-12    0.81310096E-07
    9   -0.19434081E+03   -0.11368684E-12    0.21367506E-07
   10   -0.19434081E+03    0.56843419E-13    0.24976563E-08

Total Energy:                     -192.3737339412 H        -5234.7556 eV
Extrapolated to 0K:               -192.3737339412 H        -5234.7556 eV
Total Mermin free energy:         -192.3737339412 H        -5234.7556 eV
Force related energy:             -192.3737339412 H        -5234.7556 eV

Volume:                              0.100906E+05 au^3   0.149527E+04 A^3
Pressure:                            0.335843E-05 au     0.988085E+08 Pa
>> Charges saved for restart in charges.bin

total energy  -1.9237373E+02 H       energy change -1.9869269E-04 H
gradient norm  1.0117569E-02 H/a0    max. gradient  2.1617678E-03 H/a0
step length    9.8461057E-02 a0      max. step      1.8540517E-02 a0

--------------------------------------------------------------------------------

***  Geometry step: 38

 iSCC Total electronic   Diff electronic      SCC error    
    1   -0.19434081E+03    0.00000000E+00    0.15963806E-02
    2   -0.19434046E+03    0.34634545E-03    0.91818292E-03
    3   -0.19434047E+03   -0.29222817E-05    0.30719890E-03
    4   -0.19434047E+03   -0.62884601E-06    0.24826251E-04
    5   -0.19434047E+03   -0.14764993E-07    0.81141817E-05
    6   -0.19434047E+03   -0.81146823E-09    0.19060823E-05
    7   -0.19434047E+03   -0.15006663E-10    0.37068931E-06
    8   -0.19434047E+03   -0.42632564E-12    0.11122603E-06
    9   -0.19434047E+03   -0.19895197E-12    0.17858031E-07
   10   -0.19434047E+03    0.28421709E-13    0.20031186E-08

Total Energy:                     -192.3738906821 H        -5234.7599 eV
Extrapolated to 0K:               -192.3738906821 H        -5234.7599 eV
Total Mermin free energy:         -192.3738906821 H        -5234.7599 eV
Force related energy:             -192.3738906821 H        -5234.7599 eV

Volume:                              0.100924E+05 au^3   0.149554E+04 A^3
Pressure:                            0.297037E-05 au     0.873913E+08 Pa
>> Charges saved for restart in charges.bin

total energy  -1.9237389E+02 H       energy change -1.5674086E-04 H
gradient norm  9.1431337E-03 H/a0    max. gradient  2.0795339E-03 H/a0
step length    7.6696595E-02 a0      max. step      1.5522298E-02 a0

--------------------------------------------------------------------------------

***  Geometry step: 39

 iSCC Total electronic   Diff electronic      SCC error    
    1   -0.19434047E+03    0.00000000E+00    0.19360308E-02
    2   -0.19434017E+03    0.29698026E-03    0.81172652E-03
    3   -0.19434017E+03   -0.23202341E-05    0.24434137E-03
    4   -0.19434017E+03   -0.54212688E-06    0.29632377E-04
    5   -0.19434017E+03   -0.11889739E-07    0.67332033E-05
    6   -0.19434017E+03   -0.96750341E-09    0.12241991E-05
    7   -0.19434017E+03   -0.23447910E-10    0.47219636E-06
    8   -0.19434017E+03   -0.28421709E-12    0.10116811E-06
    9   -0.19434017E+03   -0.11368684E-12    0.25262222E-07
   10   -0.19434017E+03    0.56843419E-13    0.25395730E-08

Total Energy:                     -192.3740354654 H        -5234.7638 eV
Extrapolated to 0K:               -192.3740354654 H        -5234.7638 eV
Total Mermin free energy:         -192.3740354654 H        -5234.7638 eV
Force related energy:             -192.3740354654 H        -5234.7638 eV

Volume:                              0.100944E+05 au^3   0.149584E+04 A^3
Pressure:                            0.262649E-05 au     0.772739E+08 Pa
>> Charges saved for restart in charges.bin

total energy  -1.9237404E+02 H       energy change -1.4478334E-04 H
gradient norm  9.2072125E-03 H/a0    max. gradient  1.7048620E-03 H/a0
step length    7.0455507E-02 a0      max. step      1.4831705E-02 a0

--------------------------------------------------------------------------------

***  Geometry step: 40

 iSCC Total electronic   Diff electronic      SCC error    
    1   -0.19434017E+03    0.00000000E+00    0.14752694E-02
    2   -0.19434021E+03   -0.34434208E-04    0.81330302E-03
    3   -0.19434021E+03   -0.22200945E-05    0.25977517E-03
    4   -0.19434021E+03   -0.52764594E-06    0.38097162E-04
    5   -0.19434021E+03   -0.11429591E-07    0.87058695E-05
    6   -0.19434021E+03   -0.12529711E-08    0.14913063E-05
    7   -0.19434021E+03   -0.29956482E-10    0.43836147E-06
    8   -0.19434021E+03   -0.39790393E-12    0.10311152E-06
    9   -0.19434021E+03   -0.14210855E-12    0.33512591E-07
   10   -0.19434021E+03    0.85265128E-13    0.25066500E-08

Total Energy:                     -192.3741839273 H        -5234.7679 eV
Extrapolated to 0K:               -192.3741839273 H        -5234.7679 eV
Total Mermin free energy:         -192.3741839273 H        -5234.7679 eV
Force related energy:             -192.3741839273 H        -5234.7679 eV

Volume:                              0.100973E+05 au^3   0.149627E+04 A^3
Pressure:                            0.236440E-05 au     0.695631E+08 Pa
>> Charges saved for restart in charges.bin

total energy  -1.9237418E+02 H       energy change -1.4846195E-04 H
gradient norm  9.4337071E-03 H/a0    max. gradient  1.9034082E-03 H/a0
step length    7.8623759E-02 a0      max. step      1.6476747E-02 a0

--------------------------------------------------------------------------------

***  Geometry step: 41

 iSCC Total electronic   Diff electronic      SCC error    
    1   -0.19434021E+03    0.00000000E+00    0.22920131E-02
    2   -0.19434104E+03   -0.83061452E-03    0.13119480E-02
    3   -0.19434104E+03   -0.27262243E-05    0.30223208E-03
    4   -0.19434105E+03   -0.60445984E-06    0.44476018E-04
    5   -0.19434105E+03   -0.12958509E-07    0.10864302E-04
    6   -0.19434105E+03   -0.11627890E-08    0.17434871E-05
    7   -0.19434105E+03   -0.32230218E-10    0.41896822E-06
    8   -0.19434105E+03   -0.82422957E-12    0.94599478E-07
    9   -0.19434105E+03   -0.85265128E-13    0.24593203E-07
   10   -0.19434105E+03   -0.11368684E-12    0.21397151E-08

Total Energy:                     -192.3743211503 H        -5234.7716 eV
Extrapolated to 0K:               -192.3743211503 H        -5234.7716 eV
Total Mermin free energy:         -192.3743211503 H        -5234.7716 eV
Force related energy:             -192.3743211503 H        -5234.7716 eV

Volume:                              0.101002E+05 au^3   0.149670E+04 A^3
Pressure:                            0.255971E-05 au     0.753091E+08 Pa
>> Charges saved for restart in charges.bin

total energy  -1.9237432E+02 H       energy change -1.3722299E-04 H
gradient norm  8.2915810E-03 H/a0    max. gradient  1.6708192E-03 H/a0
step length    7.8146110E-02 a0      max. step      1.5902497E-02 a0

--------------------------------------------------------------------------------

***  Geometry step: 42

 iSCC Total electronic   Diff electronic      SCC error    
    1   -0.19434105E+03    0.00000000E+00    0.17773222E-02
    2   -0.19434151E+03   -0.46009361E-03    0.92597307E-03
    3   -0.19434151E+03   -0.22269664E-05    0.25447082E-03
    4   -0.19434151E+03   -0.45169421E-06    0.35814240E-04
    5   -0.19434151E+03   -0.72628836E-08    0.66562663E-05
    6   -0.19434151E+03   -0.60890670E-09    0.12845673E-05
    7   -0.19434151E+03   -0.15717205E-10    0.37158294E-06
    8   -0.19434151E+03   -0.39790393E-12    0.44355636E-07
    9   -0.19434151E+03   -0.56843419E-13    0.10840104E-07
   10   -0.19434151E+03    0.85265128E-13    0.13554722E-08

Total Energy:                     -192.3744193849 H        -5234.7743 eV
Extrapolated to 0K:               -192.3744193849 H        -5234.7743 eV
Total Mermin free energy:         -192.3744193849 H        -5234.7743 eV
Force related energy:             -192.3744193849 H        -5234.7743 eV

Volume:                              0.101033E+05 au^3   0.149715E+04 A^3
Pressure:                            0.248459E-05 au     0.730991E+08 Pa
>> Charges saved for restart in charges.bin

total energy  -1.9237442E+02 H       energy change -9.8234616E-05 H
gradient norm  7.0847690E-03 H/a0    max. gradient  1.7792250E-03 H/a0
step length    5.9803282E-02 a0      max. step      1.1633503E-02 a0

--------------------------------------------------------------------------------

***  Geometry step: 43

 iSCC Total electronic   Diff electronic      SCC error    
    1   -0.19434151E+03    0.00000000E+00    0.15767465E-02
    2   -0.19434214E+03   -0.62968110E-03    0.66769974E-03
    3   -0.19434214E+03   -0.24153346E-05    0.24449642E-03
    4   -0.19434214E+03   -0.49436278E-06    0.46764671E-04
    5   -0.19434214E+03   -0.55221676E-08    0.58604193E-05
    6   -0.19434214E+03   -0.61217520E-09    0.14152513E-05
    7   -0.19434214E+03   -0.10601298E-10    0.43115370E-06
    8   -0.19434214E+03   -0.19895197E-12    0.42152882E-07
    9   -0.19434214E+03   -0.28421709E-13    0.10527908E-07
   10   -0.19434214E+03    0.00000000E+00    0.93122665E-09

Total Energy:                     -192.3745073399 H        -5234.7767 eV
Extrapolated to 0K:               -192.3745073399 H        -5234.7767 eV
Total Mermin free energy:         -192.3745073399 H        -5234.7767 eV
Force related energy:             -192.3745073399 H        -5234.7767 eV

Volume:                              0.101064E+05 au^3   0.149761E+04 A^3
Pressure:                            0.242304E-05 au     0.712884E+08 Pa
>> Charges saved for restart in charges.bin

total energy  -1.9237451E+02 H       energy change -8.7954960E-05 H
gradient norm  6.8620970E-03 H/a0    max. gradient  1.5182335E-03 H/a0
step length    5.4082533E-02 a0      max. step      1.0507197E-02 a0

--------------------------------------------------------------------------------

***  Geometry step: 44

 iSCC Total electronic   Diff electronic      SCC error    
    1   -0.19434214E+03    0.00000000E+00    0.15097530E-02
    2   -0.19434266E+03   -0.51478558E-03    0.77240811E-03
    3   -0.19434266E+03   -0.19072281E-05    0.25631757E-03
    4   -0.19434266E+03   -0.40095705E-06    0.41258051E-04
    5   -0.19434266E+03   -0.47680260E-08    0.26630890E-05
    6   -0.19434266E+03   -0.60882144E-09    0.62317227E-06
    7   -0.19434266E+03   -0.68780537E-11    0.25771300E-06
    8   -0.19434266E+03   -0.11368684E-12    0.43390171E-07
    9   -0.19434266E+03   -0.28421709E-13    0.75031474E-08

Total Energy:                     -192.3745898916 H        -5234.7789 eV
Extrapolated to 0K:               -192.3745898916 H        -5234.7789 eV
Total Mermin free energy:         -192.3745898916 H        -5234.7789 eV
Force related energy:             -192.3745898916 H        -5234.7789 eV

Volume:                              0.101097E+05 au^3   0.149810E+04 A^3
Pressure:                            0.221769E-05 au     0.652467E+08 Pa
>> Charges saved for restart in charges.bin

total energy  -1.9237459E+02 H       energy change -8.2551654E-05 H
gradient norm  7.4172968E-03 H/a0    max. gradient  1.6645612E-03 H/a0
step length    5.1521344E-02 a0      max. step      1.0032682E-02 a0

--------------------------------------------------------------------------------

***  Geometry step: 45

 iSCC Total electronic   Diff electronic      SCC error    
    1   -0.19434266E+03    0.00000000E+00    0.13820270E-02
    2   -0.19434301E+03   -0.35491790E-03    0.77639711E-03
    3   -0.19434301E+03   -0.20124646E-05    0.21513858E-03
    4   -0.19434301E+03   -0.44999834E-06    0.29952101E-04
    5   -0.19434301E+03   -0.67853421E-08    0.74758387E-05
    6   -0.19434301E+03   -0.75587536E-09    0.13778294E-05
    7   -0.19434301E+03   -0.12278178E-10    0.28895951E-06
    8   -0.19434301E+03   -0.28421709E-12    0.79857665E-07
    9   -0.19434301E+03   -0.28421709E-13    0.18804128E-07
   10   -0.19434301E+03    0.28421709E-13    0.15094157E-08

Total Energy:                     -192.3746908357 H        -5234.7817 eV
Extrapolated to 0K:               -192.3746908357 H        -5234.7817 eV
Total Mermin free energy:         -192.3746908357 H        -5234.7817 eV
Force related energy:             -192.3746908357 H        -5234.7817 eV

Volume:                              0.101144E+05 au^3   0.149880E+04 A^3
Pressure:                            0.180840E-05 au     0.532050E+08 Pa
>> Charges saved for restart in charges.bin

total energy  -1.9237469E+02 H       energy change -1.0094410E-04 H
gradient norm  7.6644966E-03 H/a0    max. gradient  1.5974595E-03 H/a0
step length    7.1625326E-02 a0      max. step      1.4246113E-02 a0

--------------------------------------------------------------------------------

***  Geometry step: 46

 iSCC Total electronic   Diff electronic      SCC error    
    1   -0.19434301E+03    0.00000000E+00    0.14030338E-02
    2   -0.19434315E+03   -0.13068913E-03    0.60974767E-03
    3   -0.19434315E+03   -0.13144274E-05    0.13083170E-03
    4   -0.19434315E+03   -0.30852956E-06    0.21082494E-04
    5   -0.19434315E+03   -0.52192775E-08    0.76025220E-05
    6   -0.19434315E+03   -0.35132075E-09    0.11944403E-05
    7   -0.19434315E+03   -0.10174972E-10    0.22033244E-06
    8   -0.19434315E+03   -0.34106051E-12    0.83592007E-07
    9   -0.19434315E+03   -0.85265128E-13    0.12810761E-07
   10   -0.19434315E+03    0.00000000E+00    0.13644925E-08

Total Energy:                     -192.3747807013 H        -5234.7841 eV
Extrapolated to 0K:               -192.3747807013 H        -5234.7841 eV
Total Mermin free energy:         -192.3747807013 H        -5234.7841 eV
Force related energy:             -192.3747807013 H        -5234.7841 eV

Volume:                              0.101191E+05 au^3   0.149949E+04 A^3
Pressure:                            0.122457E-05 au     0.360281E+08 Pa
>> Charges saved for restart in charges.bin

total energy  -1.9237478E+02 H       energy change -8.9865670E-05 H
gradient norm  7.3321787E-03 H/a0    max. gradient  1.5637586E-03 H/a0
step length    6.7576243E-02 a0      max. step      1.3646519E-02 a0

--------------------------------------------------------------------------------

***  Geometry step: 47

 iSCC Total electronic   Diff electronic      SCC error    
    1   -0.19434315E+03    0.00000000E+00    0.16674239E-02
    2   -0.19434362E+03   -0.47544454E-03    0.69936567E-03
    3   -0.19434362E+03   -0.16608880E-05    0.12866808E-03
    4   -0.19434362E+03   -0.37139029E-06    0.18225937E-04
    5   -0.19434362E+03   -0.43800412E-08    0.45671279E-05
    6   -0.19434362E+03   -0.24712676E-09    0.82251681E-06
    7   -0.19434362E+03   -0.59401373E-11    0.25297177E-06
    8   -0.19434362E+03   -0.14210855E-12    0.78210541E-07
    9   -0.19434362E+03   -0.28421709E-13    0.13936496E-07
   10   -0.19434362E+03    0.28421709E-13    0.13242678E-08

Total Energy:                     -192.3748729854 H        -5234.7866 eV
Extrapolated to 0K:               -192.3748729854 H        -5234.7866 eV
Total Mermin free energy:         -192.3748729854 H        -5234.7866 eV
Force related energy:             -192.3748729854 H        -5234.7866 eV

Volume:                              0.101232E+05 au^3   0.150010E+04 A^3
Pressure:                            0.866809E-06 au     0.255024E+08 Pa
>> Charges saved for restart in charges.bin

total energy  -1.9237487E+02 H       energy change -9.2284032E-05 H
gradient norm  7.0737989E-03 H/a0    max. gradient  1.4198609E-03 H/a0
step length    6.9139271E-02 a0      max. step      1.4314700E-02 a0

--------------------------------------------------------------------------------

***  Geometry step: 48

 iSCC Total electronic   Diff electronic      SCC error    
    1   -0.19434362E+03    0.00000000E+00    0.15104040E-02
    2   -0.19434447E+03   -0.84850555E-03    0.66036545E-03
    3   -0.19434448E+03   -0.19985310E-05    0.14911287E-03
    4   -0.19434448E+03   -0.43127423E-06    0.15435260E-04
    5   -0.19434448E+03   -0.42335841E-08    0.40370046E-05
    6   -0.19434448E+03   -0.27159786E-09    0.11117256E-05
    7   -0.19434448E+03   -0.47748472E-11    0.30719432E-06
    8   -0.19434448E+03    0.00000000E+00    0.56117914E-07
    9   -0.19434448E+03   -0.14210855E-12    0.16743596E-07
   10   -0.19434448E+03    0.85265128E-13    0.16081971E-08

Total Energy:                     -192.3749637148 H        -5234.7891 eV
Extrapolated to 0K:               -192.3749637148 H        -5234.7891 eV
Total Mermin free energy:         -192.3749637148 H        -5234.7891 eV
Force related energy:             -192.3749637148 H        -5234.7891 eV

Volume:                              0.101269E+05 au^3   0.150065E+04 A^3
Pressure:                            0.741251E-06 au     0.218083E+08 Pa
>> Charges saved for restart in charges.bin

total energy  -1.9237496E+02 H       energy change -9.0729388E-05 H
gradient norm  7.3394731E-03 H/a0    max. gradient  1.8931525E-03 H/a0
step length    7.1357285E-02 a0      max. step      1.5567123E-02 a0

--------------------------------------------------------------------------------

***  Geometry step: 49

 iSCC Total electronic   Diff electronic      SCC error    
    1   -0.19434448E+03    0.00000000E+00    0.14011782E-02
    2   -0.19434565E+03   -0.11752540E-02    0.62031622E-03
    3   -0.19434565E+03   -0.14448407E-05    0.16093820E-03
    4   -0.19434565E+03   -0.31444358E-06    0.15998358E-04
    5   -0.19434565E+03   -0.54085376E-08    0.46698996E-05
    6   -0.19434565E+03   -0.28529712E-09    0.11659114E-05
    7   -0.19434565E+03   -0.24158453E-11    0.21341382E-06
    8   -0.19434565E+03   -0.17053026E-12    0.52232308E-07
    9   -0.19434565E+03   -0.85265128E-13    0.15863638E-07
   10   -0.19434565E+03    0.14210855E-12    0.14278845E-08

Total Energy:                     -192.3750525763 H        -5234.7915 eV
Extrapolated to 0K:               -192.3750525763 H        -5234.7915 eV
Total Mermin free energy:         -192.3750525763 H        -5234.7915 eV
Force related energy:             -192.3750525763 H        -5234.7915 eV

Volume:                              0.101300E+05 au^3   0.150111E+04 A^3
Pressure:                            0.858166E-06 au     0.252481E+08 Pa
>> Charges saved for restart in charges.bin

total energy  -1.9237505E+02 H       energy change -8.8861584E-05 H
gradient norm  7.5881667E-03 H/a0    max. gradient  1.6695093E-03 H/a0
step length    7.2310982E-02 a0      max. step      1.6524544E-02 a0

--------------------------------------------------------------------------------

***  Geometry step: 50

 iSCC Total electronic   Diff electronic      SCC error    
    1   -0.19434565E+03    0.00000000E+00    0.15105639E-02
    2   -0.19434687E+03   -0.12182631E-02    0.83660412E-03
    3   -0.19434687E+03   -0.15282913E-05    0.17501072E-03
    4   -0.19434687E+03   -0.34200241E-06    0.19231733E-04
    5   -0.19434687E+03   -0.89160892E-08    0.76859510E-05
    6   -0.19434687E+03   -0.42197712E-09    0.13224031E-05
    7   -0.19434687E+03   -0.47180038E-11    0.25474207E-06
    8   -0.19434687E+03   -0.19895197E-12    0.55170553E-07
    9   -0.19434687E+03   -0.28421709E-13    0.91110590E-08

Total Energy:                     -192.3751509171 H        -5234.7942 eV
Extrapolated to 0K:               -192.3751509171 H        -5234.7942 eV
Total Mermin free energy:         -192.3751509171 H        -5234.7942 eV
Force related energy:             -192.3751509171 H        -5234.7942 eV

Volume:                              0.101336E+05 au^3   0.150164E+04 A^3
Pressure:                            0.103570E-05 au     0.304715E+08 Pa
>> Charges saved for restart in charges.bin

total energy  -1.9237515E+02 H       energy change -9.8340737E-05 H
gradient norm  7.4781656E-03 H/a0    max. gradient  1.5886392E-03 H/a0
step length    8.4009916E-02 a0      max. step      1.9687056E-02 a0

--------------------------------------------------------------------------------

***  Geometry step: 51

 iSCC Total electronic   Diff electronic      SCC error    
    1   -0.19434687E+03    0.00000000E+00    0.15242876E-02
    2   -0.19434763E+03   -0.75733260E-03    0.84567834E-03
    3   -0.19434763E+03   -0.16455809E-05    0.22802713E-03
    4   -0.19434763E+03   -0.35931677E-06    0.21065485E-04
    5   -0.19434763E+03   -0.78257187E-08    0.78578518E-05
    6   -0.19434763E+03   -0.44875037E-09    0.13918607E-05
    7   -0.19434763E+03   -0.56843419E-11    0.31531251E-06
    8   -0.19434763E+03   -0.85265128E-13    0.52479908E-07
    9   -0.19434763E+03    0.00000000E+00    0.88473335E-08

Total Energy:                     -192.3752454067 H        -5234.7968 eV
Extrapolated to 0K:               -192.3752454067 H        -5234.7968 eV
Total Mermin free energy:         -192.3752454067 H        -5234.7968 eV
Force related energy:             -192.3752454067 H        -5234.7968 eV

Volume:                              0.101369E+05 au^3   0.150213E+04 A^3
Pressure:                            0.930307E-06 au     0.273706E+08 Pa
>> Charges saved for restart in charges.bin

total energy  -1.9237525E+02 H       energy change -9.4489645E-05 H
gradient norm  7.1321666E-03 H/a0    max. gradient  1.4963654E-03 H/a0
step length    8.1752893E-02 a0      max. step      1.8906142E-02 a0

--------------------------------------------------------------------------------

***  Geometry step: 52

 iSCC Total electronic   Diff electronic      SCC error    
    1   -0.19434763E+03    0.00000000E+00    0.11029417E-02
    2   -0.19434826E+03   -0.63032435E-03    0.66900538E-03
    3   -0.19434826E+03   -0.16635977E-05    0.22016780E-03
[...]
Force related energy:             -192.3794555183 H        -5234.9113 eV

Volume:                              0.100162E+05 au^3   0.148425E+04 A^3
Pressure:                            0.138389E-06 au     0.407154E+07 Pa
>> Charges saved for restart in charges.bin

total energy  -1.9237946E+02 H       energy change -2.4479817E-06 H
gradient norm  1.2782581E-03 H/a0    max. gradient  2.9242509E-04 H/a0
step length    1.5615800E-02 a0      max. step      3.2972534E-03 a0

--------------------------------------------------------------------------------

***  Geometry step: 193

 iSCC Total electronic   Diff electronic      SCC error    
    1   -0.19434325E+03    0.00000000E+00    0.20886625E-03
    2   -0.19434330E+03   -0.50310736E-04    0.86976034E-04
    3   -0.19434330E+03   -0.46930865E-07    0.24906392E-04
    4   -0.19434330E+03   -0.10977573E-07    0.27584196E-05
    5   -0.19434330E+03   -0.86771479E-10    0.50981538E-06
    6   -0.19434330E+03   -0.85265128E-11    0.12415774E-06
    7   -0.19434330E+03   -0.22737368E-12    0.17849330E-07
    8   -0.19434330E+03    0.11368684E-12    0.49881943E-08

Total Energy:                     -192.3794579154 H        -5234.9114 eV
Extrapolated to 0K:               -192.3794579154 H        -5234.9114 eV
Total Mermin free energy:         -192.3794579154 H        -5234.9114 eV
Force related energy:             -192.3794579154 H        -5234.9114 eV

Volume:                              0.100155E+05 au^3   0.148415E+04 A^3
Pressure:                            0.186875E-06 au     0.549805E+07 Pa
>> Charges saved for restart in charges.bin

total energy  -1.9237946E+02 H       energy change -2.3971474E-06 H
gradient norm  1.2054818E-03 H/a0    max. gradient  3.0331946E-04 H/a0
step length    1.4258234E-02 a0      max. step      3.8465486E-03 a0

--------------------------------------------------------------------------------

***  Geometry step: 194

 iSCC Total electronic   Diff electronic      SCC error    
    1   -0.19434330E+03    0.00000000E+00    0.21901817E-03
    2   -0.19434314E+03    0.15181941E-03    0.97344220E-04
    3   -0.19434314E+03   -0.69003676E-07    0.20554168E-04
    4   -0.19434314E+03   -0.15490144E-07    0.34050277E-05
    5   -0.19434314E+03   -0.98225428E-10    0.51804948E-06
    6   -0.19434314E+03   -0.91802121E-11    0.85240692E-07
    7   -0.19434314E+03   -0.11368684E-12    0.22681444E-07
    8   -0.19434314E+03   -0.85265128E-13    0.64400454E-08

Total Energy:                     -192.3794604801 H        -5234.9115 eV
Extrapolated to 0K:               -192.3794604801 H        -5234.9115 eV
Total Mermin free energy:         -192.3794604801 H        -5234.9115 eV
Force related energy:             -192.3794604801 H        -5234.9115 eV

Volume:                              0.100143E+05 au^3   0.148397E+04 A^3
Pressure:                            0.153124E-06 au     0.450506E+07 Pa
>> Charges saved for restart in charges.bin

total energy  -1.9237946E+02 H       energy change -2.5646764E-06 H
gradient norm  1.2615710E-03 H/a0    max. gradient  3.3312324E-04 H/a0
step length    1.8886250E-02 a0      max. step      5.0565430E-03 a0

--------------------------------------------------------------------------------

***  Geometry step: 195

 iSCC Total electronic   Diff electronic      SCC error    
    1   -0.19434314E+03    0.00000000E+00    0.22199797E-03
    2   -0.19434319E+03   -0.47732330E-04    0.10317315E-03
    3   -0.19434319E+03   -0.42862354E-07    0.24728014E-04
    4   -0.19434319E+03   -0.93671417E-08    0.32255804E-05
    5   -0.19434319E+03   -0.10334134E-09    0.76334565E-06
    6   -0.19434319E+03   -0.74180662E-11    0.13753373E-06
    7   -0.19434319E+03   -0.85265128E-13    0.13965175E-07
    8   -0.19434319E+03    0.28421709E-13    0.54892775E-08

Total Energy:                     -192.3794627564 H        -5234.9115 eV
Extrapolated to 0K:               -192.3794627564 H        -5234.9115 eV
Total Mermin free energy:         -192.3794627564 H        -5234.9115 eV
Force related energy:             -192.3794627564 H        -5234.9115 eV

Volume:                              0.100142E+05 au^3   0.148395E+04 A^3
Pressure:                            0.208642E-06 au     0.613847E+07 Pa
>> Charges saved for restart in charges.bin

total energy  -1.9237946E+02 H       energy change -2.2762897E-06 H
gradient norm  1.2252297E-03 H/a0    max. gradient  2.4661004E-04 H/a0
step length    5.3554978E-03 a0      max. step      1.2434755E-03 a0

--------------------------------------------------------------------------------

***  Geometry step: 196

 iSCC Total electronic   Diff electronic      SCC error    
    1   -0.19434319E+03    0.00000000E+00    0.29082282E-03
    2   -0.19434297E+03    0.22667857E-03    0.12989901E-03
    3   -0.19434297E+03   -0.63940348E-07    0.33485795E-04
    4   -0.19434297E+03   -0.14011789E-07    0.42216811E-05
    5   -0.19434297E+03   -0.15640467E-09    0.42313046E-06
    6   -0.19434297E+03   -0.11198154E-10    0.10948085E-06
    7   -0.19434297E+03    0.00000000E+00    0.23440836E-07
    8   -0.19434297E+03    0.28421709E-13    0.63174301E-08

Total Energy:                     -192.3794659605 H        -5234.9116 eV
Extrapolated to 0K:               -192.3794659605 H        -5234.9116 eV
Total Mermin free energy:         -192.3794659605 H        -5234.9116 eV
Force related energy:             -192.3794659605 H        -5234.9116 eV

Volume:                              0.100133E+05 au^3   0.148382E+04 A^3
Pressure:                            0.148861E-06 au     0.437963E+07 Pa
>> Charges saved for restart in charges.bin

total energy  -1.9237947E+02 H       energy change -3.2041377E-06 H
gradient norm  1.2597677E-03 H/a0    max. gradient  2.2087958E-04 H/a0
step length    1.7849291E-02 a0      max. step      4.4911279E-03 a0

--------------------------------------------------------------------------------

***  Geometry step: 197

 iSCC Total electronic   Diff electronic      SCC error    
    1   -0.19434297E+03    0.00000000E+00    0.29382081E-03
    2   -0.19434270E+03    0.26087544E-03    0.12702271E-03
    3   -0.19434271E+03   -0.69988715E-07    0.33586556E-04
    4   -0.19434271E+03   -0.16221975E-07    0.44806384E-05
    5   -0.19434271E+03   -0.22544100E-09    0.65251469E-06
    6   -0.19434271E+03   -0.15887736E-10    0.15812971E-06
    7   -0.19434271E+03   -0.28421709E-12    0.18546814E-07
    8   -0.19434271E+03   -0.85265128E-13    0.74478570E-08

Total Energy:                     -192.3794692079 H        -5234.9117 eV
Extrapolated to 0K:               -192.3794692079 H        -5234.9117 eV
Total Mermin free energy:         -192.3794692079 H        -5234.9117 eV
Force related energy:             -192.3794692079 H        -5234.9117 eV

Volume:                              0.100118E+05 au^3   0.148359E+04 A^3
Pressure:                            0.986768E-07 au     0.290317E+07 Pa
>> Charges saved for restart in charges.bin

total energy  -1.9237947E+02 H       energy change -3.2473436E-06 H
gradient norm  1.3350139E-03 H/a0    max. gradient  3.7670220E-04 H/a0
step length    2.8047889E-02 a0      max. step      7.2491739E-03 a0

--------------------------------------------------------------------------------

***  Geometry step: 198

 iSCC Total electronic   Diff electronic      SCC error    
    1   -0.19434271E+03    0.00000000E+00    0.24033646E-03
    2   -0.19434235E+03    0.35728539E-03    0.12065955E-03
    3   -0.19434235E+03   -0.44498677E-07    0.33460691E-04
    4   -0.19434235E+03   -0.10385662E-07    0.44348289E-05
    5   -0.19434235E+03   -0.18923174E-09    0.81178508E-06
    6   -0.19434235E+03   -0.16115109E-10    0.17868052E-06
    7   -0.19434235E+03   -0.25579538E-12    0.24534743E-07
    8   -0.19434235E+03   -0.85265128E-13    0.63217813E-08

Total Energy:                     -192.3794715405 H        -5234.9118 eV
Extrapolated to 0K:               -192.3794715405 H        -5234.9118 eV
Total Mermin free energy:         -192.3794715405 H        -5234.9118 eV
Force related energy:             -192.3794715405 H        -5234.9118 eV

Volume:                              0.100101E+05 au^3   0.148334E+04 A^3
Pressure:                            0.602198E-07 au     0.177173E+07 Pa
>> Charges saved for restart in charges.bin

total energy  -1.9237947E+02 H       energy change -2.3326093E-06 H
gradient norm  1.0820754E-03 H/a0    max. gradient  2.3371395E-04 H/a0
step length    2.8790195E-02 a0      max. step      8.6839834E-03 a0

--------------------------------------------------------------------------------

***  Geometry step: 199

 iSCC Total electronic   Diff electronic      SCC error    
    1   -0.19434235E+03    0.00000000E+00    0.17004608E-03
    2   -0.19434247E+03   -0.12442824E-03    0.76161935E-04
    3   -0.19434247E+03   -0.39183192E-07    0.24082642E-04
    4   -0.19434247E+03   -0.85478575E-08    0.28135026E-05
    5   -0.19434247E+03   -0.88732577E-10    0.64344346E-06
    6   -0.19434247E+03   -0.73896445E-11    0.15398536E-06
    7   -0.19434247E+03   -0.22737368E-12    0.19740409E-07
    8   -0.19434247E+03    0.11368684E-12    0.60770833E-08

Total Energy:                     -192.3794728925 H        -5234.9118 eV
Extrapolated to 0K:               -192.3794728925 H        -5234.9118 eV
Total Mermin free energy:         -192.3794728925 H        -5234.9118 eV
Force related energy:             -192.3794728925 H        -5234.9118 eV

Volume:                              0.100100E+05 au^3   0.148332E+04 A^3
Pressure:                            0.102471E-06 au     0.301479E+07 Pa
>> Charges saved for restart in charges.bin

total energy  -1.9237947E+02 H       energy change -1.3520117E-06 H
gradient norm  7.8939781E-04 H/a0    max. gradient  1.6778839E-04 H/a0
step length    3.3337385E-03 a0      max. step      6.8508444E-04 a0

--------------------------------------------------------------------------------

***  Geometry step: 200

 iSCC Total electronic   Diff electronic      SCC error    
    1   -0.19434247E+03    0.00000000E+00    0.17987585E-03
    2   -0.19434250E+03   -0.31324110E-04    0.61741347E-04
    3   -0.19434250E+03   -0.28249332E-07    0.19650984E-04
    4   -0.19434250E+03   -0.58639102E-08    0.23164285E-05
    5   -0.19434250E+03   -0.54626526E-10    0.40174686E-06
    6   -0.19434250E+03   -0.45758952E-11    0.72495406E-07
    7   -0.19434250E+03   -0.85265128E-13    0.14546715E-07
    8   -0.19434250E+03    0.28421709E-13    0.48869633E-08

Total Energy:                     -192.3794738874 H        -5234.9118 eV
Extrapolated to 0K:               -192.3794738874 H        -5234.9118 eV
Total Mermin free energy:         -192.3794738874 H        -5234.9118 eV
Force related energy:             -192.3794738874 H        -5234.9118 eV

Volume:                              0.100097E+05 au^3   0.148329E+04 A^3
Pressure:                            0.120156E-06 au     0.353512E+07 Pa
>> Charges saved for restart in charges.bin

total energy  -1.9237947E+02 H       energy change -9.9493508E-07 H
gradient norm  7.5324537E-04 H/a0    max. gradient  1.7731050E-04 H/a0
step length    5.1455711E-03 a0      max. step      1.2568290E-03 a0

--------------------------------------------------------------------------------

***  Geometry step: 201

 iSCC Total electronic   Diff electronic      SCC error    
    1   -0.19434250E+03    0.00000000E+00    0.12752942E-03
    2   -0.19434259E+03   -0.81919234E-04    0.55834347E-04
    3   -0.19434259E+03   -0.12248677E-07    0.16569068E-04
    4   -0.19434259E+03   -0.27918929E-08    0.15216080E-05
    5   -0.19434259E+03   -0.26147973E-10    0.15408505E-06
    6   -0.19434259E+03   -0.20179414E-11    0.37224368E-07
    7   -0.19434259E+03   -0.28421709E-13    0.74992692E-08

Total Energy:                     -192.3794747576 H        -5234.9119 eV
Extrapolated to 0K:               -192.3794747576 H        -5234.9119 eV
Total Mermin free energy:         -192.3794747576 H        -5234.9119 eV
Force related energy:             -192.3794747576 H        -5234.9119 eV

Volume:                              0.100096E+05 au^3   0.148327E+04 A^3
Pressure:                            0.150316E-06 au     0.442244E+07 Pa
>> Charges saved for restart in charges.bin

total energy  -1.9237947E+02 H       energy change -8.7016480E-07 H
gradient norm  7.7584471E-04 H/a0    max. gradient  1.6056704E-04 H/a0
step length    2.2182091E-03 a0      max. step      4.0017913E-04 a0

--------------------------------------------------------------------------------

***  Geometry step: 202

 iSCC Total electronic   Diff electronic      SCC error    
    1   -0.19434259E+03    0.00000000E+00    0.24968410E-03
    2   -0.19434281E+03   -0.22148326E-03    0.10885680E-03
    3   -0.19434281E+03   -0.39112081E-07    0.26654153E-04
    4   -0.19434281E+03   -0.85122451E-08    0.33066766E-05
    5   -0.19434281E+03   -0.10712142E-09    0.45723759E-06
    6   -0.19434281E+03   -0.77307050E-11    0.88153578E-07
    7   -0.19434281E+03   -0.28421709E-13    0.19001609E-07
    8   -0.19434281E+03    0.00000000E+00    0.55307368E-08

Total Energy:                     -192.3794764711 H        -5234.9119 eV
Extrapolated to 0K:               -192.3794764711 H        -5234.9119 eV
Total Mermin free energy:         -192.3794764711 H        -5234.9119 eV
Force related energy:             -192.3794764711 H        -5234.9119 eV

Volume:                              0.100088E+05 au^3   0.148316E+04 A^3
Pressure:                            0.251683E-06 au     0.740478E+07 Pa
>> Charges saved for restart in charges.bin

total energy  -1.9237948E+02 H       energy change -1.7134944E-06 H
gradient norm  1.0990373E-03 H/a0    max. gradient  3.8672468E-04 H/a0
step length    1.1421186E-02 a0      max. step      2.1524815E-03 a0

--------------------------------------------------------------------------------

***  Geometry step: 203

 iSCC Total electronic   Diff electronic      SCC error    
    1   -0.19434281E+03    0.00000000E+00    0.16037789E-03
    2   -0.19434271E+03    0.98406123E-04    0.71153239E-04
    3   -0.19434271E+03   -0.22836019E-07    0.22994239E-04
    4   -0.19434271E+03   -0.44083777E-08    0.28996542E-05
    5   -0.19434271E+03   -0.74180662E-10    0.34026177E-06
    6   -0.19434271E+03   -0.77307050E-11    0.99044056E-07
    7   -0.19434271E+03   -0.14210855E-12    0.11394484E-07
    8   -0.19434271E+03    0.00000000E+00    0.23098945E-08

Total Energy:                     -192.3794778715 H        -5234.9119 eV
Extrapolated to 0K:               -192.3794778715 H        -5234.9119 eV
Total Mermin free energy:         -192.3794778715 H        -5234.9119 eV
Force related energy:             -192.3794778715 H        -5234.9119 eV

Volume:                              0.100085E+05 au^3   0.148311E+04 A^3
Pressure:                            0.220442E-06 au     0.648562E+07 Pa
>> Charges saved for restart in charges.bin

total energy  -1.9237948E+02 H       energy change -1.4003540E-06 H
gradient norm  9.5985173E-04 H/a0    max. gradient  2.1152099E-04 H/a0
step length    7.7148489E-03 a0      max. step      1.6976632E-03 a0

--------------------------------------------------------------------------------

***  Geometry step: 204

 iSCC Total electronic   Diff electronic      SCC error    
    1   -0.19434271E+03    0.00000000E+00    0.24469495E-03
    2   -0.19434254E+03    0.17142392E-03    0.93350405E-04
    3   -0.19434254E+03   -0.35790521E-07    0.35055492E-04
    4   -0.19434254E+03   -0.74332718E-08    0.34882758E-05
    5   -0.19434254E+03   -0.10271606E-09    0.35153972E-06
    6   -0.19434254E+03   -0.80149221E-11    0.12590229E-06
    7   -0.19434254E+03   -0.14210855E-12    0.17829313E-07
    8   -0.19434254E+03   -0.28421709E-13    0.51363624E-08

Total Energy:                     -192.3794793720 H        -5234.9120 eV
Extrapolated to 0K:               -192.3794793720 H        -5234.9120 eV
Total Mermin free energy:         -192.3794793720 H        -5234.9120 eV
Force related energy:             -192.3794793720 H        -5234.9120 eV

Volume:                              0.100074E+05 au^3   0.148295E+04 A^3
Pressure:                            0.215243E-06 au     0.633267E+07 Pa
>> Charges saved for restart in charges.bin

total energy  -1.9237948E+02 H       energy change -1.5005882E-06 H
gradient norm  8.2444421E-04 H/a0    max. gradient  2.0621319E-04 H/a0
step length    1.8928191E-02 a0      max. step      4.6711008E-03 a0

--------------------------------------------------------------------------------

***  Geometry step: 205

 iSCC Total electronic   Diff electronic      SCC error    
    1   -0.19434254E+03    0.00000000E+00    0.15586079E-03
    2   -0.19434247E+03    0.68415971E-04    0.62515372E-04
    3   -0.19434247E+03   -0.20450045E-07    0.12181409E-04
    4   -0.19434247E+03   -0.42626880E-08    0.23117813E-05
    5   -0.19434247E+03   -0.31889158E-10    0.28757565E-06
    6   -0.19434247E+03   -0.24726887E-11    0.81880778E-07
    7   -0.19434247E+03   -0.85265128E-13    0.11149334E-07
    8   -0.19434247E+03    0.28421709E-13    0.27488554E-08

Total Energy:                     -192.3794800414 H        -5234.9120 eV
Extrapolated to 0K:               -192.3794800414 H        -5234.9120 eV
Total Mermin free energy:         -192.3794800414 H        -5234.9120 eV
Force related energy:             -192.3794800414 H        -5234.9120 eV

Volume:                              0.100076E+05 au^3   0.148297E+04 A^3
Pressure:                            0.178813E-06 au     0.526087E+07 Pa
>> Charges saved for restart in charges.bin

total energy  -1.9237948E+02 H       energy change -6.6938023E-07 H
gradient norm  5.8064084E-04 H/a0    max. gradient  1.4998202E-04 H/a0
step length    2.4462859E-03 a0      max. step      5.1340723E-04 a0

--------------------------------------------------------------------------------

***  Geometry step: 206

 iSCC Total electronic   Diff electronic      SCC error    
    1   -0.19434247E+03    0.00000000E+00    0.14030495E-03
    2   -0.19434237E+03    0.95878567E-04    0.60225226E-04
    3   -0.19434237E+03   -0.11835056E-07    0.12128918E-04
    4   -0.19434237E+03   -0.27539784E-08    0.19964918E-05
    5   -0.19434237E+03   -0.19326762E-10    0.29210540E-06
    6   -0.19434237E+03   -0.17337243E-11    0.45606291E-07
    7   -0.19434237E+03    0.00000000E+00    0.92215422E-08

Total Energy:                     -192.3794804725 H        -5234.9120 eV
Extrapolated to 0K:               -192.3794804725 H        -5234.9120 eV
Total Mermin free energy:         -192.3794804725 H        -5234.9120 eV
Force related energy:             -192.3794804725 H        -5234.9120 eV

Volume:                              0.100078E+05 au^3   0.148300E+04 A^3
Pressure:                            0.135421E-06 au     0.398423E+07 Pa
>> Charges saved for restart in charges.bin

total energy  -1.9237948E+02 H       energy change -4.3106991E-07 H
gradient norm  4.9825951E-04 H/a0    max. gradient  8.5251130E-05 H/a0
step length    1.6485139E-03 a0      max. step      2.9614561E-04 a0

Geometry converged

--------------------------------------------------------------------------------
DFTB+ running times                          cpu [s]             wall clock [s]
--------------------------------------------------------------------------------
Pre-SCC initialisation                 +      18.39 (  1.0%)       2.68 (  1.1%)
SCC                                    +    1682.95 ( 88.6%)     212.73 ( 89.7%)
Post-SCC processing                    +     198.25 ( 10.4%)      21.79 (  9.2%)
--------------------------------------------------------------------------------
Missing                                +       0.03 (  0.0%)       0.01 (  0.0%)
Total                                  =    1899.62 (100.0%)     237.20 (100.0%)
--------------------------------------------------------------------------------
