|===============================================================================
|
|  DFTB+ release 24.1
|
|  Copyright (C) 2006 - 2024  DFTB+ developers group
|
|===============================================================================
|
|  When publishing results obtained with DFTB+, please cite the following
|  reference:
|
|  * DFTB+, a software package for efficient approximate density functional
|    theory based atomistic simulations, J. Chem. Phys. 152, 124101 (2020).
|    [doi: 10.1063/1.5143190]
|
|  You should also cite additional publications crediting the parametrization
|  data you use. Please consult the documentation of the SK-files for the
|  references.
|
|===============================================================================

Reading input file 'dftb_in.hsd'
Parser version: 14

--------------------------------------------------------------------------------
Reading SK-files:
./SKFiles/Ge-Ge.skf
./SKFiles/Ge-Si.skf
./SKFiles/Ge-O.skf
./SKFiles/Si-Si.skf
./SKFiles/Si-O.skf
./SKFiles/O-O.skf
Done.


Processed input in HSD format written to 'dftb_pin.hsd'

Starting initialization...
--------------------------------------------------------------------------------
WARNING!
-> Dipole printed for extended system : value printed is not well defined
MPI processes:               1
OpenMP threads:              8
BLACS orbital grid size:     1 x 1
BLACS atom grid size:        1 x 1
Chosen random seed:          143444246
Current stacksize:           unlimited
Mode:                        Static calculation
Self consistent charges:     Yes
SCC-tolerance:                 0.100000E-07
Max. scc iterations:                    500
Shell resolved Hubbard:      No
Spin polarisation:           No
Nr. of up electrons:           192.000000
Nr. of down electrons:         192.000000
Periodic boundaries:         Yes
Electronic solver:           Relatively robust
Mixer:                       Broyden mixer
Mixing parameter:                  0.200000
Maximal SCC-cycles:                     500
Nr. of chrg. vec. in memory:            500
Electronic temperature:              0.100000E-07 H      0.272114E-06 eV
Initial charges:             Set automatically (system chrg:   0.000E+00)
Included shells:            Ge:  s, p, d
                            Si:  s, p, d
                             O:  s, p
K-points and weights:           1:  0.500000  0.500000  0.500000     1.000000

K-points in absolute space:     1:  0.025319  0.017606  0.037774

Extra options:
                             Mulliken analysis
Force type                   original

--------------------------------------------------------------------------------

***  Geometry step: 0

 iSCC Total electronic   Diff electronic      SCC error    
    1    0.00000000E+00    0.00000000E+00    0.14597380E+01
    2   -0.19480276E+03   -0.19480276E+03    0.99420995E+00
    3   -0.19516917E+03   -0.36640567E+00    0.61646434E-01
    4   -0.19548498E+03   -0.31581462E+00    0.28151771E-01
    5   -0.19548700E+03   -0.20197892E-02    0.77789171E-02
    6   -0.19548715E+03   -0.14576257E-03    0.17001772E-02
    7   -0.19548715E+03   -0.39117211E-05    0.42412984E-03
    8   -0.19548715E+03   -0.11049737E-05    0.64928462E-04
    9   -0.19548715E+03   -0.63922357E-07    0.30652351E-04
   10   -0.19548715E+03   -0.60055072E-10    0.16371852E-05
   11   -0.19548715E+03   -0.22430413E-09    0.44758252E-06
   12   -0.19548715E+03   -0.29274361E-11    0.23166875E-06
   13   -0.19548715E+03    0.00000000E+00    0.18363134E-07
   14   -0.19548715E+03    0.00000000E+00    0.42382751E-08

Total Energy:                     -191.8772364843 H        -5221.2453 eV
Extrapolated to 0K:               -191.8772364843 H        -5221.2453 eV
Total Mermin free energy:         -191.8772364843 H        -5221.2453 eV
Force related energy:             -191.8772364843 H        -5221.2453 eV

Volume:                              0.913789E+04 au^3   0.135410E+04 A^3
Pressure:                            0.716014E-03 au     0.210659E+11 Pa
>> Charges saved for restart in charges.bin

total energy  -1.9187724E+02 H       energy change -1.9187724E+02 H
gradient norm  8.6015354E-01 H/a0    max. gradient  4.4343093E-01 H/a0
step length    0.0000000E+00 a0      max. step      0.0000000E+00 a0

--------------------------------------------------------------------------------

***  Geometry step: 1

 iSCC Total electronic   Diff electronic      SCC error    
    1   -0.19548715E+03    0.00000000E+00    0.90626645E-01
    2   -0.19513778E+03    0.34936986E+00    0.46857148E-01
    3   -0.19514377E+03   -0.59844203E-02    0.15361352E-01
    4   -0.19514510E+03   -0.13346683E-02    0.95641321E-03
    5   -0.19514512E+03   -0.16529406E-04    0.32143990E-03
    6   -0.19514512E+03   -0.59059892E-06    0.12111329E-03
    7   -0.19514512E+03   -0.37065860E-07    0.15100203E-04
    8   -0.19514512E+03   -0.37397285E-08    0.24974551E-05
    9   -0.19514512E+03   -0.18724222E-09    0.67542654E-06
   10   -0.19514512E+03   -0.31548097E-11    0.16836125E-06
   11   -0.19514512E+03    0.85265128E-13    0.38533187E-07
   12   -0.19514512E+03   -0.11368684E-12    0.78706206E-08

Total Energy:                     -192.0354419001 H        -5225.5502 eV
Extrapolated to 0K:               -192.0354419001 H        -5225.5502 eV
Total Mermin free energy:         -192.0354419001 H        -5225.5502 eV
Force related energy:             -192.0354419001 H        -5225.5502 eV

Volume:                              0.944832E+04 au^3   0.140010E+04 A^3
Pressure:                            0.472496E-03 au     0.139013E+11 Pa
>> Charges saved for restart in charges.bin

total energy  -1.9203544E+02 H       energy change -1.5820542E-01 H
gradient norm  5.7758869E-01 H/a0    max. gradient  1.6167255E-01 H/a0
step length    5.7538465E-01 a0      max. step      2.9662536E-01 a0

--------------------------------------------------------------------------------

***  Geometry step: 2

 iSCC Total electronic   Diff electronic      SCC error    
    1   -0.19514512E+03    0.00000000E+00    0.44976400E-01
    2   -0.19507871E+03    0.66410505E-01    0.24915553E-01
    3   -0.19508114E+03   -0.24308168E-02    0.58769203E-02
    4   -0.19508169E+03   -0.55433309E-03    0.73971627E-03
    5   -0.19508170E+03   -0.37768666E-05    0.18651613E-03
    6   -0.19508170E+03   -0.26825637E-06    0.95881152E-04
    7   -0.19508170E+03   -0.15346274E-07    0.14568985E-04
    8   -0.19508170E+03   -0.11595205E-08    0.13398080E-05
    9   -0.19508170E+03   -0.71111117E-10    0.38123157E-06
   10   -0.19508170E+03   -0.13642421E-11    0.11411125E-06
   11   -0.19508170E+03   -0.56843419E-13    0.16733123E-07
   12   -0.19508170E+03   -0.28421709E-13    0.37376751E-08

Total Energy:                     -192.1685564028 H        -5229.1725 eV
Extrapolated to 0K:               -192.1685564028 H        -5229.1725 eV
Total Mermin free energy:         -192.1685564028 H        -5229.1725 eV
Force related energy:             -192.1685564028 H        -5229.1725 eV

Volume:                              0.943601E+04 au^3   0.139827E+04 A^3
Pressure:                            0.405171E-03 au     0.119205E+11 Pa
>> Charges saved for restart in charges.bin

total energy  -1.9216856E+02 H       energy change -1.3311450E-01 H
gradient norm  2.8638973E-01 H/a0    max. gradient  5.3550916E-02 H/a0
step length    3.7598017E-01 a0      max. step      7.4962355E-02 a0

--------------------------------------------------------------------------------

***  Geometry step: 3

 iSCC Total electronic   Diff electronic      SCC error    
    1   -0.19508170E+03    0.00000000E+00    0.56501645E-01
    2   -0.19489412E+03    0.18758175E+00    0.32914380E-01
    3   -0.19489575E+03   -0.16307077E-02    0.68282128E-02
    4   -0.19489618E+03   -0.43562575E-03    0.68592710E-03
    5   -0.19489619E+03   -0.47122404E-05    0.17397383E-03
    6   -0.19489619E+03   -0.27056885E-06    0.10188911E-03
    7   -0.19489619E+03   -0.12197745E-07    0.95574553E-05
    8   -0.19489619E+03   -0.83832674E-09    0.13748747E-05
    9   -0.19489619E+03   -0.47123194E-10    0.35960292E-06
   10   -0.19489619E+03   -0.65369932E-12    0.49777755E-07
   11   -0.19489619E+03   -0.14210855E-12    0.14724565E-07
   12   -0.19489619E+03    0.28421709E-13    0.28680582E-08

Total Energy:                     -192.2558391776 H        -5231.5476 eV
Extrapolated to 0K:               -192.2558391776 H        -5231.5476 eV
Total Mermin free energy:         -192.2558391776 H        -5231.5476 eV
Force related energy:             -192.2558391776 H        -5231.5476 eV

Volume:                              0.950374E+04 au^3   0.140831E+04 A^3
Pressure:                            0.300308E-03 au     0.883538E+10 Pa
>> Charges saved for restart in charges.bin

total energy  -1.9225584E+02 H       energy change -8.7282775E-02 H
gradient norm  1.8558580E-01 H/a0    max. gradient  6.4742984E-02 H/a0
step length    4.8432711E-01 a0      max. step      9.4216894E-02 a0

--------------------------------------------------------------------------------

***  Geometry step: 4

 iSCC Total electronic   Diff electronic      SCC error    
    1   -0.19489619E+03    0.00000000E+00    0.43873135E-01
    2   -0.19467040E+03    0.22578235E+00    0.25125244E-01
    3   -0.19467069E+03   -0.28838824E-03    0.24720249E-02
    4   -0.19467077E+03   -0.80625078E-04    0.52942359E-03
    5   -0.19467078E+03   -0.44016623E-05    0.17612300E-03
    6   -0.19467078E+03   -0.14386603E-06    0.72532630E-04
    7   -0.19467078E+03   -0.29966998E-08    0.54673138E-05
    8   -0.19467078E+03   -0.47953108E-09    0.17720723E-05
    9   -0.19467078E+03   -0.27654323E-10    0.24637222E-06
   10   -0.19467078E+03   -0.42632564E-12    0.53015270E-07
   11   -0.19467078E+03   -0.56843419E-13    0.10739857E-07
   12   -0.19467078E+03    0.56843419E-13    0.28900136E-08

Total Energy:                     -192.3036050860 H        -5232.8473 eV
Extrapolated to 0K:               -192.3036050860 H        -5232.8473 eV
Total Mermin free energy:         -192.3036050860 H        -5232.8473 eV
Force related energy:             -192.3036050860 H        -5232.8473 eV

Volume:                              0.961290E+04 au^3   0.142449E+04 A^3
Pressure:                            0.188614E-03 au     0.554921E+10 Pa
>> Charges saved for restart in charges.bin

total energy  -1.9230361E+02 H       energy change -4.7765908E-02 H
gradient norm  1.5429420E-01 H/a0    max. gradient  6.3753030E-02 H/a0
step length    4.4559793E-01 a0      max. step      9.2901205E-02 a0

--------------------------------------------------------------------------------

***  Geometry step: 5

 iSCC Total electronic   Diff electronic      SCC error    
    1   -0.19467078E+03    0.00000000E+00    0.32424384E-01
    2   -0.19446945E+03    0.20132673E+00    0.18356943E-01
    3   -0.19446990E+03   -0.45249868E-03    0.29625048E-02
    4   -0.19447000E+03   -0.99725229E-04    0.45307788E-03
    5   -0.19447001E+03   -0.33191703E-05    0.15941861E-03
    6   -0.19447001E+03   -0.12449337E-06    0.66773376E-04
    7   -0.19447001E+03   -0.23579787E-08    0.58055243E-05
    8   -0.19447001E+03   -0.43277737E-09    0.13211103E-05
    9   -0.19447001E+03   -0.27085889E-10    0.23849710E-06
   10   -0.19447001E+03   -0.48316906E-12    0.47240129E-07
   11   -0.19447001E+03   -0.28421709E-13    0.86560705E-08

Total Energy:                     -192.3287446192 H        -5233.5314 eV
Extrapolated to 0K:               -192.3287446192 H        -5233.5314 eV
Total Mermin free energy:         -192.3287446192 H        -5233.5314 eV
Force related energy:             -192.3287446192 H        -5233.5314 eV

Volume:                              0.971295E+04 au^3   0.143931E+04 A^3
Pressure:                            0.100935E-03 au     0.296961E+10 Pa
>> Charges saved for restart in charges.bin

total energy  -1.9232874E+02 H       energy change -2.5139533E-02 H
gradient norm  1.2089127E-01 H/a0    max. gradient  5.4875593E-02 H/a0
step length    4.1063067E-01 a0      max. step      9.7112044E-02 a0

--------------------------------------------------------------------------------

***  Geometry step: 6

 iSCC Total electronic   Diff electronic      SCC error    
    1   -0.19447001E+03    0.00000000E+00    0.28695053E-01
    2   -0.19435244E+03    0.11756949E+00    0.12468949E-01
    3   -0.19435297E+03   -0.53421213E-03    0.24446798E-02
    4   -0.19435309E+03   -0.12121569E-03    0.33758150E-03
    5   -0.19435309E+03   -0.97999265E-06    0.99120436E-04
    6   -0.19435309E+03   -0.86770228E-07    0.60237569E-04
    7   -0.19435309E+03   -0.21160247E-08    0.10504647E-04
    8   -0.19435309E+03   -0.21935875E-09    0.13653394E-05
    9   -0.19435309E+03   -0.18843593E-10    0.31927889E-06
   10   -0.19435309E+03   -0.39790393E-12    0.48315435E-07
   11   -0.19435309E+03   -0.28421709E-13    0.82416101E-08

Total Energy:                     -192.3389838383 H        -5233.8100 eV
Extrapolated to 0K:               -192.3389838383 H        -5233.8100 eV
Total Mermin free energy:         -192.3389838383 H        -5233.8100 eV
Force related energy:             -192.3389838383 H        -5233.8100 eV

Volume:                              0.976592E+04 au^3   0.144716E+04 A^3
Pressure:                            0.485310E-04 au     0.142783E+10 Pa
>> Charges saved for restart in charges.bin

total energy  -1.9233898E+02 H       energy change -1.0239219E-02 H
gradient norm  1.1740263E-01 H/a0    max. gradient  7.0516155E-02 H/a0
step length    3.1141571E-01 a0      max. step      7.4372470E-02 a0

--------------------------------------------------------------------------------

***  Geometry step: 7

 iSCC Total electronic   Diff electronic      SCC error    
    1   -0.19435309E+03    0.00000000E+00    0.16862735E-01
    2   -0.19432571E+03    0.27381470E-01    0.68892637E-02
    3   -0.19432595E+03   -0.24137388E-03    0.15697206E-02
    4   -0.19432601E+03   -0.56065306E-04    0.33170243E-03
    5   -0.19432601E+03   -0.44659518E-06    0.40145986E-04
    6   -0.19432601E+03   -0.30610778E-07    0.20605493E-04
    7   -0.19432601E+03   -0.11733334E-08    0.76184999E-05
    8   -0.19432601E+03   -0.64972028E-10    0.58194114E-06
    9   -0.19432601E+03   -0.54853899E-11    0.15400982E-06
   10   -0.19432601E+03   -0.22737368E-12    0.26018006E-07
   11   -0.19432601E+03    0.28421709E-13    0.31764182E-08

Total Energy:                     -192.3459529020 H        -5233.9997 eV
Extrapolated to 0K:               -192.3459529020 H        -5233.9997 eV
Total Mermin free energy:         -192.3459529020 H        -5233.9997 eV
Force related energy:             -192.3459529020 H        -5233.9997 eV

Volume:                              0.978188E+04 au^3   0.144953E+04 A^3
Pressure:                            0.342515E-04 au     0.100771E+10 Pa
>> Charges saved for restart in charges.bin

total energy  -1.9234595E+02 H       energy change -6.9690636E-03 H
gradient norm  7.2769804E-02 H/a0    max. gradient  3.6707372E-02 H/a0
step length    1.5408501E-01 a0      max. step      3.9705927E-02 a0

--------------------------------------------------------------------------------

***  Geometry step: 8

 iSCC Total electronic   Diff electronic      SCC error    
    1   -0.19432601E+03    0.00000000E+00    0.14271639E-01
    2   -0.19434740E+03   -0.21385705E-01    0.86556650E-02
    3   -0.19434750E+03   -0.10425867E-03    0.16870060E-02
    4   -0.19434753E+03   -0.25901179E-04    0.18683383E-03
    5   -0.19434753E+03   -0.84305765E-06    0.83752240E-04
    6   -0.19434753E+03   -0.32675615E-07    0.27047169E-04
    7   -0.19434753E+03   -0.61092464E-09    0.33482092E-05
    8   -0.19434753E+03   -0.69576345E-10    0.78252942E-06
    9   -0.19434753E+03   -0.40074610E-11    0.22006515E-06
   10   -0.19434753E+03   -0.14210855E-12    0.16718166E-07
   11   -0.19434753E+03    0.00000000E+00    0.27015195E-08

Total Energy:                     -192.3521434608 H        -5234.1681 eV
Extrapolated to 0K:               -192.3521434608 H        -5234.1681 eV
Total Mermin free energy:         -192.3521434608 H        -5234.1681 eV
Force related energy:             -192.3521434608 H        -5234.1681 eV

Volume:                              0.976968E+04 au^3   0.144772E+04 A^3
Pressure:                            0.390736E-04 au     0.114959E+10 Pa
>> Charges saved for restart in charges.bin

total energy  -1.9235214E+02 H       energy change -6.1905588E-03 H
gradient norm  5.9557411E-02 H/a0    max. gradient  2.6509348E-02 H/a0
step length    1.6320572E-01 a0      max. step      3.6107630E-02 a0

--------------------------------------------------------------------------------

***  Geometry step: 9

 iSCC Total electronic   Diff electronic      SCC error    
    1   -0.19434753E+03    0.00000000E+00    0.13479599E-01
    2   -0.19437271E+03   -0.25181613E-01    0.81169666E-02
    3   -0.19437280E+03   -0.93969241E-04    0.12394769E-02
    4   -0.19437283E+03   -0.24999742E-04    0.24465032E-03
    5   -0.19437283E+03   -0.10176720E-05    0.92249439E-04
    6   -0.19437283E+03   -0.57131302E-07    0.22320978E-04
    7   -0.19437283E+03   -0.16743513E-08    0.55376817E-05
    8   -0.19437283E+03   -0.67132078E-10    0.44484753E-06
    9   -0.19437283E+03   -0.62243544E-11    0.85877631E-07
   10   -0.19437283E+03   -0.22737368E-12    0.17789030E-07
   11   -0.19437283E+03   -0.85265128E-13    0.28584308E-08

Total Energy:                     -192.3565073436 H        -5234.2869 eV
Extrapolated to 0K:               -192.3565073436 H        -5234.2869 eV
Total Mermin free energy:         -192.3565073436 H        -5234.2869 eV
Force related energy:             -192.3565073436 H        -5234.2869 eV

Volume:                              0.975631E+04 au^3   0.144574E+04 A^3
Pressure:                            0.464618E-04 au     0.136695E+10 Pa
>> Charges saved for restart in charges.bin

total energy  -1.9235651E+02 H       energy change -4.3638828E-03 H
gradient norm  4.4668416E-02 H/a0    max. gradient  1.5015687E-02 H/a0
step length    1.9509813E-01 a0      max. step      4.1613344E-02 a0

--------------------------------------------------------------------------------

***  Geometry step: 10

 iSCC Total electronic   Diff electronic      SCC error    
    1   -0.19437283E+03    0.00000000E+00    0.63643083E-02
    2   -0.19437248E+03    0.35336033E-03    0.30017646E-02
    3   -0.19437252E+03   -0.39963340E-04    0.97848040E-03
    4   -0.19437252E+03   -0.93720987E-05    0.94484099E-04
    5   -0.19437252E+03   -0.28939436E-06    0.25185945E-04
    6   -0.19437252E+03   -0.13011743E-07    0.86719891E-05
    7   -0.19437252E+03   -0.48595439E-09    0.22793464E-05
    8   -0.19437252E+03   -0.34816594E-10    0.22905343E-06
    9   -0.19437252E+03   -0.93791641E-12    0.60357574E-07
   10   -0.19437252E+03   -0.11368684E-12    0.13005509E-07
   11   -0.19437252E+03    0.85265128E-13    0.25641111E-08

Total Energy:                     -192.3588682818 H        -5234.3511 eV
Extrapolated to 0K:               -192.3588682818 H        -5234.3511 eV
Total Mermin free energy:         -192.3588682818 H        -5234.3511 eV
Force related energy:             -192.3588682818 H        -5234.3511 eV

Volume:                              0.975965E+04 au^3   0.144623E+04 A^3
Pressure:                            0.439778E-04 au     0.129387E+10 Pa
>> Charges saved for restart in charges.bin

total energy  -1.9235887E+02 H       energy change -2.3609382E-03 H
gradient norm  3.6650564E-02 H/a0    max. gradient  1.0557465E-02 H/a0
step length    1.3708362E-01 a0      max. step      2.7383419E-02 a0

--------------------------------------------------------------------------------

***  Geometry step: 11

 iSCC Total electronic   Diff electronic      SCC error    
    1   -0.19437252E+03    0.00000000E+00    0.73973076E-02
    2   -0.19436416E+03    0.83660145E-02    0.44742941E-02
    3   -0.19436423E+03   -0.73497427E-04    0.15117868E-02
    4   -0.19436425E+03   -0.16243693E-04    0.13123847E-03
    5   -0.19436425E+03   -0.35860640E-06    0.38038519E-04
    6   -0.19436425E+03   -0.23750090E-07    0.12198967E-04
    7   -0.19436425E+03   -0.81655571E-09    0.35499326E-05
    8   -0.19436425E+03   -0.41325166E-10    0.34833782E-06
    9   -0.19436425E+03   -0.26147973E-11    0.95649113E-07
   10   -0.19436425E+03   -0.17053026E-12    0.15630331E-07
   11   -0.19436425E+03    0.56843419E-13    0.25586897E-08

Total Energy:                     -192.3614145767 H        -5234.4204 eV
Extrapolated to 0K:               -192.3614145767 H        -5234.4204 eV
Total Mermin free energy:         -192.3614145767 H        -5234.4204 eV
Force related energy:             -192.3614145767 H        -5234.4204 eV

Volume:                              0.977229E+04 au^3   0.144810E+04 A^3
Pressure:                            0.377101E-04 au     0.110947E+10 Pa
>> Charges saved for restart in charges.bin

total energy  -1.9236141E+02 H       energy change -2.5462949E-03 H
gradient norm  3.7815846E-02 H/a0    max. gradient  1.6137580E-02 H/a0
step length    1.7194650E-01 a0      max. step      2.8430486E-02 a0

--------------------------------------------------------------------------------

***  Geometry step: 12

 iSCC Total electronic   Diff electronic      SCC error    
    1   -0.19436425E+03    0.00000000E+00    0.64439555E-02
    2   -0.19434853E+03    0.15714810E-01    0.38974716E-02
    3   -0.19434857E+03   -0.35567136E-04    0.10875261E-02
    4   -0.19434858E+03   -0.83950213E-05    0.90048308E-04
    5   -0.19434858E+03   -0.19749857E-06    0.33734337E-04
    6   -0.19434858E+03   -0.10922463E-07    0.13745432E-04
    7   -0.19434858E+03   -0.13849899E-09    0.21770743E-05
    8   -0.19434858E+03   -0.12988721E-10    0.22701509E-06
    9   -0.19434858E+03   -0.10231815E-11    0.69286227E-07
   10   -0.19434858E+03   -0.85265128E-13    0.72794211E-08

Total Energy:                     -192.3633562256 H        -5234.4732 eV
Extrapolated to 0K:               -192.3633562256 H        -5234.4732 eV
Total Mermin free energy:         -192.3633562256 H        -5234.4732 eV
Force related energy:             -192.3633562256 H        -5234.4732 eV

Volume:                              0.979489E+04 au^3   0.145145E+04 A^3
Pressure:                            0.289728E-04 au     0.852409E+09 Pa
>> Charges saved for restart in charges.bin

total energy  -1.9236336E+02 H       energy change -1.9416489E-03 H
gradient norm  3.6146554E-02 H/a0    max. gradient  1.1082686E-02 H/a0
step length    1.4331110E-01 a0      max. step      2.5384954E-02 a0

--------------------------------------------------------------------------------

***  Geometry step: 13

 iSCC Total electronic   Diff electronic      SCC error    
    1   -0.19434858E+03    0.00000000E+00    0.58559388E-02
    2   -0.19433643E+03    0.12143945E-01    0.36263924E-02
    3   -0.19433646E+03   -0.26409641E-04    0.98914603E-03
    4   -0.19433647E+03   -0.60032905E-05    0.10032699E-03
    5   -0.19433647E+03   -0.19690464E-06    0.34999295E-04
    6   -0.19433647E+03   -0.11348789E-07    0.12034364E-04
    7   -0.19433647E+03   -0.17988100E-09    0.21093698E-05
    8   -0.19433647E+03   -0.11169732E-10    0.24887640E-06
    9   -0.19433647E+03   -0.12221335E-11    0.58422545E-07
   10   -0.19433647E+03   -0.56843419E-13    0.10561734E-07
   11   -0.19433647E+03   -0.28421709E-13    0.11188783E-08

Total Energy:                     -192.3651414743 H        -5234.5218 eV
Extrapolated to 0K:               -192.3651414743 H        -5234.5218 eV
Total Mermin free energy:         -192.3651414743 H        -5234.5218 eV
Force related energy:             -192.3651414743 H        -5234.5218 eV

Volume:                              0.981952E+04 au^3   0.145510E+04 A^3
Pressure:                            0.219976E-04 au     0.647190E+09 Pa
>> Charges saved for restart in charges.bin

total energy  -1.9236514E+02 H       energy change -1.7852487E-03 H
gradient norm  3.2051914E-02 H/a0    max. gradient  1.1696607E-02 H/a0
step length    1.5046516E-01 a0      max. step      2.7604145E-02 a0

--------------------------------------------------------------------------------

***  Geometry step: 14

 iSCC Total electronic   Diff electronic      SCC error    
    1   -0.19433647E+03    0.00000000E+00    0.51271964E-02
    2   -0.19432905E+03    0.74134966E-02    0.29941448E-02
    3   -0.19432908E+03   -0.25497699E-04    0.91995438E-03
    4   -0.19432908E+03   -0.57253770E-05    0.10884796E-03
    5   -0.19432909E+03   -0.16141766E-06    0.25611073E-04
    6   -0.19432909E+03   -0.13298944E-07    0.77986307E-05
    7   -0.19432909E+03   -0.42564352E-09    0.19402016E-05
    8   -0.19432909E+03   -0.16655122E-10    0.26752564E-06
    9   -0.19432909E+03   -0.12789769E-11    0.56695396E-07
   10   -0.19432909E+03    0.11368684E-12    0.11869066E-07
   11   -0.19432909E+03   -0.14210855E-12    0.13014514E-08

Total Energy:                     -192.3665315002 H        -5234.5597 eV
Extrapolated to 0K:               -192.3665315002 H        -5234.5597 eV
Total Mermin free energy:         -192.3665315002 H        -5234.5597 eV
Force related energy:             -192.3665315002 H        -5234.5597 eV

Volume:                              0.984383E+04 au^3   0.145871E+04 A^3
Pressure:                            0.169395E-04 au     0.498377E+09 Pa
>> Charges saved for restart in charges.bin

total energy  -1.9236653E+02 H       energy change -1.3900259E-03 H
gradient norm  2.4775386E-02 H/a0    max. gradient  5.0331907E-03 H/a0
step length    1.3174717E-01 a0      max. step      2.3832906E-02 a0

--------------------------------------------------------------------------------

***  Geometry step: 15

 iSCC Total electronic   Diff electronic      SCC error    
    1   -0.19432909E+03    0.00000000E+00    0.66197837E-02
    2   -0.19433112E+03   -0.20367698E-02    0.36265795E-02
    3   -0.19433115E+03   -0.28592105E-04    0.73521830E-03
    4   -0.19433116E+03   -0.60631617E-05    0.10562962E-03
    5   -0.19433116E+03   -0.13511374E-06    0.45385917E-04
    6   -0.19433116E+03   -0.12095597E-07    0.11968111E-04
    7   -0.19433116E+03   -0.40031978E-09    0.23707188E-05
    8   -0.19433116E+03   -0.11624479E-10    0.30581627E-06
    9   -0.19433116E+03   -0.16200374E-11    0.65181659E-07
   10   -0.19433116E+03    0.28421709E-13    0.10385341E-07
   11   -0.19433116E+03   -0.56843419E-13    0.13953843E-08

Total Energy:                     -192.3675868564 H        -5234.5884 eV
Extrapolated to 0K:               -192.3675868564 H        -5234.5884 eV
Total Mermin free energy:         -192.3675868564 H        -5234.5884 eV
Force related energy:             -192.3675868564 H        -5234.5884 eV

Volume:                              0.986011E+04 au^3   0.146112E+04 A^3
Pressure:                            0.162946E-04 au     0.479403E+09 Pa
>> Charges saved for restart in charges.bin

total energy  -1.9236759E+02 H       energy change -1.0553562E-03 H
gradient norm  2.4042125E-02 H/a0    max. gradient  4.7559056E-03 H/a0
step length    1.1446186E-01 a0      max. step      2.0853042E-02 a0

--------------------------------------------------------------------------------

***  Geometry step: 16

 iSCC Total electronic   Diff electronic      SCC error    
    1   -0.19433116E+03    0.00000000E+00    0.68065071E-02
    2   -0.19433435E+03   -0.31896867E-02    0.37773730E-02
    3   -0.19433437E+03   -0.20226154E-04    0.76128839E-03
    4   -0.19433437E+03   -0.43551149E-05    0.79181626E-04
    5   -0.19433437E+03   -0.84294498E-07    0.37450175E-04
    6   -0.19433437E+03   -0.69523196E-08    0.83179946E-05
    7   -0.19433437E+03   -0.19278446E-09    0.15957797E-05
    8   -0.19433437E+03   -0.54285465E-11    0.33581399E-06
    9   -0.19433437E+03   -0.12789769E-11    0.62709836E-07
   10   -0.19433437E+03   -0.56843419E-13    0.63252634E-08

Total Energy:                     -192.3684518434 H        -5234.6119 eV
Extrapolated to 0K:               -192.3684518434 H        -5234.6119 eV
Total Mermin free energy:         -192.3684518434 H        -5234.6119 eV
Force related energy:             -192.3684518434 H        -5234.6119 eV

Volume:                              0.987344E+04 au^3   0.146309E+04 A^3
Pressure:                            0.158972E-04 au     0.467710E+09 Pa
>> Charges saved for restart in charges.bin

total energy  -1.9236845E+02 H       energy change -8.6498698E-04 H
gradient norm  2.4201457E-02 H/a0    max. gradient  5.1101225E-03 H/a0
step length    1.0323783E-01 a0      max. step      1.9053968E-02 a0

--------------------------------------------------------------------------------

***  Geometry step: 17

 iSCC Total electronic   Diff electronic      SCC error    
    1   -0.19433437E+03    0.00000000E+00    0.63127277E-02
    2   -0.19433890E+03   -0.45257704E-02    0.35430050E-02
    3   -0.19433891E+03   -0.14218029E-04    0.68361333E-03
    4   -0.19433891E+03   -0.30287122E-05    0.90204689E-04
    5   -0.19433891E+03   -0.79432255E-07    0.31390632E-04
    6   -0.19433891E+03   -0.60949787E-08    0.64071895E-05
    7   -0.19433891E+03   -0.12738610E-09    0.13502389E-05
    8   -0.19433891E+03   -0.50022209E-11    0.35409170E-06
    9   -0.19433891E+03   -0.99475983E-12    0.54197757E-07
   10   -0.19433891E+03   -0.11368684E-12    0.54033436E-08

Total Energy:                     -192.3693351702 H        -5234.6359 eV
Extrapolated to 0K:               -192.3693351702 H        -5234.6359 eV
Total Mermin free energy:         -192.3693351702 H        -5234.6359 eV
Force related energy:             -192.3693351702 H        -5234.6359 eV

Volume:                              0.988640E+04 au^3   0.146501E+04 A^3
Pressure:                            0.165378E-04 au     0.486559E+09 Pa
>> Charges saved for restart in charges.bin

total energy  -1.9236934E+02 H       energy change -8.8332679E-04 H
gradient norm  2.2519321E-02 H/a0    max. gradient  4.9956524E-03 H/a0
step length    1.1658925E-01 a0      max. step      2.1071756E-02 a0

--------------------------------------------------------------------------------

***  Geometry step: 18

 iSCC Total electronic   Diff electronic      SCC error    
    1   -0.19433891E+03    0.00000000E+00    0.29041413E-02
    2   -0.19433792E+03    0.99058061E-03    0.17588341E-02
    3   -0.19433794E+03   -0.11829629E-04    0.55574316E-03
    4   -0.19433794E+03   -0.23884602E-05    0.83007946E-04
    5   -0.19433794E+03   -0.54471627E-07    0.18030856E-04
    6   -0.19433794E+03   -0.54126872E-08    0.46134043E-05
    7   -0.19433794E+03   -0.87595708E-10    0.13363539E-05
    8   -0.19433794E+03   -0.21884716E-11    0.24474117E-06
    9   -0.19433794E+03   -0.48316906E-12    0.44637785E-07
   10   -0.19433794E+03   -0.56843419E-13    0.56118585E-08

Total Energy:                     -192.3701825715 H        -5234.6590 eV
Extrapolated to 0K:               -192.3701825715 H        -5234.6590 eV
Total Mermin free energy:         -192.3701825715 H        -5234.6590 eV
Force related energy:             -192.3701825715 H        -5234.6590 eV

Volume:                              0.990252E+04 au^3   0.146740E+04 A^3
Pressure:                            0.150899E-04 au     0.443959E+09 Pa
>> Charges saved for restart in charges.bin

total energy  -1.9237018E+02 H       energy change -8.4740135E-04 H
gradient norm  2.0979954E-02 H/a0    max. gradient  4.0811716E-03 H/a0
step length    1.2276589E-01 a0      max. step      2.1053428E-02 a0

--------------------------------------------------------------------------------

***  Geometry step: 19

 iSCC Total electronic   Diff electronic      SCC error    
    1   -0.19433794E+03    0.00000000E+00    0.51861693E-02
    2   -0.19433245E+03    0.54869695E-02    0.23712749E-02
    3   -0.19433247E+03   -0.17212423E-04    0.55875052E-03
    4   -0.19433247E+03   -0.35998569E-05    0.77598436E-04
    5   -0.19433247E+03   -0.68660398E-07    0.12624140E-04
    6   -0.19433247E+03   -0.64736128E-08    0.50494846E-05
    7   -0.19433247E+03   -0.12610712E-09    0.15607001E-05
    8   -0.19433247E+03   -0.52295945E-11    0.19481089E-06
    9   -0.19433247E+03   -0.48316906E-12    0.62707801E-07
   10   -0.19433247E+03   -0.28421709E-13    0.92752384E-08

Total Energy:                     -192.3710220365 H        -5234.6818 eV
Extrapolated to 0K:               -192.3710220365 H        -5234.6818 eV
Total Mermin free energy:         -192.3710220365 H        -5234.6818 eV
Force related energy:             -192.3710220365 H        -5234.6818 eV

Volume:                              0.992340E+04 au^3   0.147050E+04 A^3
Pressure:                            0.115076E-04 au     0.338565E+09 Pa
>> Charges saved for restart in charges.bin

total energy  -1.9237102E+02 H       energy change -8.3946500E-04 H
gradient norm  2.0324680E-02 H/a0    max. gradient  4.8550813E-03 H/a0
step length    1.3919118E-01 a0      max. step      2.2864823E-02 a0

--------------------------------------------------------------------------------

***  Geometry step: 20

 iSCC Total electronic   Diff electronic      SCC error    
    1   -0.19433247E+03    0.00000000E+00    0.49173517E-02
    2   -0.19432657E+03    0.59065606E-02    0.23683923E-02
    3   -0.19432658E+03   -0.15020170E-04    0.60116466E-03
    4   -0.19432658E+03   -0.33038718E-05    0.66811791E-04
    5   -0.19432658E+03   -0.70214611E-07    0.29822467E-04
    6   -0.19432658E+03   -0.52166911E-08    0.87168477E-05
    7   -0.19432658E+03   -0.12471446E-09    0.15527711E-05
    8   -0.19432658E+03   -0.43200998E-11    0.23490369E-06
    9   -0.19432658E+03   -0.65369932E-12    0.49644619E-07
   10   -0.19432658E+03   -0.11368684E-12    0.76237212E-08

Total Energy:                     -192.3716570857 H        -5234.6991 eV
Extrapolated to 0K:               -192.3716570857 H        -5234.6991 eV
Total Mermin free energy:         -192.3716570857 H        -5234.6991 eV
Force related energy:             -192.3716570857 H        -5234.6991 eV

Volume:                              0.994299E+04 au^3   0.147340E+04 A^3
Pressure:                            0.821258E-05 au     0.241622E+09 Pa
>> Charges saved for restart in charges.bin

total energy  -1.9237166E+02 H       energy change -6.3504920E-04 H
gradient norm  1.9186510E-02 H/a0    max. gradient  5.6196214E-03 H/a0
step length    1.2162471E-01 a0      max. step      2.0091757E-02 a0

--------------------------------------------------------------------------------

***  Geometry step: 21

 iSCC Total electronic   Diff electronic      SCC error    
    1   -0.19432658E+03    0.00000000E+00    0.42582913E-02
    2   -0.19432175E+03    0.48381588E-02    0.24239056E-02
    3   -0.19432175E+03   -0.82377031E-05    0.51536385E-03
    4   -0.19432176E+03   -0.19026418E-05    0.62709151E-04
    5   -0.19432176E+03   -0.48777679E-07    0.26440355E-04
    6   -0.19432176E+03   -0.28985312E-08    0.50901158E-05
    7   -0.19432176E+03   -0.82280849E-10    0.68774071E-06
    8   -0.19432176E+03   -0.21884716E-11    0.19183063E-06
    9   -0.19432176E+03   -0.51159077E-12    0.37891389E-07
   10   -0.19432176E+03   -0.56843419E-13    0.61334795E-08

Total Energy:                     -192.3721306279 H        -5234.7120 eV
Extrapolated to 0K:               -192.3721306279 H        -5234.7120 eV
Total Mermin free energy:         -192.3721306279 H        -5234.7120 eV
Force related energy:             -192.3721306279 H        -5234.7120 eV

Volume:                              0.995888E+04 au^3   0.147575E+04 A^3
Pressure:                            0.527336E-05 au     0.155147E+09 Pa
>> Charges saved for restart in charges.bin

total energy  -1.9237213E+02 H       energy change -4.7354218E-04 H
gradient norm  1.5440778E-02 H/a0    max. gradient  3.7296960E-03 H/a0
step length    9.2339618E-02 a0      max. step      1.7626202E-02 a0

--------------------------------------------------------------------------------

***  Geometry step: 22

 iSCC Total electronic   Diff electronic      SCC error    
    1   -0.19432176E+03    0.00000000E+00    0.25917538E-02
    2   -0.19432215E+03   -0.39441807E-03    0.13881529E-02
    3   -0.19432216E+03   -0.68671432E-05    0.45724326E-03
    4   -0.19432216E+03   -0.15751060E-05    0.65058381E-04
    5   -0.19432216E+03   -0.29695229E-07    0.18282371E-04
    6   -0.19432216E+03   -0.19569200E-08    0.38587005E-05
    7   -0.19432216E+03   -0.56218141E-10    0.63489336E-06
    8   -0.19432216E+03   -0.13073986E-11    0.15672933E-06
    9   -0.19432216E+03   -0.34106051E-12    0.37624711E-07
   10   -0.19432216E+03   -0.28421709E-13    0.59892624E-08

Total Energy:                     -192.3724913720 H        -5234.7218 eV
Extrapolated to 0K:               -192.3724913720 H        -5234.7218 eV
Total Mermin free energy:         -192.3724913720 H        -5234.7218 eV
Force related energy:             -192.3724913720 H        -5234.7218 eV

Volume:                              0.996964E+04 au^3   0.147735E+04 A^3
Pressure:                            0.410488E-05 au     0.120770E+09 Pa
>> Charges saved for restart in charges.bin

total energy  -1.9237249E+02 H       energy change -3.6074406E-04 H
gradient norm  1.2323057E-02 H/a0    max. gradient  2.1115301E-03 H/a0
step length    7.3823233E-02 a0      max. step      1.6353045E-02 a0

--------------------------------------------------------------------------------

***  Geometry step: 23

 iSCC Total electronic   Diff electronic      SCC error    
    1   -0.19432216E+03    0.00000000E+00    0.26673657E-02
    2   -0.19432649E+03   -0.43341201E-02    0.10909327E-02
    3   -0.19432650E+03   -0.50698871E-05    0.32967080E-03
    4   -0.19432650E+03   -0.11322667E-05    0.35008807E-04
    5   -0.19432650E+03   -0.15040371E-07    0.45370600E-05
    6   -0.19432650E+03   -0.10118697E-08    0.14505189E-05
    7   -0.19432650E+03   -0.27398528E-10    0.46555846E-06
    8   -0.19432650E+03   -0.12221335E-11    0.10623831E-06
    9   -0.19432650E+03   -0.28421709E-13    0.16979876E-07
   10   -0.19432650E+03    0.00000000E+00    0.33188763E-08

Total Energy:                     -192.3727305165 H        -5234.7283 eV
Extrapolated to 0K:               -192.3727305165 H        -5234.7283 eV
Total Mermin free energy:         -192.3727305165 H        -5234.7283 eV
Force related energy:             -192.3727305165 H        -5234.7283 eV

Volume:                              0.997523E+04 au^3   0.147818E+04 A^3
Pressure:                            0.477949E-05 au     0.140617E+09 Pa
>> Charges saved for restart in charges.bin

total energy  -1.9237273E+02 H       energy change -2.3914451E-04 H
gradient norm  1.1510026E-02 H/a0    max. gradient  2.3582518E-03 H/a0
step length    5.1444277E-02 a0      max. step      1.1471581E-02 a0

--------------------------------------------------------------------------------

***  Geometry step: 24

 iSCC Total electronic   Diff electronic      SCC error    
    1   -0.19432650E+03    0.00000000E+00    0.22373000E-02
    2   -0.19433186E+03   -0.53609977E-02    0.12236787E-02
    3   -0.19433186E+03   -0.49131052E-05    0.29240190E-03
    4   -0.19433187E+03   -0.11102938E-05    0.44315400E-04
    5   -0.19433187E+03   -0.19601771E-07    0.11771405E-04
    6   -0.19433187E+03   -0.93137942E-09    0.27780973E-05
    7   -0.19433187E+03   -0.15376145E-10    0.45063672E-06
    8   -0.19433187E+03   -0.59685590E-12    0.95993967E-07
    9   -0.19433187E+03   -0.85265128E-13    0.12192478E-07
   10   -0.19433187E+03    0.28421709E-13    0.15660988E-08

Total Energy:                     -192.3729323031 H        -5234.7338 eV
Extrapolated to 0K:               -192.3729323031 H        -5234.7338 eV
Total Mermin free energy:         -192.3729323031 H        -5234.7338 eV
Force related energy:             -192.3729323031 H        -5234.7338 eV

Volume:                              0.997975E+04 au^3   0.147885E+04 A^3
Pressure:                            0.616078E-05 au     0.181256E+09 Pa
>> Charges saved for restart in charges.bin

total energy  -1.9237293E+02 H       energy change -2.0178662E-04 H
gradient norm  1.1343764E-02 H/a0    max. gradient  2.5284818E-03 H/a0
step length    4.8147619E-02 a0      max. step      8.8467726E-03 a0

--------------------------------------------------------------------------------

***  Geometry step: 25

 iSCC Total electronic   Diff electronic      SCC error    
    1   -0.19433187E+03    0.00000000E+00    0.27046211E-02
    2   -0.19433470E+03   -0.28354904E-02    0.15070764E-02
    3   -0.19433470E+03   -0.35972942E-05    0.31197133E-03
    4   -0.19433471E+03   -0.84883467E-06    0.45925703E-04
    5   -0.19433471E+03   -0.23393966E-07    0.14098190E-04
    6   -0.19433471E+03   -0.91975494E-09    0.21013194E-05
    7   -0.19433471E+03   -0.18332003E-10    0.37687941E-06
    8   -0.19433471E+03   -0.73896445E-12    0.12221563E-06
    9   -0.19433471E+03   -0.14210855E-12    0.21397893E-07
   10   -0.19433471E+03    0.85265128E-13    0.25383358E-08

Total Energy:                     -192.3731323803 H        -5234.7393 eV
Extrapolated to 0K:               -192.3731323803 H        -5234.7393 eV
Total Mermin free energy:         -192.3731323803 H        -5234.7393 eV
Force related energy:             -192.3731323803 H        -5234.7393 eV

Volume:                              0.998690E+04 au^3   0.147991E+04 A^3
Pressure:                            0.683558E-05 au     0.201110E+09 Pa
>> Charges saved for restart in charges.bin

total energy  -1.9237313E+02 H       energy change -2.0007723E-04 H
gradient norm  1.1051775E-02 H/a0    max. gradient  2.2089638E-03 H/a0
step length    5.4632621E-02 a0      max. step      9.8633232E-03 a0

--------------------------------------------------------------------------------

***  Geometry step: 26

 iSCC Total electronic   Diff electronic      SCC error    
    1   -0.19433471E+03    0.00000000E+00    0.24961953E-02
    2   -0.19433419E+03    0.51321370E-03    0.14129101E-02
    3   -0.19433420E+03   -0.35161408E-05    0.37989746E-03
    4   -0.19433420E+03   -0.84355989E-06    0.45311137E-04
    5   -0.19433420E+03   -0.27920663E-07    0.13428278E-04
    6   -0.19433420E+03   -0.10444978E-08    0.22630223E-05
    7   -0.19433420E+03   -0.15234036E-10    0.42081851E-06
    8   -0.19433420E+03   -0.73896445E-12    0.10512006E-06
    9   -0.19433420E+03   -0.14210855E-12    0.17532910E-07
   10   -0.19433420E+03    0.00000000E+00    0.18310287E-08

Total Energy:                     -192.3733620016 H        -5234.7455 eV
Extrapolated to 0K:               -192.3733620016 H        -5234.7455 eV
Total Mermin free energy:         -192.3733620016 H        -5234.7455 eV
Force related energy:             -192.3733620016 H        -5234.7455 eV

Volume:                              0.999866E+04 au^3   0.148165E+04 A^3
Pressure:                            0.589291E-05 au     0.173375E+09 Pa
>> Charges saved for restart in charges.bin

total energy  -1.9237336E+02 H       energy change -2.2962125E-04 H
gradient norm  1.1223005E-02 H/a0    max. gradient  1.8726591E-03 H/a0
step length    7.4733811E-02 a0      max. step      1.4560256E-02 a0

--------------------------------------------------------------------------------

***  Geometry step: 27

 iSCC Total electronic   Diff electronic      SCC error    
    1   -0.19433420E+03    0.00000000E+00    0.23378124E-02
    2   -0.19433143E+03    0.27681803E-02    0.11671919E-02
    3   -0.19433143E+03   -0.36822179E-05    0.36130032E-03
    4   -0.19433143E+03   -0.83228574E-06    0.30764631E-04
    5   -0.19433143E+03   -0.19655431E-07    0.98808567E-05
    6   -0.19433143E+03   -0.90273033E-09    0.22328435E-05
    7   -0.19433143E+03   -0.10658141E-10    0.46509765E-06
    8   -0.19433143E+03   -0.39790393E-12    0.98159004E-07
    9   -0.19433143E+03   -0.19895197E-12    0.27612802E-07
   10   -0.19433143E+03    0.28421709E-13    0.20973401E-08

Total Energy:                     -192.3735807359 H        -5234.7515 eV
Extrapolated to 0K:               -192.3735807359 H        -5234.7515 eV
Total Mermin free energy:         -192.3735807359 H        -5234.7515 eV
Force related energy:             -192.3735807359 H        -5234.7515 eV

Volume:                              0.100118E+05 au^3   0.148360E+04 A^3
Pressure:                            0.401141E-05 au     0.118020E+09 Pa
>> Charges saved for restart in charges.bin

total energy  -1.9237358E+02 H       energy change -2.1873436E-04 H
gradient norm  1.1499636E-02 H/a0    max. gradient  2.4790241E-03 H/a0
step length    7.7059282E-02 a0      max. step      1.5503888E-02 a0

--------------------------------------------------------------------------------

***  Geometry step: 28

 iSCC Total electronic   Diff electronic      SCC error    
    1   -0.19433143E+03    0.00000000E+00    0.24690099E-02
    2   -0.19432785E+03    0.35873325E-02    0.10971266E-02
    3   -0.19432785E+03   -0.44418814E-05    0.29398992E-03
    4   -0.19432785E+03   -0.95226295E-06    0.30538855E-04
    5   -0.19432785E+03   -0.14676743E-07    0.90923342E-05
    6   -0.19432785E+03   -0.86933483E-09    0.24682650E-05
    7   -0.19432785E+03   -0.99760200E-11    0.41119114E-06
    8   -0.19432785E+03   -0.42632564E-12    0.11214991E-06
    9   -0.19432785E+03   -0.56843419E-13    0.24878151E-07
   10   -0.19432785E+03   -0.56843419E-13    0.21230226E-08

Total Energy:                     -192.3737854039 H        -5234.7570 eV
Extrapolated to 0K:               -192.3737854039 H        -5234.7570 eV
Total Mermin free energy:         -192.3737854039 H        -5234.7570 eV
Force related energy:             -192.3737854039 H        -5234.7570 eV

Volume:                              0.100244E+05 au^3   0.148547E+04 A^3
Pressure:                            0.173642E-05 au     0.510871E+08 Pa
>> Charges saved for restart in charges.bin

total energy  -1.9237379E+02 H       energy change -2.0466800E-04 H
gradient norm  1.1147085E-02 H/a0    max. gradient  3.1115308E-03 H/a0
step length    7.5528309E-02 a0      max. step      1.5280861E-02 a0

--------------------------------------------------------------------------------

***  Geometry step: 29

 iSCC Total electronic   Diff electronic      SCC error    
    1   -0.19432785E+03    0.00000000E+00    0.19712730E-02
    2   -0.19432529E+03    0.25654195E-02    0.99430388E-03
    3   -0.19432529E+03   -0.38955020E-05    0.24979795E-03
    4   -0.19432529E+03   -0.76447105E-06    0.31324468E-04
    5   -0.19432529E+03   -0.11281259E-07    0.10567519E-04
    6   -0.19432529E+03   -0.94613029E-09    0.23552564E-05
    7   -0.19432529E+03   -0.20349944E-10    0.55228308E-06
    8   -0.19432529E+03   -0.56843419E-12    0.97900146E-07
    9   -0.19432529E+03   -0.85265128E-13    0.25029387E-07
   10   -0.19432529E+03   -0.28421709E-13    0.21332980E-08

Total Energy:                     -192.3739754704 H        -5234.7622 eV
Extrapolated to 0K:               -192.3739754704 H        -5234.7622 eV
Total Mermin free energy:         -192.3739754704 H        -5234.7622 eV
Force related energy:             -192.3739754704 H        -5234.7622 eV

Volume:                              0.100342E+05 au^3   0.148692E+04 A^3
Pressure:                            0.525403E-07 au     0.154579E+07 Pa
>> Charges saved for restart in charges.bin

total energy  -1.9237398E+02 H       energy change -1.9006649E-04 H
gradient norm  1.1131400E-02 H/a0    max. gradient  2.5364028E-03 H/a0
step length    6.9755974E-02 a0      max. step      1.5173176E-02 a0

--------------------------------------------------------------------------------

***  Geometry step: 30

 iSCC Total electronic   Diff electronic      SCC error    
    1   -0.19432529E+03    0.00000000E+00    0.20509429E-02
    2   -0.19432483E+03    0.46048429E-03    0.10795300E-02
    3   -0.19432483E+03   -0.33515738E-05    0.25199693E-03
    4   -0.19432483E+03   -0.71899214E-06    0.35443998E-04
    5   -0.19432483E+03   -0.13642335E-07    0.10886199E-04
    6   -0.19432483E+03   -0.87004537E-09    0.18534834E-05
    7   -0.19432483E+03   -0.17820412E-10    0.36161038E-06
    8   -0.19432483E+03   -0.76738615E-12    0.91081110E-07
    9   -0.19432483E+03   -0.17053026E-12    0.22292368E-07
   10   -0.19432483E+03   -0.28421709E-13    0.22190978E-08

Total Energy:                     -192.3741900568 H        -5234.7681 eV
Extrapolated to 0K:               -192.3741900568 H        -5234.7681 eV
Total Mermin free energy:         -192.3741900568 H        -5234.7681 eV
Force related energy:             -192.3741900568 H        -5234.7681 eV

Volume:                              0.100423E+05 au^3   0.148811E+04 A^3
Pressure:                           -0.112119E-05 au    -0.329864E+08 Pa
>> Charges saved for restart in charges.bin

total energy  -1.9237419E+02 H       energy change -2.1458632E-04 H
gradient norm  1.1036599E-02 H/a0    max. gradient  3.1604378E-03 H/a0
step length    8.2098721E-02 a0      max. step      1.5349964E-02 a0

--------------------------------------------------------------------------------

***  Geometry step: 31

 iSCC Total electronic   Diff electronic      SCC error    
    1   -0.19432483E+03    0.00000000E+00    0.21865597E-02
    2   -0.19432759E+03   -0.27538807E-02    0.10271958E-02
    3   -0.19432759E+03   -0.38217004E-05    0.31670878E-03
    4   -0.19432759E+03   -0.78759399E-06    0.42751105E-04
    5   -0.19432759E+03   -0.12164833E-07    0.78448545E-05
    6   -0.19432759E+03   -0.13761792E-08    0.20995468E-05
    7   -0.19432759E+03   -0.24158453E-10    0.50756081E-06
    8   -0.19432759E+03   -0.51159077E-12    0.98393096E-07
    9   -0.19432759E+03   -0.56843419E-13    0.20480466E-07
   10   -0.19432759E+03   -0.28421709E-13    0.30377754E-08

Total Energy:                     -192.3744029538 H        -5234.7738 eV
Extrapolated to 0K:               -192.3744029538 H        -5234.7738 eV
Total Mermin free energy:         -192.3744029538 H        -5234.7738 eV
Force related energy:             -192.3744029538 H        -5234.7738 eV

Volume:                              0.100466E+05 au^3   0.148875E+04 A^3
Pressure:                           -0.690706E-06 au    -0.203213E+08 Pa
>> Charges saved for restart in charges.bin

total energy  -1.9237440E+02 H       energy change -2.1289701E-04 H
gradient norm  1.1474874E-02 H/a0    max. gradient  3.6353215E-03 H/a0
step length    8.4125756E-02 a0      max. step      1.5551748E-02 a0

--------------------------------------------------------------------------------

***  Geometry step: 32

 iSCC Total electronic   Diff electronic      SCC error    
    1   -0.19432759E+03    0.00000000E+00    0.21264740E-02
    2   -0.19433202E+03   -0.44283730E-02    0.86625221E-03
    3   -0.19433203E+03   -0.40777321E-05    0.27450405E-03
    4   -0.19433203E+03   -0.88081146E-06    0.36638854E-04
    5   -0.19433203E+03   -0.78699998E-08    0.37424384E-05
    6   -0.19433203E+03   -0.86339469E-09    0.10785080E-05
    7   -0.19433203E+03   -0.13642421E-10    0.36247755E-06
    8   -0.19433203E+03   -0.28421709E-12    0.69823170E-07
    9   -0.19433203E+03   -0.85265128E-13    0.18043495E-07
   10   -0.19433203E+03    0.11368684E-12    0.32981911E-08

Total Energy:                     -192.3746119881 H        -5234.7795 eV
Extrapolated to 0K:               -192.3746119881 H        -5234.7795 eV
Total Mermin free energy:         -192.3746119881 H        -5234.7795 eV
Force related energy:             -192.3746119881 H        -5234.7795 eV

Volume:                              0.100484E+05 au^3   0.148902E+04 A^3
Pressure:                            0.456317E-06 au     0.134253E+08 Pa
>> Charges saved for restart in charges.bin

total energy  -1.9237461E+02 H       energy change -2.0903428E-04 H
gradient norm  1.1291603E-02 H/a0    max. gradient  3.3671694E-03 H/a0
step length    8.4269934E-02 a0      max. step      1.4985401E-02 a0

--------------------------------------------------------------------------------

***  Geometry step: 33

 iSCC Total electronic   Diff electronic      SCC error    
    1   -0.19433203E+03    0.00000000E+00    0.25730489E-02
    2   -0.19433695E+03   -0.49219391E-02    0.10771223E-02
    3   -0.19433695E+03   -0.43021722E-05    0.24891457E-03
    4   -0.19433695E+03   -0.90058614E-06    0.38992319E-04
    5   -0.19433695E+03   -0.85433953E-08    0.69301292E-05
    6   -0.19433695E+03   -0.84764906E-09    0.17183561E-05
    7   -0.19433695E+03   -0.14665602E-10    0.41743038E-06
    8   -0.19433695E+03   -0.34106051E-12    0.77430252E-07
    9   -0.19433695E+03   -0.85265128E-13    0.20850166E-07
   10   -0.19433695E+03    0.56843419E-13    0.18742603E-08

Total Energy:                     -192.3748082685 H        -5234.7849 eV
Extrapolated to 0K:               -192.3748082685 H        -5234.7849 eV
Total Mermin free energy:         -192.3748082685 H        -5234.7849 eV
Force related energy:             -192.3748082685 H        -5234.7849 eV

Volume:                              0.100491E+05 au^3   0.148913E+04 A^3
Pressure:                            0.209852E-05 au     0.617405E+08 Pa
>> Charges saved for restart in charges.bin

total energy  -1.9237481E+02 H       energy change -1.9628041E-04 H
gradient norm  1.0667423E-02 H/a0    max. gradient  2.3252814E-03 H/a0
step length    8.7313638E-02 a0      max. step      1.5599266E-02 a0

--------------------------------------------------------------------------------

***  Geometry step: 34

 iSCC Total electronic   Diff electronic      SCC error    
    1   -0.19433695E+03    0.00000000E+00    0.21074174E-02
    2   -0.19433997E+03   -0.30144921E-02    0.94686193E-03
    3   -0.19433997E+03   -0.24872678E-05    0.31403788E-03
    4   -0.19433997E+03   -0.53807582E-06    0.29158139E-04
    5   -0.19433997E+03   -0.85375973E-08    0.62979676E-05
    6   -0.19433997E+03   -0.65963945E-09    0.12552343E-05
    7   -0.19433997E+03   -0.11340262E-10    0.41653233E-06
    8   -0.19433997E+03   -0.17053026E-12    0.79747993E-07
    9   -0.19433997E+03   -0.28421709E-13    0.13977979E-07
   10   -0.19433997E+03   -0.28421709E-13    0.18318418E-08

Total Energy:                     -192.3749906281 H        -5234.7898 eV
Extrapolated to 0K:               -192.3749906281 H        -5234.7898 eV
Total Mermin free energy:         -192.3749906281 H        -5234.7898 eV
Force related energy:             -192.3749906281 H        -5234.7898 eV

Volume:                              0.100501E+05 au^3   0.148927E+04 A^3
Pressure:                            0.306192E-05 au     0.900848E+08 Pa
>> Charges saved for restart in charges.bin

total energy  -1.9237499E+02 H       energy change -1.8235968E-04 H
gradient norm  1.0486506E-02 H/a0    max. gradient  2.1709228E-03 H/a0
step length    8.3501897E-02 a0      max. step      1.4985184E-02 a0

--------------------------------------------------------------------------------

***  Geometry step: 35

 iSCC Total electronic   Diff electronic      SCC error    
    1   -0.19433997E+03    0.00000000E+00    0.20971181E-02
    2   -0.19434152E+03   -0.15499445E-02    0.13038911E-02
    3   -0.19434152E+03   -0.34628111E-05    0.37932846E-03
    4   -0.19434152E+03   -0.78483515E-06    0.38241974E-04
    5   -0.19434152E+03   -0.21114460E-07    0.61450228E-05
    6   -0.19434152E+03   -0.12812791E-08    0.19119993E-05
    7   -0.19434152E+03   -0.22765789E-10    0.69791088E-06
    8   -0.19434152E+03   -0.42632564E-12    0.96862952E-07
    9   -0.19434152E+03   -0.85265128E-13    0.13131187E-07
   10   -0.19434152E+03    0.56843419E-13    0.32882634E-08

Total Energy:                     -192.3752120455 H        -5234.7959 eV
Extrapolated to 0K:               -192.3752120455 H        -5234.7959 eV
Total Mermin free energy:         -192.3752120455 H        -5234.7959 eV
Force related energy:             -192.3752120455 H        -5234.7959 eV

Volume:                              0.100520E+05 au^3   0.148956E+04 A^3
Pressure:                            0.348654E-05 au     0.102578E+09 Pa
>> Charges saved for restart in charges.bin

total energy  -1.9237521E+02 H       energy change -2.2141734E-04 H
gradient norm  1.1120185E-02 H/a0    max. gradient  2.3867851E-03 H/a0
step length    1.0853952E-01 a0      max. step      1.9454245E-02 a0

--------------------------------------------------------------------------------

***  Geometry step: 36

 iSCC Total electronic   Diff electronic      SCC error    
    1   -0.19434152E+03    0.00000000E+00    0.24554796E-02
    2   -0.19434108E+03    0.44539493E-03    0.12456275E-02
    3   -0.19434108E+03   -0.41859742E-05    0.36811602E-03
    4   -0.19434108E+03   -0.96415491E-06    0.36704171E-04
    5   -0.19434108E+03   -0.26960521E-07    0.10397280E-04
    6   -0.19434108E+03   -0.16934791E-08    0.28783975E-05
    7   -0.19434108E+03   -0.28336444E-10    0.77001905E-06
    8   -0.19434108E+03   -0.73896445E-12    0.16974194E-06
    9   -0.19434108E+03   -0.14210855E-12    0.33727111E-07
   10   -0.19434108E+03   -0.28421709E-13    0.55320588E-08

Total Energy:                     -192.3754095040 H        -5234.8012 eV
Extrapolated to 0K:               -192.3754095040 H        -5234.8012 eV
Total Mermin free energy:         -192.3754095040 H        -5234.8012 eV
Force related energy:             -192.3754095040 H        -5234.8012 eV

Volume:                              0.100539E+05 au^3   0.148983E+04 A^3
Pressure:                            0.318500E-05 au     0.937060E+08 Pa
>> Charges saved for restart in charges.bin

total energy  -1.9237541E+02 H       energy change -1.9745848E-04 H
gradient norm  1.0817529E-02 H/a0    max. gradient  2.6381264E-03 H/a0
step length    9.9302245E-02 a0      max. step      1.7601085E-02 a0

--------------------------------------------------------------------------------

***  Geometry step: 37

 iSCC Total electronic   Diff electronic      SCC error    
    1   -0.19434108E+03    0.00000000E+00    0.21438906E-02
    2   -0.19433980E+03    0.12877661E-02    0.11789197E-02
    3   -0.19433980E+03   -0.33129748E-05    0.31598284E-03
    4   -0.19433980E+03   -0.75524454E-06    0.31333323E-04
    5   -0.19433980E+03   -0.19510281E-07    0.12796878E-04
    6   -0.19433980E+03   -0.11392842E-08    0.28622911E-05
    7   -0.19433980E+03   -0.17791990E-10    0.47602033E-06
    8   -0.19433980E+03   -0.62527761E-12    0.12989066E-06
    9   -0.19433980E+03   -0.11368684E-12    0.26704999E-07
   10   -0.19433980E+03   -0.85265128E-13    0.25869520E-08

Total Energy:                     -192.3755606813 H        -5234.8054 eV
Extrapolated to 0K:               -192.3755606813 H        -5234.8054 eV
Total Mermin free energy:         -192.3755606813 H        -5234.8054 eV
Force related energy:             -192.3755606813 H        -5234.8054 eV

Volume:                              0.100554E+05 au^3   0.149005E+04 A^3
Pressure:                            0.257510E-05 au     0.757620E+08 Pa
>> Charges saved for restart in charges.bin

total energy  -1.9237556E+02 H       energy change -1.5117734E-04 H
gradient norm  8.8579547E-03 H/a0    max. gradient  1.9255623E-03 H/a0
step length    7.5973944E-02 a0      max. step      1.4105727E-02 a0

--------------------------------------------------------------------------------

***  Geometry step: 38

 iSCC Total electronic   Diff electronic      SCC error    
    1   -0.19433980E+03    0.00000000E+00    0.18301090E-02
    2   -0.19433932E+03    0.48429715E-03    0.10034657E-02
    3   -0.19433932E+03   -0.18381365E-05    0.21933938E-03
    4   -0.19433932E+03   -0.40278331E-06    0.26727350E-04
    5   -0.19433932E+03   -0.87748049E-08    0.10926919E-04
    6   -0.19433932E+03   -0.63070615E-09    0.18337546E-05
    7   -0.19433932E+03   -0.10771828E-10    0.27466719E-06
    8   -0.19433932E+03   -0.59685590E-12    0.10108022E-06
    9   -0.19433932E+03    0.00000000E+00    0.18720097E-07
   10   -0.19433932E+03    0.56843419E-13    0.20473925E-08

Total Energy:                     -192.3756714230 H        -5234.8084 eV
Extrapolated to 0K:               -192.3756714230 H        -5234.8084 eV
Total Mermin free energy:         -192.3756714230 H        -5234.8084 eV
Force related energy:             -192.3756714230 H        -5234.8084 eV

Volume:                              0.100567E+05 au^3   0.149024E+04 A^3
Pressure:                            0.213794E-05 au     0.629003E+08 Pa
>> Charges saved for restart in charges.bin

total energy  -1.9237567E+02 H       energy change -1.1074169E-04 H
gradient norm  7.7241363E-03 H/a0    max. gradient  1.6031499E-03 H/a0
step length    5.5825604E-02 a0      max. step      1.1051562E-02 a0

--------------------------------------------------------------------------------

***  Geometry step: 39

 iSCC Total electronic   Diff electronic      SCC error    
    1   -0.19433932E+03    0.00000000E+00    0.13199962E-02
    2   -0.19434026E+03   -0.93894953E-03    0.67596568E-03
    3   -0.19434026E+03   -0.18157929E-05    0.17343187E-03
    4   -0.19434026E+03   -0.39260644E-06    0.27759176E-04
    5   -0.19434026E+03   -0.71767658E-08    0.83028478E-05
    6   -0.19434026E+03   -0.60907723E-09    0.14264114E-05
    7   -0.19434026E+03   -0.15745627E-10    0.32355557E-06
    8   -0.19434026E+03   -0.31263880E-12    0.98441583E-07
    9   -0.19434026E+03   -0.56843419E-13    0.22482187E-07
   10   -0.19434026E+03    0.28421709E-13    0.26445162E-08

Total Energy:                     -192.3757801008 H        -5234.8113 eV
Extrapolated to 0K:               -192.3757801008 H        -5234.8113 eV
Total Mermin free energy:         -192.3757801008 H        -5234.8113 eV
Force related energy:             -192.3757801008 H        -5234.8113 eV

Volume:                              0.100581E+05 au^3   0.149046E+04 A^3
Pressure:                            0.212768E-05 au     0.625986E+08 Pa
>> Charges saved for restart in charges.bin

total energy  -1.9237578E+02 H       energy change -1.0867781E-04 H
gradient norm  8.0095243E-03 H/a0    max. gradient  1.5399337E-03 H/a0
step length    5.6058722E-02 a0      max. step      1.1386113E-02 a0

--------------------------------------------------------------------------------

***  Geometry step: 40

 iSCC Total electronic   Diff electronic      SCC error    
    1   -0.19434026E+03    0.00000000E+00    0.13076014E-02
    2   -0.19434216E+03   -0.19045537E-02    0.65331947E-03
    3   -0.19434217E+03   -0.16285752E-05    0.19772804E-03
    4   -0.19434217E+03   -0.34980559E-06    0.27754628E-04
    5   -0.19434217E+03   -0.74033153E-08    0.39936067E-05
    6   -0.19434217E+03   -0.71139539E-09    0.96177955E-06
    7   -0.19434217E+03   -0.19213076E-10    0.32102387E-06
    8   -0.19434217E+03   -0.25579538E-12    0.78985072E-07
    9   -0.19434217E+03   -0.85265128E-13    0.19293020E-07
   10   -0.19434217E+03    0.28421709E-13    0.28944056E-08

Total Energy:                     -192.3758821582 H        -5234.8141 eV
Extrapolated to 0K:               -192.3758821582 H        -5234.8141 eV
Total Mermin free energy:         -192.3758821582 H        -5234.8141 eV
Force related energy:             -192.3758821582 H        -5234.8141 eV

Volume:                              0.100606E+05 au^3   0.149082E+04 A^3
Pressure:                            0.238120E-05 au     0.700573E+08 Pa
>> Charges saved for restart in charges.bin

total energy  -1.9237588E+02 H       energy change -1.0205742E-04 H
gradient norm  8.6896037E-03 H/a0    max. gradient  1.7902177E-03 H/a0
step length    5.8240830E-02 a0      max. step      1.1444816E-02 a0

--------------------------------------------------------------------------------

***  Geometry step: 41

 iSCC Total electronic   Diff electronic      SCC error    
    1   -0.19434217E+03    0.00000000E+00    0.15070468E-02
    2   -0.19434470E+03   -0.25283014E-02    0.88627051E-03
    3   -0.19434470E+03   -0.18016266E-05    0.21583970E-03
    4   -0.19434470E+03   -0.39491707E-06    0.34663958E-04
    5   -0.19434470E+03   -0.98366115E-08    0.77136444E-05
    6   -0.19434470E+03   -0.80012796E-09    0.12901195E-05
    7   -0.19434470E+03   -0.20918378E-10    0.40112619E-06
    8   -0.19434470E+03   -0.48316906E-12    0.13233349E-06
    9   -0.19434470E+03   -0.85265128E-13    0.23057667E-07
   10   -0.19434470E+03    0.28421709E-13    0.24002134E-08

Total Energy:                     -192.3759842341 H        -5234.8169 eV
Extrapolated to 0K:               -192.3759842341 H        -5234.8169 eV
Total Mermin free energy:         -192.3759842341 H        -5234.8169 eV
Force related energy:             -192.3759842341 H        -5234.8169 eV

Volume:                              0.100640E+05 au^3   0.149133E+04 A^3
Pressure:                            0.280297E-05 au     0.824663E+08 Pa
>> Charges saved for restart in charges.bin

total energy  -1.9237598E+02 H       energy change -1.0207584E-04 H
gradient norm  8.0570037E-03 H/a0    max. gradient  1.6172647E-03 H/a0
step length    6.6246672E-02 a0      max. step      1.2725275E-02 a0

--------------------------------------------------------------------------------

***  Geometry step: 42

 iSCC Total electronic   Diff electronic      SCC error    
    1   -0.19434470E+03    0.00000000E+00    0.14297375E-02
    2   -0.19434623E+03   -0.15368161E-02    0.85586768E-03
    3   -0.19434624E+03   -0.13548160E-05    0.21242981E-03
    4   -0.19434624E+03   -0.28634693E-06    0.29158690E-04
    5   -0.19434624E+03   -0.72710122E-08    0.70604814E-05
    6   -0.19434624E+03   -0.52065730E-09    0.11831492E-05
    7   -0.19434624E+03   -0.11141310E-10    0.30206448E-06
    8   -0.19434624E+03   -0.31263880E-12    0.11839339E-06
    9   -0.19434624E+03   -0.11368684E-12    0.25014731E-07
   10   -0.19434624E+03   -0.11368684E-12    0.20129534E-08

Total Energy:                     -192.3760715595 H        -5234.8193 eV
Extrapolated to 0K:               -192.3760715595 H        -5234.8193 eV
Total Mermin free energy:         -192.3760715595 H        -5234.8193 eV
Force related energy:             -192.3760715595 H        -5234.8193 eV

Volume:                              0.100683E+05 au^3   0.149197E+04 A^3
Pressure:                            0.295651E-05 au     0.869834E+08 Pa
>> Charges saved for restart in charges.bin

total energy  -1.9237607E+02 H       energy change -8.7325471E-05 H
gradient norm  6.8794230E-03 H/a0    max. gradient  1.3986520E-03 H/a0
step length    6.4665213E-02 a0      max. step      1.2506067E-02 a0

--------------------------------------------------------------------------------

***  Geometry step: 43

 iSCC Total electronic   Diff electronic      SCC error    
    1   -0.19434624E+03    0.00000000E+00    0.10974528E-02
    2   -0.19434648E+03   -0.24193753E-03    0.57397277E-03
    3   -0.19434648E+03   -0.12236235E-05    0.17780414E-03
    4   -0.19434648E+03   -0.24944808E-06    0.30338686E-04
    5   -0.19434648E+03   -0.48548259E-08    0.63234795E-05
    6   -0.19434648E+03   -0.41538328E-09    0.11875930E-05
    7   -0.19434648E+03   -0.67643668E-11    0.19923839E-06
    8   -0.19434648E+03   -0.28421709E-12    0.79255877E-07
    9   -0.19434648E+03    0.00000000E+00    0.19058756E-07
   10   -0.19434648E+03   -0.56843419E-13    0.18166828E-08

Total Energy:                     -192.3761538534 H        -5234.8215 eV
Extrapolated to 0K:               -192.3761538534 H        -5234.8215 eV
Total Mermin free energy:         -192.3761538534 H        -5234.8215 eV
Force related energy:             -192.3761538534 H        -5234.8215 eV

Volume:                              0.100733E+05 au^3   0.149271E+04 A^3
Pressure:                            0.266385E-05 au     0.783732E+08 Pa
>> Charges saved for restart in charges.bin

total energy  -1.9237615E+02 H       energy change -8.2293886E-05 H
gradient norm  7.0129980E-03 H/a0    max. gradient  1.9986649E-03 H/a0
step length    6.1330551E-02 a0      max. step      1.2453174E-02 a0

--------------------------------------------------------------------------------

***  Geometry step: 44

 iSCC Total electronic   Diff electronic      SCC error    
    1   -0.19434648E+03    0.00000000E+00    0.15883111E-02
    2   -0.19434570E+03    0.78281621E-03    0.64992508E-03
    3   -0.19434570E+03   -0.14559740E-05    0.19498937E-03
    4   -0.19434570E+03   -0.31071002E-06    0.29555873E-04
    5   -0.19434570E+03   -0.40203645E-08    0.36893206E-05
    6   -0.19434570E+03   -0.42754777E-09    0.95097702E-06
    7   -0.19434570E+03   -0.69633188E-11    0.20816908E-06
    8   -0.19434570E+03   -0.85265128E-13    0.44861157E-07
    9   -0.19434570E+03    0.85265128E-13    0.96538249E-08

Total Energy:                     -192.3762445413 H        -5234.8240 eV
Extrapolated to 0K:               -192.3762445413 H        -5234.8240 eV
Total Mermin free energy:         -192.3762445413 H        -5234.8240 eV
Force related energy:             -192.3762445413 H        -5234.8240 eV

Volume:                              0.100791E+05 au^3   0.149357E+04 A^3
Pressure:                            0.206290E-05 au     0.606927E+08 Pa
>> Charges saved for restart in charges.bin

total energy  -1.9237624E+02 H       energy change -9.0687879E-05 H
gradient norm  8.2655690E-03 H/a0    max. gradient  2.2617528E-03 H/a0
step length    6.7975867E-02 a0      max. step      1.4880925E-02 a0

--------------------------------------------------------------------------------

***  Geometry step: 45

 iSCC Total electronic   Diff electronic      SCC error    
    1   -0.19434570E+03    0.00000000E+00    0.13469296E-02
    2   -0.19434403E+03    0.16695029E-02    0.55161721E-03
    3   -0.19434403E+03   -0.13199903E-05    0.15604242E-03
    4   -0.19434403E+03   -0.30023642E-06    0.25033970E-04
    5   -0.19434403E+03   -0.37473171E-08    0.35112601E-05
    6   -0.19434403E+03   -0.37837822E-09    0.73235270E-06
    7   -0.19434403E+03   -0.80717655E-11    0.19135464E-06
    8   -0.19434403E+03   -0.85265128E-13    0.51244263E-07
    9   -0.19434403E+03   -0.56843419E-13    0.14099146E-07
   10   -0.19434403E+03   -0.85265128E-13    0.21867037E-08

Total Energy:                     -192.3763410390 H        -5234.8266 eV
Extrapolated to 0K:               -192.3763410390 H        -5234.8266 eV
Total Mermin free energy:         -192.3763410390 H        -5234.8266 eV
Force related energy:             -192.3763410390 H        -5234.8266 eV

Volume:                              0.100856E+05 au^3   0.149453E+04 A^3
Pressure:                            0.105335E-05 au     0.309907E+08 Pa
>> Charges saved for restart in charges.bin

total energy  -1.9237634E+02 H       energy change -9.6497695E-05 H
gradient norm  8.3729575E-03 H/a0    max. gradient  1.7309019E-03 H/a0
step length    7.2406999E-02 a0      max. step      1.6618707E-02 a0

--------------------------------------------------------------------------------

***  Geometry step: 46

 iSCC Total electronic   Diff electronic      SCC error    
    1   -0.19434403E+03    0.00000000E+00    0.12814615E-02
    2   -0.19434280E+03    0.12275199E-02    0.54296735E-03
    3   -0.19434280E+03   -0.15405884E-05    0.13851038E-03
    4   -0.19434280E+03   -0.36798369E-06    0.22616350E-04
    5   -0.19434280E+03   -0.45143906E-08    0.60902843E-05
    6   -0.19434280E+03   -0.30979663E-09    0.11224571E-05
    7   -0.19434280E+03   -0.94644292E-11    0.25222412E-06
    8   -0.19434280E+03   -0.36948222E-12    0.71125218E-07
    9   -0.19434280E+03    0.85265128E-13    0.14291154E-07
   10   -0.19434280E+03   -0.56843419E-13    0.12809815E-08

Total Energy:                     -192.3764400748 H        -5234.8293 eV
Extrapolated to 0K:               -192.3764400748 H        -5234.8293 eV
Total Mermin free energy:         -192.3764400748 H        -5234.8293 eV
Force related energy:             -192.3764400748 H        -5234.8293 eV

Volume:                              0.100918E+05 au^3   0.149545E+04 A^3
Pressure:                            0.692687E-07 au     0.203796E+07 Pa
>> Charges saved for restart in charges.bin

total energy  -1.9237644E+02 H       energy change -9.9035834E-05 H
gradient norm  7.3161914E-03 H/a0    max. gradient  1.7618989E-03 H/a0
step length    7.7776603E-02 a0      max. step      1.8476416E-02 a0

--------------------------------------------------------------------------------

***  Geometry step: 47

 iSCC Total electronic   Diff electronic      SCC error    
    1   -0.19434280E+03    0.00000000E+00    0.13650482E-02
    2   -0.19434346E+03   -0.65896759E-03    0.57530151E-03
    3   -0.19434346E+03   -0.10792892E-05    0.13654371E-03
    4   -0.19434346E+03   -0.25360688E-06    0.17430840E-04
    5   -0.19434346E+03   -0.33544438E-08    0.50159542E-05
    6   -0.19434346E+03   -0.15728574E-09    0.81731084E-06
    7   -0.19434346E+03   -0.50022209E-11    0.16193990E-06
    8   -0.19434346E+03   -0.28421709E-12    0.57968516E-07
    9   -0.19434346E+03   -0.28421709E-13    0.10181603E-07
   10   -0.19434346E+03    0.28421709E-13    0.10248673E-08

Total Energy:                     -192.3765199873 H        -5234.8315 eV
Extrapolated to 0K:               -192.3765199873 H        -5234.8315 eV
Total Mermin free energy:         -192.3765199873 H        -5234.8315 eV
Force related energy:             -192.3765199873 H        -5234.8315 eV

Volume:                              0.100952E+05 au^3   0.149596E+04 A^3
Pressure:                           -0.727416E-07 au    -0.214013E+07 Pa
>> Charges saved for restart in charges.bin

total energy  -1.9237652E+02 H       energy change -7.9912428E-05 H
gradient norm  6.6869883E-03 H/a0    max. gradient  1.2317596E-03 H/a0
step length    6.2345937E-02 a0      max. step      1.5123265E-02 a0

--------------------------------------------------------------------------------

***  Geometry step: 48

 iSCC Total electronic   Diff electronic      SCC error    
    1   -0.19434346E+03    0.00000000E+00    0.14701154E-02
    2   -0.19434541E+03   -0.19498187E-02    0.64020662E-03
    3   -0.19434542E+03   -0.14880851E-05    0.12269575E-03
    4   -0.19434542E+03   -0.32885075E-06    0.16427590E-04
    5   -0.19434542E+03   -0.40258499E-08    0.49074881E-05
    6   -0.19434542E+03   -0.22583890E-09    0.93247727E-06
    7   -0.19434542E+03   -0.46895821E-11    0.18500078E-06
    8   -0.19434542E+03   -0.17053026E-12    0.59171975E-07
    9   -0.19434542E+03    0.00000000E+00    0.96712496E-08

Total Energy:                     -192.3766037295 H        -5234.8337 eV
Extrapolated to 0K:               -192.3766037295 H        -5234.8337 eV
Total Mermin free energy:         -192.3766037295 H        -5234.8337 eV
Force related energy:             -192.3766037295 H        -5234.8337 eV

Volume:                              0.100978E+05 au^3   0.149634E+04 A^3
Pressure:                            0.146893E-06 au     0.432175E+07 Pa
>> Charges saved for restart in charges.bin

total energy  -1.9237660E+02 H       energy change -8.3742260E-05 H
gradient norm  7.3936021E-03 H/a0    max. gradient  1.7341301E-03 H/a0
step length    6.7715424E-02 a0      max. step      1.6251498E-02 a0

--------------------------------------------------------------------------------

***  Geometry step: 49

 iSCC Total electronic   Diff electronic      SCC error    
    1   -0.19434542E+03    0.00000000E+00    0.18629085E-02
    2   -0.19434825E+03   -0.28321010E-02    0.81939123E-03
    3   -0.19434825E+03   -0.14048416E-05    0.14384743E-03
    4   -0.19434825E+03   -0.30997995E-06    0.17880184E-04
    5   -0.19434825E+03   -0.47531898E-08    0.41092567E-05
    6   -0.19434825E+03   -0.32429170E-09    0.91169208E-06
    7   -0.19434825E+03   -0.53148597E-11    0.23358734E-06
    8   -0.19434825E+03   -0.85265128E-13    0.62048333E-07
    9   -0.19434825E+03   -0.11368684E-12    0.13129361E-07
   10   -0.19434825E+03    0.28421709E-13    0.16287505E-08

Total Energy:                     -192.3766884095 H        -5234.8360 eV
Extrapolated to 0K:               -192.3766884095 H        -5234.8360 eV
Total Mermin free energy:         -192.3766884095 H        -5234.8360 eV
Force related energy:             -192.3766884095 H        -5234.8360 eV

Volume:                              0.100998E+05 au^3   0.149664E+04 A^3
Pressure:                            0.812900E-06 au     0.239163E+08 Pa
>> Charges saved for restart in charges.bin

total energy  -1.9237669E+02 H       energy change -8.4679940E-05 H
gradient norm  7.9279516E-03 H/a0    max. gradient  1.8482997E-03 H/a0
step length    7.0546422E-02 a0      max. step      1.6614131E-02 a0

--------------------------------------------------------------------------------

***  Geometry step: 50

 iSCC Total electronic   Diff electronic      SCC error    
    1   -0.19434825E+03    0.00000000E+00    0.21008684E-02
    2   -0.19435083E+03   -0.25747363E-02    0.92120758E-03
    3   -0.19435083E+03   -0.16139187E-05    0.17839202E-03
    4   -0.19435083E+03   -0.35626263E-06    0.21385384E-04
    5   -0.19435083E+03   -0.63778600E-08    0.48588862E-05
    6   -0.19435083E+03   -0.46728132E-09    0.12134742E-05
    7   -0.19435083E+03   -0.53432814E-11    0.25597389E-06
    8   -0.19435083E+03   -0.19895197E-12    0.64108534E-07
    9   -0.19435083E+03   -0.56843419E-13    0.16059146E-07
   10   -0.19435083E+03    0.28421709E-13    0.21145632E-08

Total Energy:                     -192.3767806470 H        -5234.8385 eV
Extrapolated to 0K:               -192.3767806470 H        -5234.8385 eV
Total Mermin free energy:         -192.3767806470 H        -5234.8385 eV
Force related energy:             -192.3767806470 H        -5234.8385 eV

Volume:                              0.101026E+05 au^3   0.149705E+04 A^3
Pressure:                            0.140677E-05 au     0.413887E+08 Pa
>> Charges saved for restart in charges.bin

total energy  -1.9237678E+02 H       energy change -9.2237514E-05 H
gradient norm  7.4592850E-03 H/a0    max. gradient  1.6289362E-03 H/a0
step length    8.6195779E-02 a0      max. step      1.9928000E-02 a0

--------------------------------------------------------------------------------

***  Geometry step: 51

 iSCC Total electronic   Diff electronic      SCC error    
    1   -0.19435083E+03    0.00000000E+00    0.13708673E-02
    2   -0.19435197E+03   -0.11429937E-02    0.61357102E-03
    3   -0.19435197E+03   -0.14159473E-05    0.14663740E-03
    4   -0.19435197E+03   -0.31594607E-06    0.20261300E-04
    5   -0.19435197E+03   -0.50623044E-08    0.44950029E-05
    6   -0.19435197E+03   -0.35231551E-09    0.10893519E-05
    7   -0.19435197E+03   -0.38369308E-11    0.27005376E-06
    8   -0.19435197E+03   -0.11368684E-12    0.58194844E-07
    9   -0.19435197E+03    0.00000000E+00    0.11246367E-07
   10   -0.19435197E+03   -0.56843419E-13    0.14283850E-08

Total Energy:                     -192.3768621094 H        -5234.8408 eV
Extrapolated to 0K:               -192.3768621094 H        -5234.8408 eV
Total Mermin free energy:         -192.3768621094 H        -5234.8408 eV
Force related energy:             -192.3768621094 H        -5234.8408 eV

Volume:                              0.101052E+05 au^3   0.149744E+04 A^3
Pressure:                            0.153166E-05 au     0.450629E+08 Pa
>> Charges saved for restart in charges.bin

total energy  -1.9237686E+02 H       energy change -8.1462397E-05 H
gradient norm  6.6061157E-03 H/a0    max. gradient  1.4475286E-03 H/a0
step length    7.8227332E-02 a0      max. step      1.7968018E-02 a0

--------------------------------------------------------------------------------

***  Geometry step: 52

 iSCC Total electronic   Diff electronic      SCC error    
    1   -0.19435197E+03    0.00000000E+00    0.11013468E-02
[...]
Extrapolated to 0K:               -192.3779182692 H        -5234.8695 eV
Total Mermin free energy:         -192.3779182692 H        -5234.8695 eV
Force related energy:             -192.3779182692 H        -5234.8695 eV

Volume:                              0.101348E+05 au^3   0.150182E+04 A^3
Pressure:                           -0.279769E-06 au    -0.823107E+07 Pa
>> Charges saved for restart in charges.bin

total energy  -1.9237792E+02 H       energy change -1.7712628E-06 H
gradient norm  1.0258955E-03 H/a0    max. gradient  2.0398218E-04 H/a0
step length    8.1094246E-03 a0      max. step      1.8347332E-03 a0

--------------------------------------------------------------------------------

***  Geometry step: 107

 iSCC Total electronic   Diff electronic      SCC error    
    1   -0.19435628E+03    0.00000000E+00    0.14216911E-03
    2   -0.19435652E+03   -0.23849181E-03    0.77113499E-04
    3   -0.19435652E+03   -0.18040424E-07    0.25914940E-04
    4   -0.19435652E+03   -0.37638586E-08    0.39344859E-05
    5   -0.19435652E+03   -0.48260063E-10    0.38981228E-06
    6   -0.19435652E+03   -0.45758952E-11    0.78400767E-07
    7   -0.19435652E+03   -0.28421709E-13    0.16249155E-07
    8   -0.19435652E+03   -0.85265128E-13    0.26984961E-08

Total Energy:                     -192.3779195654 H        -5234.8695 eV
Extrapolated to 0K:               -192.3779195654 H        -5234.8695 eV
Total Mermin free energy:         -192.3779195654 H        -5234.8695 eV
Force related energy:             -192.3779195654 H        -5234.8695 eV

Volume:                              0.101347E+05 au^3   0.150181E+04 A^3
Pressure:                           -0.212350E-06 au    -0.624754E+07 Pa
>> Charges saved for restart in charges.bin

total energy  -1.9237792E+02 H       energy change -1.2962253E-06 H
gradient norm  8.6318003E-04 H/a0    max. gradient  2.0165777E-04 H/a0
step length    5.8355045E-03 a0      max. step      1.1194052E-03 a0

--------------------------------------------------------------------------------

***  Geometry step: 108

 iSCC Total electronic   Diff electronic      SCC error    
    1   -0.19435652E+03    0.00000000E+00    0.21087596E-03
    2   -0.19435689E+03   -0.36820121E-03    0.13072515E-03
    3   -0.19435689E+03   -0.49131899E-07    0.42949384E-04
    4   -0.19435689E+03   -0.10826199E-07    0.56785612E-05
    5   -0.19435689E+03   -0.12423129E-09    0.53612639E-06
    6   -0.19435689E+03   -0.11368684E-10    0.14534963E-06
    7   -0.19435689E+03   -0.28421709E-12    0.22870313E-07
    8   -0.19435689E+03    0.85265128E-13    0.67973915E-08

Total Energy:                     -192.3779212764 H        -5234.8696 eV
Extrapolated to 0K:               -192.3779212764 H        -5234.8696 eV
Total Mermin free energy:         -192.3779212764 H        -5234.8696 eV
Force related energy:             -192.3779212764 H        -5234.8696 eV

Volume:                              0.101347E+05 au^3   0.150181E+04 A^3
Pressure:                           -0.136436E-06 au    -0.401409E+07 Pa
>> Charges saved for restart in charges.bin

total energy  -1.9237792E+02 H       energy change -1.7109537E-06 H
gradient norm  8.0339766E-04 H/a0    max. gradient  1.4822739E-04 H/a0
step length    8.9461798E-03 a0      max. step      1.9306876E-03 a0

--------------------------------------------------------------------------------

***  Geometry step: 109

 iSCC Total electronic   Diff electronic      SCC error    
    1   -0.19435689E+03    0.00000000E+00    0.11744926E-03
    2   -0.19435700E+03   -0.11455542E-03    0.50715149E-04
    3   -0.19435700E+03   -0.12283380E-07    0.17699369E-04
    4   -0.19435700E+03   -0.28338150E-08    0.22107091E-05
    5   -0.19435700E+03   -0.43769433E-10    0.46074928E-06
    6   -0.19435700E+03   -0.37516656E-11    0.10277860E-06
    7   -0.19435700E+03   -0.28421709E-13    0.14210760E-07
    8   -0.19435700E+03    0.28421709E-13    0.22104123E-08

Total Energy:                     -192.3779223164 H        -5234.8696 eV
Extrapolated to 0K:               -192.3779223164 H        -5234.8696 eV
Total Mermin free energy:         -192.3779223164 H        -5234.8696 eV
Force related energy:             -192.3779223164 H        -5234.8696 eV

Volume:                              0.101346E+05 au^3   0.150180E+04 A^3
Pressure:                           -0.978659E-07 au    -0.287931E+07 Pa
>> Charges saved for restart in charges.bin

total energy  -1.9237792E+02 H       energy change -1.0399996E-06 H
gradient norm  7.7807483E-04 H/a0    max. gradient  1.6561488E-04 H/a0
step length    2.8000057E-03 a0      max. step      6.7156615E-04 a0

--------------------------------------------------------------------------------

***  Geometry step: 110

 iSCC Total electronic   Diff electronic      SCC error    
    1   -0.19435700E+03    0.00000000E+00    0.20657917E-03
    2   -0.19435716E+03   -0.15780317E-03    0.11103715E-03
    3   -0.19435716E+03   -0.42130210E-07    0.37921266E-04
    4   -0.19435716E+03   -0.84945384E-08    0.36577720E-05
    5   -0.19435716E+03   -0.17294610E-09    0.79459772E-06
    6   -0.19435716E+03   -0.14210855E-10    0.15102042E-06
    7   -0.19435716E+03   -0.34106051E-12    0.16878916E-07
    8   -0.19435716E+03    0.28421709E-13    0.61439609E-08

Total Energy:                     -192.3779238405 H        -5234.8697 eV
Extrapolated to 0K:               -192.3779238405 H        -5234.8697 eV
Total Mermin free energy:         -192.3779238405 H        -5234.8697 eV
Force related energy:             -192.3779238405 H        -5234.8697 eV

Volume:                              0.101344E+05 au^3   0.150176E+04 A^3
Pressure:                           -0.231824E-07 au    -0.682050E+06 Pa
>> Charges saved for restart in charges.bin

total energy  -1.9237792E+02 H       energy change -1.5241629E-06 H
gradient norm  9.2514270E-04 H/a0    max. gradient  3.2159555E-04 H/a0
step length    6.6550639E-03 a0      max. step      1.6916752E-03 a0

--------------------------------------------------------------------------------

***  Geometry step: 111

 iSCC Total electronic   Diff electronic      SCC error    
    1   -0.19435716E+03    0.00000000E+00    0.22320652E-03
    2   -0.19435733E+03   -0.17386606E-03    0.90091330E-04
    3   -0.19435733E+03   -0.57478843E-07    0.21610950E-04
    4   -0.19435733E+03   -0.95788550E-08    0.35207572E-05
    5   -0.19435733E+03   -0.79808160E-10    0.69597721E-06
    6   -0.19435733E+03   -0.60822458E-11    0.13974520E-06
    7   -0.19435733E+03   -0.19895197E-12    0.13436893E-07
    8   -0.19435733E+03    0.00000000E+00    0.44071440E-08

Total Energy:                     -192.3779250111 H        -5234.8697 eV
Extrapolated to 0K:               -192.3779250111 H        -5234.8697 eV
Total Mermin free energy:         -192.3779250111 H        -5234.8697 eV
Force related energy:             -192.3779250111 H        -5234.8697 eV

Volume:                              0.101346E+05 au^3   0.150180E+04 A^3
Pressure:                           -0.323981E-07 au    -0.953183E+06 Pa
>> Charges saved for restart in charges.bin

total energy  -1.9237793E+02 H       energy change -1.1706030E-06 H
gradient norm  7.3637138E-04 H/a0    max. gradient  1.5840485E-04 H/a0
step length    1.3803018E-02 a0      max. step      3.4082202E-03 a0

--------------------------------------------------------------------------------

***  Geometry step: 112

 iSCC Total electronic   Diff electronic      SCC error    
    1   -0.19435733E+03    0.00000000E+00    0.11809917E-03
    2   -0.19435731E+03    0.26547636E-04    0.49809079E-04
    3   -0.19435731E+03   -0.14631837E-07    0.12065397E-04
    4   -0.19435731E+03   -0.28792329E-08    0.29963269E-05
    5   -0.19435731E+03   -0.30638603E-10    0.33618155E-06
    6   -0.19435731E+03   -0.23590019E-11    0.10188811E-06
    7   -0.19435731E+03    0.00000000E+00    0.87060430E-08

Total Energy:                     -192.3779257055 H        -5234.8697 eV
Extrapolated to 0K:               -192.3779257055 H        -5234.8697 eV
Total Mermin free energy:         -192.3779257055 H        -5234.8697 eV
Force related energy:             -192.3779257055 H        -5234.8697 eV

Volume:                              0.101347E+05 au^3   0.150181E+04 A^3
Pressure:                           -0.406872E-07 au    -0.119706E+07 Pa
>> Charges saved for restart in charges.bin

total energy  -1.9237793E+02 H       energy change -6.9437590E-07 H
gradient norm  6.1132443E-04 H/a0    max. gradient  1.3767653E-04 H/a0
step length    3.9827520E-03 a0      max. step      9.6125200E-04 a0

--------------------------------------------------------------------------------

***  Geometry step: 113

 iSCC Total electronic   Diff electronic      SCC error    
    1   -0.19435731E+03    0.00000000E+00    0.14828423E-03
    2   -0.19435732E+03   -0.10535331E-04    0.64733169E-04
    3   -0.19435732E+03   -0.25335964E-07    0.20203161E-04
    4   -0.19435732E+03   -0.54618567E-08    0.38310739E-05
    5   -0.19435732E+03   -0.64630967E-10    0.45331814E-06
    6   -0.19435732E+03   -0.68780537E-11    0.86446916E-07
    7   -0.19435732E+03   -0.85265128E-13    0.15408774E-07
    8   -0.19435732E+03   -0.14210855E-12    0.30671696E-08

Total Energy:                     -192.3779264553 H        -5234.8697 eV
Extrapolated to 0K:               -192.3779264553 H        -5234.8697 eV
Total Mermin free energy:         -192.3779264553 H        -5234.8697 eV
Force related energy:             -192.3779264553 H        -5234.8697 eV

Volume:                              0.101348E+05 au^3   0.150182E+04 A^3
Pressure:                           -0.587925E-07 au    -0.172973E+07 Pa
>> Charges saved for restart in charges.bin

total energy  -1.9237793E+02 H       energy change -7.4976882E-07 H
gradient norm  6.2013233E-04 H/a0    max. gradient  1.6582587E-04 H/a0
step length    4.6210011E-03 a0      max. step      1.3161292E-03 a0

--------------------------------------------------------------------------------

***  Geometry step: 114

 iSCC Total electronic   Diff electronic      SCC error    
    1   -0.19435732E+03    0.00000000E+00    0.10407335E-03
    2   -0.19435728E+03    0.42577411E-04    0.65913675E-04
    3   -0.19435728E+03   -0.77096161E-08    0.19854118E-04
    4   -0.19435728E+03   -0.19221034E-08    0.14216665E-05
    5   -0.19435728E+03   -0.30098590E-10    0.22767183E-06
    6   -0.19435728E+03   -0.18189894E-11    0.52275441E-07
    7   -0.19435728E+03    0.00000000E+00    0.85329930E-08

Total Energy:                     -192.3779269846 H        -5234.8697 eV
Extrapolated to 0K:               -192.3779269846 H        -5234.8697 eV
Total Mermin free energy:         -192.3779269846 H        -5234.8697 eV
Force related energy:             -192.3779269846 H        -5234.8697 eV

Volume:                              0.101349E+05 au^3   0.150183E+04 A^3
Pressure:                           -0.579612E-07 au    -0.170528E+07 Pa
>> Charges saved for restart in charges.bin

total energy  -1.9237793E+02 H       energy change -5.2934780E-07 H
gradient norm  5.9783597E-04 H/a0    max. gradient  1.5527398E-04 H/a0
step length    1.7981486E-03 a0      max. step      3.6198846E-04 a0

--------------------------------------------------------------------------------

***  Geometry step: 115

 iSCC Total electronic   Diff electronic      SCC error    
    1   -0.19435728E+03    0.00000000E+00    0.15287712E-03
    2   -0.19435721E+03    0.65021711E-04    0.96148581E-04
    3   -0.19435721E+03   -0.12252798E-07    0.28397372E-04
    4   -0.19435721E+03   -0.27082763E-08    0.25986250E-05
    5   -0.19435721E+03   -0.77506002E-10    0.24306677E-06
    6   -0.19435721E+03   -0.42916781E-11    0.61330591E-07
    7   -0.19435721E+03   -0.85265128E-13    0.10485269E-07
    8   -0.19435721E+03    0.56843419E-13    0.23322730E-08

Total Energy:                     -192.3779277604 H        -5234.8698 eV
Extrapolated to 0K:               -192.3779277604 H        -5234.8698 eV
Total Mermin free energy:         -192.3779277604 H        -5234.8698 eV
Force related energy:             -192.3779277604 H        -5234.8698 eV

Volume:                              0.101350E+05 au^3   0.150185E+04 A^3
Pressure:                           -0.980715E-07 au    -0.288536E+07 Pa
>> Charges saved for restart in charges.bin

total energy  -1.9237793E+02 H       energy change -7.7578636E-07 H
gradient norm  5.7476406E-04 H/a0    max. gradient  1.3745634E-04 H/a0
step length    4.1542985E-03 a0      max. step      9.1950648E-04 a0

--------------------------------------------------------------------------------

***  Geometry step: 116

 iSCC Total electronic   Diff electronic      SCC error    
    1   -0.19435721E+03    0.00000000E+00    0.97039762E-04
    2   -0.19435720E+03    0.55654201E-05    0.51940139E-04
    3   -0.19435720E+03   -0.11296493E-07    0.19156527E-04
    4   -0.19435720E+03   -0.20651498E-08    0.34754885E-05
    5   -0.19435720E+03   -0.31320724E-10    0.24431826E-06
    6   -0.19435720E+03   -0.27569058E-11    0.80782466E-07
    7   -0.19435720E+03   -0.85265128E-13    0.88704448E-08

Total Energy:                     -192.3779284711 H        -5234.8698 eV
Extrapolated to 0K:               -192.3779284711 H        -5234.8698 eV
Total Mermin free energy:         -192.3779284711 H        -5234.8698 eV
Force related energy:             -192.3779284711 H        -5234.8698 eV

Volume:                              0.101351E+05 au^3   0.150187E+04 A^3
Pressure:                           -0.108249E-06 au    -0.318478E+07 Pa
>> Charges saved for restart in charges.bin

total energy  -1.9237793E+02 H       energy change -7.1068590E-07 H
gradient norm  5.9947236E-04 H/a0    max. gradient  1.3331426E-04 H/a0
step length    7.1074183E-03 a0      max. step      1.7620954E-03 a0

--------------------------------------------------------------------------------

***  Geometry step: 117

 iSCC Total electronic   Diff electronic      SCC error    
    1   -0.19435720E+03    0.00000000E+00    0.13724033E-03
    2   -0.19435725E+03   -0.43659148E-04    0.53173140E-04
    3   -0.19435725E+03   -0.13280527E-07    0.11569263E-04
    4   -0.19435725E+03   -0.24140547E-08    0.27611922E-05
    5   -0.19435725E+03   -0.33594461E-10    0.24935882E-06
    6   -0.19435725E+03   -0.20747848E-11    0.58803557E-07
    7   -0.19435725E+03   -0.56843419E-13    0.90588501E-08

Total Energy:                     -192.3779291342 H        -5234.8698 eV
Extrapolated to 0K:               -192.3779291342 H        -5234.8698 eV
Total Mermin free energy:         -192.3779291342 H        -5234.8698 eV
Force related energy:             -192.3779291342 H        -5234.8698 eV

Volume:                              0.101352E+05 au^3   0.150188E+04 A^3
Pressure:                           -0.100232E-06 au    -0.294892E+07 Pa
>> Charges saved for restart in charges.bin

total energy  -1.9237793E+02 H       energy change -6.6309931E-07 H
gradient norm  6.4494369E-04 H/a0    max. gradient  1.7301379E-04 H/a0
step length    7.2126823E-03 a0      max. step      2.0574486E-03 a0

--------------------------------------------------------------------------------

***  Geometry step: 118

 iSCC Total electronic   Diff electronic      SCC error    
    1   -0.19435725E+03    0.00000000E+00    0.13746438E-03
    2   -0.19435732E+03   -0.71559562E-04    0.55918429E-04
    3   -0.19435732E+03   -0.17271446E-07    0.14917236E-04
    4   -0.19435732E+03   -0.37123016E-08    0.25560653E-05
    5   -0.19435732E+03   -0.45019988E-10    0.35836568E-06
    6   -0.19435732E+03   -0.43769433E-11    0.93483589E-07
    7   -0.19435732E+03   -0.56843419E-13    0.13374087E-07
    8   -0.19435732E+03    0.00000000E+00    0.31979468E-08

Total Energy:                     -192.3779297911 H        -5234.8698 eV
Extrapolated to 0K:               -192.3779297911 H        -5234.8698 eV
Total Mermin free energy:         -192.3779297911 H        -5234.8698 eV
Force related energy:             -192.3779297911 H        -5234.8698 eV

Volume:                              0.101352E+05 au^3   0.150188E+04 A^3
Pressure:                           -0.980384E-07 au    -0.288439E+07 Pa
>> Charges saved for restart in charges.bin

total energy  -1.9237793E+02 H       energy change -6.5689491E-07 H
gradient norm  6.2729128E-04 H/a0    max. gradient  1.8398610E-04 H/a0
step length    7.0369436E-03 a0      max. step      2.0090666E-03 a0

--------------------------------------------------------------------------------

***  Geometry step: 119

 iSCC Total electronic   Diff electronic      SCC error    
    1   -0.19435732E+03    0.00000000E+00    0.74787128E-04
    2   -0.19435736E+03   -0.38164389E-04    0.40454038E-04
    3   -0.19435736E+03   -0.69062480E-08    0.11260611E-04
    4   -0.19435736E+03   -0.16119657E-08    0.12883473E-05
    5   -0.19435736E+03   -0.24613200E-10    0.39421802E-06
    6   -0.19435736E+03   -0.18758328E-11    0.44971806E-07
    7   -0.19435736E+03   -0.11368684E-12    0.68730093E-08

Total Energy:                     -192.3779303371 H        -5234.8698 eV
Extrapolated to 0K:               -192.3779303371 H        -5234.8698 eV
Total Mermin free energy:         -192.3779303371 H        -5234.8698 eV
Force related energy:             -192.3779303371 H        -5234.8698 eV

Volume:                              0.101352E+05 au^3   0.150188E+04 A^3
Pressure:                           -0.800768E-07 au    -0.235594E+07 Pa
>> Charges saved for restart in charges.bin

total energy  -1.9237793E+02 H       energy change -5.4604871E-07 H
gradient norm  5.6909057E-04 H/a0    max. gradient  1.6849129E-04 H/a0
step length    1.9601230E-03 a0      max. step      3.8832313E-04 a0

--------------------------------------------------------------------------------

***  Geometry step: 120

 iSCC Total electronic   Diff electronic      SCC error    
    1   -0.19435736E+03    0.00000000E+00    0.11278769E-03
    2   -0.19435735E+03    0.47796064E-05    0.55665402E-04
    3   -0.19435735E+03   -0.17893285E-07    0.17682116E-04
    4   -0.19435735E+03   -0.39927386E-08    0.24535623E-05
    5   -0.19435735E+03   -0.62385652E-10    0.58727096E-06
    6   -0.19435735E+03   -0.54001248E-11    0.94459465E-07
    7   -0.19435735E+03    0.00000000E+00    0.12808227E-07
    8   -0.19435735E+03   -0.28421709E-13    0.40623545E-08

Total Energy:                     -192.3779309339 H        -5234.8698 eV
Extrapolated to 0K:               -192.3779309339 H        -5234.8698 eV
Total Mermin free energy:         -192.3779309339 H        -5234.8698 eV
Force related energy:             -192.3779309339 H        -5234.8698 eV

Volume:                              0.101352E+05 au^3   0.150188E+04 A^3
Pressure:                           -0.882538E-07 au    -0.259652E+07 Pa
>> Charges saved for restart in charges.bin

total energy  -1.9237793E+02 H       energy change -5.9674329E-07 H
gradient norm  4.7037901E-04 H/a0    max. gradient  8.4901050E-05 H/a0
step length    3.2444033E-03 a0      max. step      6.3392463E-04 a0

Geometry converged

--------------------------------------------------------------------------------
DFTB+ running times                          cpu [s]             wall clock [s]
--------------------------------------------------------------------------------
Pre-SCC initialisation                 +       9.83 (  0.9%)       1.58 (  1.1%)
SCC                                    +     980.78 ( 88.4%)     123.98 ( 89.4%)
Post-SCC processing                    +     118.52 ( 10.7%)      13.07 (  9.4%)
--------------------------------------------------------------------------------
Missing                                +       0.06 (  0.0%)       0.01 (  0.0%)
Total                                  =    1109.18 (100.0%)     138.63 (100.0%)
--------------------------------------------------------------------------------
