|===============================================================================
|
|  DFTB+ release 24.1
|
|  Copyright (C) 2006 - 2024  DFTB+ developers group
|
|===============================================================================
|
|  When publishing results obtained with DFTB+, please cite the following
|  reference:
|
|  * DFTB+, a software package for efficient approximate density functional
|    theory based atomistic simulations, J. Chem. Phys. 152, 124101 (2020).
|    [doi: 10.1063/1.5143190]
|
|  You should also cite additional publications crediting the parametrization
|  data you use. Please consult the documentation of the SK-files for the
|  references.
|
|===============================================================================

Reading input file 'dftb_in.hsd'
Parser version: 14

--------------------------------------------------------------------------------
Reading SK-files:
./SKFiles/Ge-Ge.skf
./SKFiles/Ge-Si.skf
./SKFiles/Ge-O.skf
./SKFiles/Si-Si.skf
./SKFiles/Si-O.skf
./SKFiles/O-O.skf
Done.


Processed input in HSD format written to 'dftb_pin.hsd'

Starting initialization...
--------------------------------------------------------------------------------
WARNING!
-> Dipole printed for extended system : value printed is not well defined
MPI processes:               1
OpenMP threads:              8
BLACS orbital grid size:     1 x 1
BLACS atom grid size:        1 x 1
Chosen random seed:          152406069
Current stacksize:           unlimited
Mode:                        Static calculation
Self consistent charges:     Yes
SCC-tolerance:                 0.100000E-07
Max. scc iterations:                    500
Shell resolved Hubbard:      No
Spin polarisation:           No
Nr. of up electrons:           192.000000
Nr. of down electrons:         192.000000
Periodic boundaries:         Yes
Electronic solver:           Relatively robust
Mixer:                       Broyden mixer
Mixing parameter:                  0.200000
Maximal SCC-cycles:                     500
Nr. of chrg. vec. in memory:            500
Electronic temperature:              0.100000E-07 H      0.272114E-06 eV
Initial charges:             Set automatically (system chrg:   0.000E+00)
Included shells:            Ge:  s, p, d
                            Si:  s, p, d
                             O:  s, p
K-points and weights:           1:  0.500000  0.500000  0.500000     1.000000

K-points in absolute space:     1:  0.025319  0.017606  0.037774

Extra options:
                             Mulliken analysis
Force type                   original

--------------------------------------------------------------------------------

***  Geometry step: 0

 iSCC Total electronic   Diff electronic      SCC error    
    1    0.00000000E+00    0.00000000E+00    0.14596875E+01
    2   -0.19479959E+03   -0.19479959E+03    0.99408708E+00
    3   -0.19516647E+03   -0.36687832E+00    0.62012090E-01
    4   -0.19548232E+03   -0.31584787E+00    0.28627404E-01
    5   -0.19548445E+03   -0.21299783E-02    0.80273430E-02
    6   -0.19548461E+03   -0.15568935E-03    0.17529180E-02
    7   -0.19548461E+03   -0.49572039E-05    0.46424465E-03
    8   -0.19548461E+03   -0.11938641E-05    0.57429674E-04
    9   -0.19548461E+03   -0.75864506E-07    0.31439017E-04
   10   -0.19548461E+03   -0.25636382E-10    0.13255296E-05
   11   -0.19548461E+03   -0.26173552E-09    0.39531060E-06
   12   -0.19548461E+03   -0.37232439E-11    0.12196768E-06
   13   -0.19548461E+03    0.11368684E-12    0.19836232E-07
   14   -0.19548461E+03   -0.28421709E-13    0.22922162E-08

Total Energy:                     -191.8767948445 H        -5221.2332 eV
Extrapolated to 0K:               -191.8767948445 H        -5221.2332 eV
Total Mermin free energy:         -191.8767948445 H        -5221.2332 eV
Force related energy:             -191.8767948445 H        -5221.2332 eV

Volume:                              0.913789E+04 au^3   0.135410E+04 A^3
Pressure:                            0.714703E-03 au     0.210273E+11 Pa
>> Charges saved for restart in charges.bin

total energy  -1.9187679E+02 H       energy change -1.9187679E+02 H
gradient norm  9.2805270E-01 H/a0    max. gradient  4.8806920E-01 H/a0
step length    0.0000000E+00 a0      max. step      0.0000000E+00 a0

--------------------------------------------------------------------------------

***  Geometry step: 1

 iSCC Total electronic   Diff electronic      SCC error    
    1   -0.19548461E+03    0.00000000E+00    0.11346557E+00
    2   -0.19510774E+03    0.37687628E+00    0.64462585E-01
    3   -0.19511633E+03   -0.85938125E-02    0.14095516E-01
    4   -0.19511832E+03   -0.19891735E-02    0.18518911E-02
    5   -0.19511835E+03   -0.26195604E-04    0.58332570E-03
    6   -0.19511835E+03   -0.88250692E-06    0.15288303E-03
    7   -0.19511835E+03   -0.71527438E-07    0.20974602E-04
    8   -0.19511835E+03   -0.66959274E-08    0.24628139E-05
    9   -0.19511835E+03   -0.25769964E-09    0.85713725E-06
   10   -0.19511835E+03   -0.36379788E-11    0.22729241E-06
   11   -0.19511835E+03   -0.17053026E-12    0.41009674E-07
   12   -0.19511835E+03   -0.85265128E-13    0.94742743E-08

Total Energy:                     -192.0279317615 H        -5225.3459 eV
Extrapolated to 0K:               -192.0279317615 H        -5225.3459 eV
Total Mermin free energy:         -192.0279317615 H        -5225.3459 eV
Force related energy:             -192.0279317615 H        -5225.3459 eV

Volume:                              0.945295E+04 au^3   0.140078E+04 A^3
Pressure:                            0.461185E-03 au     0.135685E+11 Pa
>> Charges saved for restart in charges.bin

total energy  -1.9202793E+02 H       energy change -1.5113692E-01 H
gradient norm  6.1118042E-01 H/a0    max. gradient  2.4567769E-01 H/a0
step length    5.9713583E-01 a0      max. step      3.1403778E-01 a0

--------------------------------------------------------------------------------

***  Geometry step: 2

 iSCC Total electronic   Diff electronic      SCC error    
    1   -0.19511835E+03    0.00000000E+00    0.62801072E-01
    2   -0.19504549E+03    0.72855253E-01    0.25540477E-01
    3   -0.19504874E+03   -0.32455065E-02    0.74891943E-02
    4   -0.19504952E+03   -0.78695616E-03    0.10442751E-02
    5   -0.19504953E+03   -0.84956630E-05    0.25734714E-03
    6   -0.19504953E+03   -0.30163071E-06    0.92947901E-04
    7   -0.19504953E+03   -0.17272697E-07    0.13906444E-04
    8   -0.19504953E+03   -0.22975826E-08    0.15690340E-05
    9   -0.19504953E+03   -0.10209078E-09    0.53875266E-06
   10   -0.19504953E+03   -0.12505552E-11    0.20113449E-06
   11   -0.19504953E+03    0.56843419E-13    0.22573800E-07
   12   -0.19504953E+03    0.28421709E-13    0.40790766E-08

Total Energy:                     -192.1786405025 H        -5229.4469 eV
Extrapolated to 0K:               -192.1786405025 H        -5229.4469 eV
Total Mermin free energy:         -192.1786405025 H        -5229.4469 eV
Force related energy:             -192.1786405025 H        -5229.4469 eV

Volume:                              0.944153E+04 au^3   0.139909E+04 A^3
Pressure:                            0.384912E-03 au     0.113245E+11 Pa
>> Charges saved for restart in charges.bin

total energy  -1.9217864E+02 H       energy change -1.5070874E-01 H
gradient norm  3.1728825E-01 H/a0    max. gradient  6.6598401E-02 H/a0
step length    3.8903094E-01 a0      max. step      7.1006634E-02 a0

--------------------------------------------------------------------------------

***  Geometry step: 3

 iSCC Total electronic   Diff electronic      SCC error    
    1   -0.19504953E+03    0.00000000E+00    0.53297184E-01
    2   -0.19489647E+03    0.15306088E+00    0.30814163E-01
    3   -0.19489917E+03   -0.26945564E-02    0.82822792E-02
    4   -0.19489987E+03   -0.70153800E-03    0.12981609E-02
    5   -0.19489988E+03   -0.85887169E-05    0.25553838E-03
    6   -0.19489988E+03   -0.59589593E-06    0.10505906E-03
    7   -0.19489988E+03   -0.14225861E-07    0.14277929E-04
    8   -0.19489988E+03   -0.24657538E-08    0.17005383E-05
    9   -0.19489988E+03   -0.10135182E-09    0.41729369E-06
   10   -0.19489988E+03   -0.15631940E-11    0.93496109E-07
   11   -0.19489988E+03    0.28421709E-13    0.21923387E-07
   12   -0.19489988E+03   -0.11368684E-12    0.59525420E-08

Total Energy:                     -192.2618715101 H        -5231.7117 eV
Extrapolated to 0K:               -192.2618715101 H        -5231.7117 eV
Total Mermin free energy:         -192.2618715101 H        -5231.7117 eV
Force related energy:             -192.2618715101 H        -5231.7117 eV

Volume:                              0.948128E+04 au^3   0.140498E+04 A^3
Pressure:                            0.297538E-03 au     0.875387E+10 Pa
>> Charges saved for restart in charges.bin

total energy  -1.9226187E+02 H       energy change -8.3231008E-02 H
gradient norm  2.2847649E-01 H/a0    max. gradient  1.0668355E-01 H/a0
step length    4.8317355E-01 a0      max. step      9.5695219E-02 a0

--------------------------------------------------------------------------------

***  Geometry step: 4

 iSCC Total electronic   Diff electronic      SCC error    
    1   -0.19489988E+03    0.00000000E+00    0.38292637E-01
    2   -0.19469420E+03    0.20567248E+00    0.22115102E-01
    3   -0.19469488E+03   -0.67709279E-03    0.40384631E-02
    4   -0.19469506E+03   -0.17460688E-03    0.36302655E-03
    5   -0.19469506E+03   -0.30950360E-05    0.15242879E-03
    6   -0.19469506E+03   -0.12485697E-06    0.72163033E-04
    7   -0.19469506E+03   -0.27247609E-08    0.64804142E-05
    8   -0.19469506E+03   -0.57121952E-09    0.10241054E-05
    9   -0.19469506E+03   -0.22907898E-10    0.17745834E-06
   10   -0.19469506E+03   -0.54001248E-12    0.30721978E-07
   11   -0.19469506E+03    0.56843419E-13    0.11633257E-07
   12   -0.19469506E+03    0.56843419E-13    0.27965394E-08

Total Energy:                     -192.3017501309 H        -5232.7969 eV
Extrapolated to 0K:               -192.3017501309 H        -5232.7969 eV
Total Mermin free energy:         -192.3017501309 H        -5232.7969 eV
Force related energy:             -192.3017501309 H        -5232.7969 eV

Volume:                              0.959108E+04 au^3   0.142125E+04 A^3
Pressure:                            0.198158E-03 au     0.583000E+10 Pa
>> Charges saved for restart in charges.bin

total energy  -1.9230175E+02 H       energy change -3.9878621E-02 H
gradient norm  1.9402483E-01 H/a0    max. gradient  9.6575689E-02 H/a0
step length    3.8236789E-01 a0      max. step      9.3607389E-02 a0

--------------------------------------------------------------------------------

***  Geometry step: 5

 iSCC Total electronic   Diff electronic      SCC error    
    1   -0.19469506E+03    0.00000000E+00    0.37355660E-01
    2   -0.19448434E+03    0.21072341E+00    0.21694070E-01
    3   -0.19448483E+03   -0.49491396E-03    0.33308893E-02
    4   -0.19448496E+03   -0.12931097E-03    0.40316207E-03
    5   -0.19448496E+03   -0.30922937E-05    0.15606492E-03
    6   -0.19448496E+03   -0.15122427E-06    0.76273427E-04
    7   -0.19448496E+03   -0.27676208E-08    0.57168373E-05
    8   -0.19448496E+03   -0.52452265E-09    0.11603010E-05
    9   -0.19448496E+03   -0.28649083E-10    0.16665119E-06
   10   -0.19448496E+03   -0.31263880E-12    0.47952752E-07
   11   -0.19448496E+03   -0.85265128E-13    0.90324224E-08

Total Energy:                     -192.3286950640 H        -5233.5301 eV
Extrapolated to 0K:               -192.3286950640 H        -5233.5301 eV
Total Mermin free energy:         -192.3286950640 H        -5233.5301 eV
Force related energy:             -192.3286950640 H        -5233.5301 eV

Volume:                              0.969892E+04 au^3   0.143723E+04 A^3
Pressure:                            0.102909E-03 au     0.302770E+10 Pa
>> Charges saved for restart in charges.bin

total energy  -1.9232870E+02 H       energy change -2.6944933E-02 H
gradient norm  1.1459214E-01 H/a0    max. gradient  3.6085106E-02 H/a0
step length    3.9726694E-01 a0      max. step      8.2782970E-02 a0

--------------------------------------------------------------------------------

***  Geometry step: 6

 iSCC Total electronic   Diff electronic      SCC error    
    1   -0.19448496E+03    0.00000000E+00    0.15724375E-01
    2   -0.19439684E+03    0.88126425E-01    0.69936251E-02
    3   -0.19439709E+03   -0.25590132E-03    0.23793034E-02
    4   -0.19439715E+03   -0.52456092E-04    0.43056674E-03
    5   -0.19439715E+03   -0.11311421E-05    0.92392649E-04
    6   -0.19439715E+03   -0.12867690E-06    0.40124426E-04
    7   -0.19439715E+03   -0.20271784E-08    0.72492825E-05
    8   -0.19439715E+03   -0.12317969E-09    0.82550488E-06
    9   -0.19439715E+03   -0.13045565E-10    0.27462711E-06
   10   -0.19439715E+03   -0.36948222E-12    0.38553392E-07
   11   -0.19439715E+03   -0.28421709E-13    0.66224528E-08

Total Energy:                     -192.3413924063 H        -5233.8756 eV
Extrapolated to 0K:               -192.3413924063 H        -5233.8756 eV
Total Mermin free energy:         -192.3413924063 H        -5233.8756 eV
Force related energy:             -192.3413924063 H        -5233.8756 eV

Volume:                              0.973316E+04 au^3   0.144231E+04 A^3
Pressure:                            0.618230E-04 au     0.181889E+10 Pa
>> Charges saved for restart in charges.bin

total energy  -1.9234139E+02 H       energy change -1.2697342E-02 H
gradient norm  8.4874309E-02 H/a0    max. gradient  2.7178518E-02 H/a0
step length    2.5680846E-01 a0      max. step      5.0508279E-02 a0

--------------------------------------------------------------------------------

***  Geometry step: 7

 iSCC Total electronic   Diff electronic      SCC error    
    1   -0.19439715E+03    0.00000000E+00    0.25048751E-01
    2   -0.19434485E+03    0.52296427E-01    0.14608297E-01
    3   -0.19434514E+03   -0.28839902E-03    0.37517904E-02
    4   -0.19434520E+03   -0.63299767E-04    0.35057168E-03
    5   -0.19434520E+03   -0.11117144E-05    0.12084066E-03
    6   -0.19434520E+03   -0.74047165E-07    0.41034996E-04
    7   -0.19434520E+03   -0.17647608E-08    0.52936959E-05
    8   -0.19434520E+03   -0.17769253E-09    0.94566730E-06
    9   -0.19434520E+03   -0.16399326E-10    0.20683091E-06
   10   -0.19434520E+03   -0.39790393E-12    0.31205775E-07
   11   -0.19434520E+03   -0.85265128E-13    0.46443613E-08

Total Energy:                     -192.3512318069 H        -5234.1433 eV
Extrapolated to 0K:               -192.3512318069 H        -5234.1433 eV
Total Mermin free energy:         -192.3512318069 H        -5234.1433 eV
Force related energy:             -192.3512318069 H        -5234.1433 eV

Volume:                              0.975647E+04 au^3   0.144576E+04 A^3
Pressure:                            0.374186E-04 au     0.110089E+10 Pa
>> Charges saved for restart in charges.bin

total energy  -1.9235123E+02 H       energy change -9.8394007E-03 H
gradient norm  6.5901209E-02 H/a0    max. gradient  2.1483690E-02 H/a0
step length    2.5055900E-01 a0      max. step      5.2444425E-02 a0

--------------------------------------------------------------------------------

***  Geometry step: 8

 iSCC Total electronic   Diff electronic      SCC error    
    1   -0.19434520E+03    0.00000000E+00    0.27135438E-01
    2   -0.19435090E+03   -0.56989080E-02    0.15993110E-01
    3   -0.19435111E+03   -0.20876001E-03    0.30978731E-02
    4   -0.19435116E+03   -0.51435517E-04    0.33066576E-03
    5   -0.19435116E+03   -0.14286745E-05    0.80053874E-04
    6   -0.19435116E+03   -0.95048819E-07    0.28341515E-04
    7   -0.19435116E+03   -0.19349500E-08    0.64301327E-05
    8   -0.19435116E+03   -0.10032863E-09    0.54100072E-06
    9   -0.19435116E+03   -0.15148771E-10    0.11742182E-06
   10   -0.19435116E+03   -0.42632564E-12    0.19390586E-07
   11   -0.19435116E+03    0.11368684E-12    0.69594677E-08

Total Energy:                     -192.3566646075 H        -5234.2912 eV
Extrapolated to 0K:               -192.3566646075 H        -5234.2912 eV
Total Mermin free energy:         -192.3566646075 H        -5234.2912 eV
Force related energy:             -192.3566646075 H        -5234.2912 eV

Volume:                              0.974910E+04 au^3   0.144467E+04 A^3
Pressure:                            0.374531E-04 au     0.110191E+10 Pa
>> Charges saved for restart in charges.bin

total energy  -1.9235666E+02 H       energy change -5.4328006E-03 H
gradient norm  5.4887712E-02 H/a0    max. gradient  1.7129228E-02 H/a0
step length    1.9801231E-01 a0      max. step      3.6272428E-02 a0

--------------------------------------------------------------------------------

***  Geometry step: 9

 iSCC Total electronic   Diff electronic      SCC error    
    1   -0.19435116E+03    0.00000000E+00    0.14482606E-01
    2   -0.19435849E+03   -0.73262729E-02    0.85602396E-02
    3   -0.19435855E+03   -0.59335221E-04    0.13373052E-02
    4   -0.19435857E+03   -0.15534365E-04    0.14186447E-03
    5   -0.19435857E+03   -0.58347308E-06    0.53330409E-04
    6   -0.19435857E+03   -0.18391177E-07    0.15659628E-04
    7   -0.19435857E+03   -0.52088467E-09    0.21022538E-05
    8   -0.19435857E+03   -0.47577942E-10    0.28438059E-06
    9   -0.19435857E+03   -0.30127012E-11    0.59987506E-07
   10   -0.19435857E+03   -0.56843419E-13    0.96531210E-08

Total Energy:                     -192.3596806297 H        -5234.3732 eV
Extrapolated to 0K:               -192.3596806297 H        -5234.3732 eV
Total Mermin free energy:         -192.3596806297 H        -5234.3732 eV
Force related energy:             -192.3596806297 H        -5234.3732 eV

Volume:                              0.974925E+04 au^3   0.144469E+04 A^3
Pressure:                            0.389023E-04 au     0.114454E+10 Pa
>> Charges saved for restart in charges.bin

total energy  -1.9235968E+02 H       energy change -3.0160222E-03 H
gradient norm  4.1908283E-02 H/a0    max. gradient  9.6296909E-03 H/a0
step length    1.3320523E-01 a0      max. step      2.3107250E-02 a0

--------------------------------------------------------------------------------

***  Geometry step: 10

 iSCC Total electronic   Diff electronic      SCC error    
    1   -0.19435857E+03    0.00000000E+00    0.13569227E-01
    2   -0.19436948E+03   -0.10915898E-01    0.54942303E-02
    3   -0.19436954E+03   -0.63284256E-04    0.11426196E-02
    4   -0.19436956E+03   -0.13862551E-04    0.17242959E-03
    5   -0.19436956E+03   -0.53389599E-06    0.49422886E-04
    6   -0.19436956E+03   -0.22924894E-07    0.17945964E-04
    7   -0.19436956E+03   -0.37502446E-09    0.23999531E-05
    8   -0.19436956E+03   -0.46668447E-10    0.47042399E-06
    9   -0.19436956E+03   -0.26716407E-11    0.10040114E-06
   10   -0.19436956E+03    0.00000000E+00    0.17035028E-07
   11   -0.19436956E+03   -0.56843419E-13    0.21830964E-08

Total Energy:                     -192.3622455523 H        -5234.4430 eV
Extrapolated to 0K:               -192.3622455523 H        -5234.4430 eV
Total Mermin free energy:         -192.3622455523 H        -5234.4430 eV
Force related energy:             -192.3622455523 H        -5234.4430 eV

Volume:                              0.974594E+04 au^3   0.144420E+04 A^3
Pressure:                            0.410744E-04 au     0.120845E+10 Pa
>> Charges saved for restart in charges.bin

total energy  -1.9236225E+02 H       energy change -2.5649225E-03 H
gradient norm  3.8081778E-02 H/a0    max. gradient  1.3552673E-02 H/a0
step length    1.4136844E-01 a0      max. step      2.7066976E-02 a0

--------------------------------------------------------------------------------

***  Geometry step: 11

 iSCC Total electronic   Diff electronic      SCC error    
    1   -0.19436956E+03    0.00000000E+00    0.85988472E-02
    2   -0.19436635E+03    0.32079088E-02    0.39161133E-02
    3   -0.19436640E+03   -0.53289191E-04    0.10705172E-02
    4   -0.19436642E+03   -0.12582071E-04    0.15452672E-03
    5   -0.19436642E+03   -0.42298359E-06    0.31774297E-04
    6   -0.19436642E+03   -0.23652859E-07    0.11566646E-04
    7   -0.19436642E+03   -0.30382807E-09    0.21877130E-05
    8   -0.19436642E+03   -0.29416469E-10    0.44617871E-06
    9   -0.19436642E+03   -0.21316282E-11    0.12663542E-06
   10   -0.19436642E+03   -0.56843419E-13    0.16123787E-07
   11   -0.19436642E+03   -0.28421709E-13    0.22640720E-08

Total Energy:                     -192.3645085383 H        -5234.5046 eV
Extrapolated to 0K:               -192.3645085383 H        -5234.5046 eV
Total Mermin free energy:         -192.3645085383 H        -5234.5046 eV
Force related energy:             -192.3645085383 H        -5234.5046 eV

Volume:                              0.975752E+04 au^3   0.144592E+04 A^3
Pressure:                            0.371635E-04 au     0.109339E+10 Pa
>> Charges saved for restart in charges.bin

total energy  -1.9236451E+02 H       energy change -2.2629860E-03 H
gradient norm  3.8879011E-02 H/a0    max. gradient  1.0287013E-02 H/a0
step length    1.4095901E-01 a0      max. step      2.7679030E-02 a0

--------------------------------------------------------------------------------

***  Geometry step: 12

 iSCC Total electronic   Diff electronic      SCC error    
    1   -0.19436642E+03    0.00000000E+00    0.13356487E-01
    2   -0.19435544E+03    0.10977002E-01    0.78483773E-02
    3   -0.19435549E+03   -0.49477207E-04    0.12993498E-02
    4   -0.19435550E+03   -0.11613012E-04    0.21114281E-03
    5   -0.19435550E+03   -0.53197897E-06    0.75334113E-04
    6   -0.19435550E+03   -0.22662419E-07    0.21118557E-04
    7   -0.19435550E+03   -0.31621994E-09    0.20042108E-05
    8   -0.19435550E+03   -0.33821834E-10    0.41326549E-06
    9   -0.19435550E+03   -0.36664005E-11    0.10418539E-06
   10   -0.19435550E+03    0.56843419E-13    0.10734006E-07
   11   -0.19435550E+03    0.00000000E+00    0.20446205E-08

Total Energy:                     -192.3668854326 H        -5234.5693 eV
Extrapolated to 0K:               -192.3668854326 H        -5234.5693 eV
Total Mermin free energy:         -192.3668854326 H        -5234.5693 eV
Force related energy:             -192.3668854326 H        -5234.5693 eV

Volume:                              0.977621E+04 au^3   0.144868E+04 A^3
Pressure:                            0.300735E-04 au     0.884793E+09 Pa
>> Charges saved for restart in charges.bin

total energy  -1.9236689E+02 H       energy change -2.3768943E-03 H
gradient norm  3.5818836E-02 H/a0    max. gradient  1.2917960E-02 H/a0
step length    1.7480276E-01 a0      max. step      3.9825116E-02 a0

--------------------------------------------------------------------------------

***  Geometry step: 13

 iSCC Total electronic   Diff electronic      SCC error    
    1   -0.19435550E+03    0.00000000E+00    0.77939021E-02
    2   -0.19434148E+03    0.14020898E-01    0.45368546E-02
    3   -0.19434150E+03   -0.20700295E-04    0.83536420E-03
    4   -0.19434151E+03   -0.47154247E-05    0.11387095E-03
    5   -0.19434151E+03   -0.18365705E-06    0.44492696E-04
    6   -0.19434151E+03   -0.71589739E-08    0.12713519E-04
    7   -0.19434151E+03   -0.14588863E-09    0.13450815E-05
    8   -0.19434151E+03   -0.15461410E-10    0.21760780E-06
    9   -0.19434151E+03   -0.13073986E-11    0.54869129E-07
   10   -0.19434151E+03    0.56843419E-13    0.62974710E-08

Total Energy:                     -192.3683766748 H        -5234.6099 eV
Extrapolated to 0K:               -192.3683766748 H        -5234.6099 eV
Total Mermin free energy:         -192.3683766748 H        -5234.6099 eV
Force related energy:             -192.3683766748 H        -5234.6099 eV

Volume:                              0.979788E+04 au^3   0.145190E+04 A^3
Pressure:                            0.218892E-04 au     0.644003E+09 Pa
>> Charges saved for restart in charges.bin

total energy  -1.9236838E+02 H       energy change -1.4912422E-03 H
gradient norm  2.7731675E-02 H/a0    max. gradient  6.7107631E-03 H/a0
step length    1.3000686E-01 a0      max. step      2.7108273E-02 a0

--------------------------------------------------------------------------------

***  Geometry step: 14

 iSCC Total electronic   Diff electronic      SCC error    
    1   -0.19434151E+03    0.00000000E+00    0.65361493E-02
    2   -0.19433514E+03    0.63667943E-02    0.25079363E-02
    3   -0.19433517E+03   -0.30874869E-04    0.70580538E-03
    4   -0.19433518E+03   -0.60946188E-05    0.10651632E-03
    5   -0.19433518E+03   -0.90711694E-07    0.17339942E-04
    6   -0.19433518E+03   -0.86042746E-08    0.73965851E-05
    7   -0.19433518E+03   -0.16936497E-09    0.20025612E-05
    8   -0.19433518E+03   -0.84412477E-11    0.23398609E-06
    9   -0.19433518E+03   -0.82422957E-12    0.55424374E-07
   10   -0.19433518E+03    0.28421709E-13    0.87536867E-08

Total Energy:                     -192.3695562133 H        -5234.6420 eV
Extrapolated to 0K:               -192.3695562133 H        -5234.6420 eV
Total Mermin free energy:         -192.3695562133 H        -5234.6420 eV
Force related energy:             -192.3695562133 H        -5234.6420 eV

Volume:                              0.981549E+04 au^3   0.145451E+04 A^3
Pressure:                            0.171804E-04 au     0.505466E+09 Pa
>> Charges saved for restart in charges.bin

total energy  -1.9236956E+02 H       energy change -1.1795385E-03 H
gradient norm  2.3506366E-02 H/a0    max. gradient  6.2439107E-03 H/a0
step length    1.1487137E-01 a0      max. step      2.0971371E-02 a0

--------------------------------------------------------------------------------

***  Geometry step: 15

 iSCC Total electronic   Diff electronic      SCC error    
    1   -0.19433518E+03    0.00000000E+00    0.48212846E-02
    2   -0.19433544E+03   -0.26334312E-03    0.24406775E-02
    3   -0.19433547E+03   -0.27823530E-04    0.54567865E-03
    4   -0.19433547E+03   -0.58249905E-05    0.87400355E-04
    5   -0.19433547E+03   -0.69418491E-07    0.23432494E-04
    6   -0.19433547E+03   -0.61059211E-08    0.76134905E-05
    7   -0.19433547E+03   -0.16518698E-09    0.18978586E-05
    8   -0.19433547E+03   -0.55990768E-11    0.23573120E-06
    9   -0.19433547E+03   -0.10516032E-11    0.58685388E-07
   10   -0.19433547E+03    0.00000000E+00    0.51959841E-08

Total Energy:                     -192.3704766418 H        -5234.6670 eV
Extrapolated to 0K:               -192.3704766418 H        -5234.6670 eV
Total Mermin free energy:         -192.3704766418 H        -5234.6670 eV
Force related energy:             -192.3704766418 H        -5234.6670 eV

Volume:                              0.982955E+04 au^3   0.145659E+04 A^3
Pressure:                            0.158273E-04 au     0.465657E+09 Pa
>> Charges saved for restart in charges.bin

total energy  -1.9237048E+02 H       energy change -9.2042844E-04 H
gradient norm  2.3246221E-02 H/a0    max. gradient  6.7471683E-03 H/a0
step length    1.0021579E-01 a0      max. step      1.8069441E-02 a0

--------------------------------------------------------------------------------

***  Geometry step: 16

 iSCC Total electronic   Diff electronic      SCC error    
    1   -0.19433547E+03    0.00000000E+00    0.70770281E-02
    2   -0.19433831E+03   -0.28323717E-02    0.40146127E-02
    3   -0.19433833E+03   -0.22556027E-04    0.89146042E-03
    4   -0.19433833E+03   -0.48262970E-05    0.11965749E-03
    5   -0.19433833E+03   -0.89359673E-07    0.31203190E-04
    6   -0.19433833E+03   -0.74961974E-08    0.77042326E-05
    7   -0.19433833E+03   -0.17666935E-09    0.15947006E-05
    8   -0.19433833E+03   -0.64801498E-11    0.26464168E-06
    9   -0.19433833E+03   -0.15631940E-11    0.59709004E-07
   10   -0.19433833E+03   -0.28421709E-13    0.57577001E-08

Total Energy:                     -192.3713137850 H        -5234.6898 eV
Extrapolated to 0K:               -192.3713137850 H        -5234.6898 eV
Total Mermin free energy:         -192.3713137850 H        -5234.6898 eV
Force related energy:             -192.3713137850 H        -5234.6898 eV

Volume:                              0.984373E+04 au^3   0.145869E+04 A^3
Pressure:                            0.159648E-04 au     0.469701E+09 Pa
>> Charges saved for restart in charges.bin

total energy  -1.9237131E+02 H       energy change -8.3714323E-04 H
gradient norm  2.1730253E-02 H/a0    max. gradient  4.6560072E-03 H/a0
step length    1.0678187E-01 a0      max. step      1.8794069E-02 a0

--------------------------------------------------------------------------------

***  Geometry step: 17

 iSCC Total electronic   Diff electronic      SCC error    
    1   -0.19433833E+03    0.00000000E+00    0.61884475E-02
    2   -0.19433939E+03   -0.10552572E-02    0.36036803E-02
    3   -0.19433940E+03   -0.10884684E-04    0.76812750E-03
    4   -0.19433940E+03   -0.23987271E-05    0.97551421E-04
    5   -0.19433940E+03   -0.65591138E-07    0.28664606E-04
    6   -0.19433940E+03   -0.48439404E-08    0.54002915E-05
    7   -0.19433940E+03   -0.11215207E-09    0.11918648E-05
    8   -0.19433940E+03   -0.49453774E-11    0.22154350E-06
    9   -0.19433940E+03   -0.90949470E-12    0.44411180E-07
   10   -0.19433940E+03   -0.56843419E-13    0.62140444E-08

Total Energy:                     -192.3720322533 H        -5234.7093 eV
Extrapolated to 0K:               -192.3720322533 H        -5234.7093 eV
Total Mermin free energy:         -192.3720322533 H        -5234.7093 eV
Force related energy:             -192.3720322533 H        -5234.7093 eV

Volume:                              0.985820E+04 au^3   0.146084E+04 A^3
Pressure:                            0.155264E-04 au     0.456803E+09 Pa
>> Charges saved for restart in charges.bin

total energy  -1.9237203E+02 H       energy change -7.1846833E-04 H
gradient norm  1.9922336E-02 H/a0    max. gradient  3.8011516E-03 H/a0
step length    1.0104266E-01 a0      max. step      1.6837503E-02 a0

--------------------------------------------------------------------------------

***  Geometry step: 18

 iSCC Total electronic   Diff electronic      SCC error    
    1   -0.19433940E+03    0.00000000E+00    0.41439401E-02
    2   -0.19433797E+03    0.14281258E-02    0.21418427E-02
    3   -0.19433799E+03   -0.11137701E-04    0.56292813E-03
    4   -0.19433799E+03   -0.23110225E-05    0.99082862E-04
    5   -0.19433799E+03   -0.54403358E-07    0.30305222E-04
    6   -0.19433799E+03   -0.53997269E-08    0.70723352E-05
    7   -0.19433799E+03   -0.89471541E-10    0.13961010E-05
    8   -0.19433799E+03   -0.34106051E-11    0.22346530E-06
    9   -0.19433799E+03   -0.73896445E-12    0.58654358E-07
   10   -0.19433799E+03    0.85265128E-13    0.53897207E-08

Total Energy:                     -192.3727739556 H        -5234.7295 eV
Extrapolated to 0K:               -192.3727739556 H        -5234.7295 eV
Total Mermin free energy:         -192.3727739556 H        -5234.7295 eV
Force related energy:             -192.3727739556 H        -5234.7295 eV

Volume:                              0.987567E+04 au^3   0.146342E+04 A^3
Pressure:                            0.139762E-04 au     0.411194E+09 Pa
>> Charges saved for restart in charges.bin

total energy  -1.9237277E+02 H       energy change -7.4170226E-04 H
gradient norm  2.0078572E-02 H/a0    max. gradient  4.5409474E-03 H/a0
step length    1.1426434E-01 a0      max. step      1.8503645E-02 a0

--------------------------------------------------------------------------------

***  Geometry step: 19

 iSCC Total electronic   Diff electronic      SCC error    
    1   -0.19433799E+03    0.00000000E+00    0.31200476E-02
    2   -0.19433397E+03    0.40197469E-02    0.18408961E-02
    3   -0.19433398E+03   -0.12350747E-04    0.57853360E-03
    4   -0.19433398E+03   -0.25037808E-05    0.80539727E-04
    5   -0.19433398E+03   -0.47981189E-07    0.91929590E-05
    6   -0.19433398E+03   -0.54136819E-08    0.35576541E-05
    7   -0.19433398E+03   -0.62868821E-10    0.12186494E-05
    8   -0.19433398E+03   -0.17621460E-11    0.13167317E-06
    9   -0.19433398E+03   -0.34106051E-12    0.57617497E-07
   10   -0.19433398E+03   -0.28421709E-13    0.56782055E-08

Total Energy:                     -192.3734628568 H        -5234.7483 eV
Extrapolated to 0K:               -192.3734628568 H        -5234.7483 eV
Total Mermin free energy:         -192.3734628568 H        -5234.7483 eV
Force related energy:             -192.3734628568 H        -5234.7483 eV

Volume:                              0.989503E+04 au^3   0.146629E+04 A^3
Pressure:                            0.113014E-04 au     0.332500E+09 Pa
>> Charges saved for restart in charges.bin

total energy  -1.9237346E+02 H       energy change -6.8890119E-04 H
gradient norm  1.9586477E-02 H/a0    max. gradient  5.2018202E-03 H/a0
step length    1.1915808E-01 a0      max. step      1.8652904E-02 a0

--------------------------------------------------------------------------------

***  Geometry step: 20

 iSCC Total electronic   Diff electronic      SCC error    
    1   -0.19433398E+03    0.00000000E+00    0.33709647E-02
    2   -0.19432881E+03    0.51767946E-02    0.18729067E-02
    3   -0.19432882E+03   -0.10061110E-04    0.60177858E-03
    4   -0.19432882E+03   -0.21462452E-05    0.73709003E-04
    5   -0.19432882E+03   -0.53130861E-07    0.21395389E-04
    6   -0.19432882E+03   -0.44074966E-08    0.46777276E-05
    7   -0.19432882E+03   -0.65057293E-10    0.71764055E-06
    8   -0.19432882E+03   -0.22453150E-11    0.17475607E-06
    9   -0.19432882E+03   -0.48316906E-12    0.40929562E-07
   10   -0.19432882E+03   -0.28421709E-13    0.53190119E-08

Total Energy:                     -192.3740162050 H        -5234.7633 eV
Extrapolated to 0K:               -192.3740162050 H        -5234.7633 eV
Total Mermin free energy:         -192.3740162050 H        -5234.7633 eV
Force related energy:             -192.3740162050 H        -5234.7633 eV

Volume:                              0.991287E+04 au^3   0.146894E+04 A^3
Pressure:                            0.788664E-05 au     0.232033E+09 Pa
>> Charges saved for restart in charges.bin

total energy  -1.9237402E+02 H       energy change -5.5334818E-04 H
gradient norm  1.7728500E-02 H/a0    max. gradient  4.1294689E-03 H/a0
step length    1.0643713E-01 a0      max. step      1.7506204E-02 a0

--------------------------------------------------------------------------------

***  Geometry step: 21

 iSCC Total electronic   Diff electronic      SCC error    
    1   -0.19432882E+03    0.00000000E+00    0.38593708E-02
    2   -0.19432559E+03    0.32259153E-02    0.21885273E-02
    3   -0.19432560E+03   -0.66842491E-05    0.47160248E-03
    4   -0.19432560E+03   -0.15523053E-05    0.71540374E-04
    5   -0.19432560E+03   -0.45940794E-07    0.23938821E-04
    6   -0.19432560E+03   -0.28516354E-08    0.41103819E-05
    7   -0.19432560E+03   -0.63067773E-10    0.70991028E-06
    8   -0.19432560E+03   -0.21884716E-11    0.19539037E-06
    9   -0.19432560E+03   -0.42632564E-12    0.34670766E-07
   10   -0.19432560E+03   -0.28421709E-13    0.53737557E-08

Total Energy:                     -192.3744570357 H        -5234.7753 eV
Extrapolated to 0K:               -192.3744570357 H        -5234.7753 eV
Total Mermin free energy:         -192.3744570357 H        -5234.7753 eV
Force related energy:             -192.3744570357 H        -5234.7753 eV

Volume:                              0.992673E+04 au^3   0.147099E+04 A^3
Pressure:                            0.531604E-05 au     0.156403E+09 Pa
>> Charges saved for restart in charges.bin

total energy  -1.9237446E+02 H       energy change -4.4083072E-04 H
gradient norm  1.4235407E-02 H/a0    max. gradient  2.6393905E-03 H/a0
step length    8.6218861E-02 a0      max. step      1.6180401E-02 a0

--------------------------------------------------------------------------------

***  Geometry step: 22

 iSCC Total electronic   Diff electronic      SCC error    
    1   -0.19432560E+03    0.00000000E+00    0.26635234E-02
    2   -0.19432513E+03    0.46785680E-03    0.11537593E-02
    3   -0.19432514E+03   -0.58841326E-05    0.36076974E-03
    4   -0.19432514E+03   -0.13930471E-05    0.56406705E-04
    5   -0.19432514E+03   -0.26923459E-07    0.16687550E-04
    6   -0.19432514E+03   -0.19455229E-08    0.32700676E-05
    7   -0.19432514E+03   -0.54825477E-10    0.65303332E-06
    8   -0.19432514E+03   -0.11368684E-11    0.14691329E-06
    9   -0.19432514E+03   -0.25579538E-12    0.34225915E-07
   10   -0.19432514E+03    0.85265128E-13    0.42030583E-08

Total Energy:                     -192.3747776682 H        -5234.7840 eV
Extrapolated to 0K:               -192.3747776682 H        -5234.7840 eV
Total Mermin free energy:         -192.3747776682 H        -5234.7840 eV
Force related energy:             -192.3747776682 H        -5234.7840 eV

Volume:                              0.993677E+04 au^3   0.147248E+04 A^3
Pressure:                            0.400445E-05 au     0.117815E+09 Pa
>> Charges saved for restart in charges.bin

total energy  -1.9237478E+02 H       energy change -3.2063256E-04 H
gradient norm  1.2456850E-02 H/a0    max. gradient  3.0180552E-03 H/a0
step length    6.8217181E-02 a0      max. step      1.2477659E-02 a0

--------------------------------------------------------------------------------

***  Geometry step: 23

 iSCC Total electronic   Diff electronic      SCC error    
    1   -0.19432514E+03    0.00000000E+00    0.27711198E-02
    2   -0.19432719E+03   -0.20457291E-02    0.11731274E-02
    3   -0.19432719E+03   -0.51179277E-05    0.28345484E-03
    4   -0.19432719E+03   -0.11711525E-05    0.38258357E-04
    5   -0.19432719E+03   -0.16743201E-07    0.48944018E-05
    6   -0.19432719E+03   -0.12951489E-08    0.95426107E-06
    7   -0.19432719E+03   -0.45531579E-10    0.44031316E-06
    8   -0.19432719E+03   -0.96633812E-12    0.12836907E-06
    9   -0.19432719E+03   -0.17053026E-12    0.17810953E-07
   10   -0.19432719E+03    0.28421709E-13    0.24717544E-08

Total Energy:                     -192.3750091143 H        -5234.7903 eV
Extrapolated to 0K:               -192.3750091143 H        -5234.7903 eV
Total Mermin free energy:         -192.3750091143 H        -5234.7903 eV
Force related energy:             -192.3750091143 H        -5234.7903 eV

Volume:                              0.994366E+04 au^3   0.147350E+04 A^3
Pressure:                            0.388579E-05 au     0.114324E+09 Pa
>> Charges saved for restart in charges.bin

total energy  -1.9237501E+02 H       energy change -2.3144602E-04 H
gradient norm  1.1453337E-02 H/a0    max. gradient  3.6231221E-03 H/a0
step length    5.5297682E-02 a0      max. step      9.7096149E-03 a0

--------------------------------------------------------------------------------

***  Geometry step: 24

 iSCC Total electronic   Diff electronic      SCC error    
    1   -0.19432719E+03    0.00000000E+00    0.18053268E-02
    2   -0.19433034E+03   -0.31461088E-02    0.93843431E-03
    3   -0.19433034E+03   -0.32687674E-05    0.26434316E-03
    4   -0.19433034E+03   -0.76671515E-06    0.28020717E-04
    5   -0.19433034E+03   -0.11744135E-07    0.88509508E-05
    6   -0.19433034E+03   -0.69641715E-09    0.13212508E-05
    7   -0.19433034E+03   -0.22964741E-10    0.32947768E-06
    8   -0.19433034E+03   -0.45474735E-12    0.94393153E-07
    9   -0.19433034E+03   -0.14210855E-12    0.15998071E-07
   10   -0.19433034E+03    0.00000000E+00    0.25666731E-08

Total Energy:                     -192.3751752006 H        -5234.7949 eV
Extrapolated to 0K:               -192.3751752006 H        -5234.7949 eV
Total Mermin free energy:         -192.3751752006 H        -5234.7949 eV
Force related energy:             -192.3751752006 H        -5234.7949 eV

Volume:                              0.994877E+04 au^3   0.147426E+04 A^3
Pressure:                            0.469433E-05 au     0.138112E+09 Pa
>> Charges saved for restart in charges.bin

total energy  -1.9237518E+02 H       energy change -1.6608636E-04 H
gradient norm  9.1483664E-03 H/a0    max. gradient  2.3972018E-03 H/a0
step length    4.5966788E-02 a0      max. step      9.9196803E-03 a0

--------------------------------------------------------------------------------

***  Geometry step: 25

 iSCC Total electronic   Diff electronic      SCC error    
    1   -0.19433034E+03    0.00000000E+00    0.19513938E-02
    2   -0.19433208E+03   -0.17324049E-02    0.10641651E-02
    3   -0.19433208E+03   -0.18795310E-05    0.30452357E-03
    4   -0.19433208E+03   -0.45175130E-06    0.31881468E-04
    5   -0.19433208E+03   -0.92522328E-08    0.80451453E-05
    6   -0.19433208E+03   -0.52244786E-09    0.11003428E-05
    7   -0.19433208E+03   -0.11482371E-10    0.29282227E-06
    8   -0.19433208E+03   -0.22737368E-12    0.73751300E-07
    9   -0.19433208E+03   -0.11368684E-12    0.11962220E-07
   10   -0.19433208E+03    0.85265128E-13    0.12074874E-08

Total Energy:                     -192.3752980424 H        -5234.7982 eV
Extrapolated to 0K:               -192.3752980424 H        -5234.7982 eV
Total Mermin free energy:         -192.3752980424 H        -5234.7982 eV
Force related energy:             -192.3752980424 H        -5234.7982 eV

Volume:                              0.995382E+04 au^3   0.147500E+04 A^3
Pressure:                            0.501886E-05 au     0.147660E+09 Pa
>> Charges saved for restart in charges.bin

total energy  -1.9237530E+02 H       energy change -1.2284182E-04 H
gradient norm  8.1214935E-03 H/a0    max. gradient  1.5790436E-03 H/a0
step length    3.8729888E-02 a0      max. step      8.6909527E-03 a0

--------------------------------------------------------------------------------

***  Geometry step: 26

 iSCC Total electronic   Diff electronic      SCC error    
    1   -0.19433208E+03    0.00000000E+00    0.22641489E-02
    2   -0.19433291E+03   -0.83261765E-03    0.13970041E-02
    3   -0.19433291E+03   -0.26007446E-05    0.40851650E-03
    4   -0.19433291E+03   -0.62479472E-06    0.33440681E-04
    5   -0.19433291E+03   -0.12136496E-07    0.95971301E-05
    6   -0.19433291E+03   -0.82053475E-09    0.17351237E-05
    7   -0.19433291E+03   -0.13898216E-10    0.35963115E-06
    8   -0.19433291E+03   -0.19895197E-12    0.77063209E-07
    9   -0.19433291E+03   -0.11368684E-12    0.16922348E-07
   10   -0.19433291E+03    0.00000000E+00    0.13734085E-08

Total Energy:                     -192.3754292200 H        -5234.8018 eV
Extrapolated to 0K:               -192.3754292200 H        -5234.8018 eV
Total Mermin free energy:         -192.3754292200 H        -5234.8018 eV
Force related energy:             -192.3754292200 H        -5234.8018 eV

Volume:                              0.996046E+04 au^3   0.147599E+04 A^3
Pressure:                            0.488021E-05 au     0.143581E+09 Pa
>> Charges saved for restart in charges.bin

total energy  -1.9237543E+02 H       energy change -1.3117752E-04 H
gradient norm  9.2637085E-03 H/a0    max. gradient  2.8125583E-03 H/a0
step length    4.6135830E-02 a0      max. step      9.9753216E-03 a0

--------------------------------------------------------------------------------

***  Geometry step: 27

 iSCC Total electronic   Diff electronic      SCC error    
    1   -0.19433291E+03    0.00000000E+00    0.23948697E-02
    2   -0.19433282E+03    0.90768519E-04    0.14940742E-02
    3   -0.19433283E+03   -0.29540176E-05    0.45963881E-03
    4   -0.19433283E+03   -0.67454280E-06    0.35500993E-04
    5   -0.19433283E+03   -0.14114363E-07    0.78477854E-05
    6   -0.19433283E+03   -0.11011991E-08    0.17287665E-05
    7   -0.19433283E+03   -0.15802470E-10    0.37088940E-06
    8   -0.19433283E+03   -0.36948222E-12    0.76585850E-07
    9   -0.19433283E+03    0.00000000E+00    0.21716187E-07
   10   -0.19433283E+03   -0.56843419E-13    0.38438093E-08

Total Energy:                     -192.3755752109 H        -5234.8057 eV
Extrapolated to 0K:               -192.3755752109 H        -5234.8057 eV
Total Mermin free energy:         -192.3755752109 H        -5234.8057 eV
Force related energy:             -192.3755752109 H        -5234.8057 eV

Volume:                              0.996866E+04 au^3   0.147720E+04 A^3
Pressure:                            0.425135E-05 au     0.125079E+09 Pa
>> Charges saved for restart in charges.bin

total energy  -1.9237558E+02 H       energy change -1.4599091E-04 H
gradient norm  1.0716610E-02 H/a0    max. gradient  3.1065670E-03 H/a0
step length    5.5318661E-02 a0      max. step      1.0883328E-02 a0

--------------------------------------------------------------------------------

***  Geometry step: 28

 iSCC Total electronic   Diff electronic      SCC error    
    1   -0.19433283E+03    0.00000000E+00    0.22778856E-02
    2   -0.19433166E+03    0.11703127E-02    0.14311306E-02
    3   -0.19433166E+03   -0.30043805E-05    0.43729211E-03
    4   -0.19433166E+03   -0.66190259E-06    0.36742308E-04
    5   -0.19433166E+03   -0.17850738E-07    0.42478238E-05
    6   -0.19433166E+03   -0.12663008E-08    0.13129374E-05
    7   -0.19433166E+03   -0.11453949E-10    0.48615085E-06
    8   -0.19433166E+03   -0.22737368E-12    0.61456647E-07
    9   -0.19433166E+03   -0.85265128E-13    0.22890607E-07
   10   -0.19433166E+03    0.00000000E+00    0.25823623E-08

Total Energy:                     -192.3757551058 H        -5234.8106 eV
Extrapolated to 0K:               -192.3757551058 H        -5234.8106 eV
Total Mermin free energy:         -192.3757551058 H        -5234.8106 eV
Force related energy:             -192.3757551058 H        -5234.8106 eV

Volume:                              0.997923E+04 au^3   0.147877E+04 A^3
Pressure:                            0.301022E-05 au     0.885638E+08 Pa
>> Charges saved for restart in charges.bin

total energy  -1.9237576E+02 H       energy change -1.7989496E-04 H
gradient norm  1.0811998E-02 H/a0    max. gradient  3.0957920E-03 H/a0
step length    7.2194715E-02 a0      max. step      1.4048490E-02 a0

--------------------------------------------------------------------------------

***  Geometry step: 29

 iSCC Total electronic   Diff electronic      SCC error    
    1   -0.19433166E+03    0.00000000E+00    0.18228937E-02
    2   -0.19433015E+03    0.15084824E-02    0.92655377E-03
    3   -0.19433015E+03   -0.26239819E-05    0.27097541E-03
    4   -0.19433015E+03   -0.59172191E-06    0.31039430E-04
    5   -0.19433015E+03   -0.17767064E-07    0.46241774E-05
    6   -0.19433015E+03   -0.13039028E-08    0.13708116E-05
    7   -0.19433015E+03   -0.18133051E-10    0.52535217E-06
    8   -0.19433015E+03   -0.39790393E-12    0.80036503E-07
    9   -0.19433015E+03   -0.28421709E-13    0.12104287E-07
   10   -0.19433015E+03   -0.56843419E-13    0.15873112E-08

Total Energy:                     -192.3759328662 H        -5234.8155 eV
Extrapolated to 0K:               -192.3759328662 H        -5234.8155 eV
Total Mermin free energy:         -192.3759328662 H        -5234.8155 eV
Force related energy:             -192.3759328662 H        -5234.8155 eV

Volume:                              0.998993E+04 au^3   0.148036E+04 A^3
Pressure:                            0.135825E-05 au     0.399611E+08 Pa
>> Charges saved for restart in charges.bin

total energy  -1.9237593E+02 H       energy change -1.7776042E-04 H
gradient norm  9.5319986E-03 H/a0    max. gradient  2.6613901E-03 H/a0
step length    7.8455328E-02 a0      max. step      1.5900175E-02 a0

--------------------------------------------------------------------------------

***  Geometry step: 30

 iSCC Total electronic   Diff electronic      SCC error    
    1   -0.19433015E+03    0.00000000E+00    0.18371526E-02
    2   -0.19433008E+03    0.70831158E-04    0.85416196E-03
    3   -0.19433009E+03   -0.26446605E-05    0.21938569E-03
    4   -0.19433009E+03   -0.57749551E-06    0.39066463E-04
    5   -0.19433009E+03   -0.10760374E-07    0.44145251E-05
    6   -0.19433009E+03   -0.88050456E-09    0.10149793E-05
    7   -0.19433009E+03   -0.18928858E-10    0.36102473E-06
    8   -0.19433009E+03   -0.36948222E-12    0.61884951E-07
    9   -0.19433009E+03    0.00000000E+00    0.95521635E-08

Total Energy:                     -192.3760771971 H        -5234.8194 eV
Extrapolated to 0K:               -192.3760771971 H        -5234.8194 eV
Total Mermin free energy:         -192.3760771971 H        -5234.8194 eV
Force related energy:             -192.3760771971 H        -5234.8194 eV

Volume:                              0.999667E+04 au^3   0.148135E+04 A^3
Pressure:                            0.609509E-06 au     0.179324E+08 Pa
>> Charges saved for restart in charges.bin

total energy  -1.9237608E+02 H       energy change -1.4433083E-04 H
gradient norm  8.8280277E-03 H/a0    max. gradient  1.7102829E-03 H/a0
step length    6.4723377E-02 a0      max. step      1.3599351E-02 a0

--------------------------------------------------------------------------------

***  Geometry step: 31

 iSCC Total electronic   Diff electronic      SCC error    
    1   -0.19433009E+03    0.00000000E+00    0.24853095E-02
    2   -0.19433113E+03   -0.10426078E-02    0.10605011E-02
    3   -0.19433113E+03   -0.38299247E-05    0.22500767E-03
    4   -0.19433113E+03   -0.82558648E-06    0.42205792E-04
    5   -0.19433113E+03   -0.10131430E-07    0.70071683E-05
    6   -0.19433113E+03   -0.69636030E-09    0.17923005E-05
    7   -0.19433113E+03   -0.20122570E-10    0.50998159E-06
    8   -0.19433113E+03   -0.28421709E-12    0.68490575E-07
    9   -0.19433113E+03   -0.17053026E-12    0.17542418E-07
   10   -0.19433113E+03    0.56843419E-13    0.35132772E-08

Total Energy:                     -192.3762154639 H        -5234.8232 eV
Extrapolated to 0K:               -192.3762154639 H        -5234.8232 eV
Total Mermin free energy:         -192.3762154639 H        -5234.8232 eV
Force related energy:             -192.3762154639 H        -5234.8232 eV

Volume:                              0.100010E+05 au^3   0.148200E+04 A^3
Pressure:                            0.497809E-06 au     0.146460E+08 Pa
>> Charges saved for restart in charges.bin

total energy  -1.9237622E+02 H       energy change -1.3826682E-04 H
gradient norm  9.5284145E-03 H/a0    max. gradient  2.6772139E-03 H/a0
step length    6.2426534E-02 a0      max. step      1.3439849E-02 a0

--------------------------------------------------------------------------------

***  Geometry step: 32

 iSCC Total electronic   Diff electronic      SCC error    
    1   -0.19433113E+03    0.00000000E+00    0.22118637E-02
    2   -0.19433281E+03   -0.16791226E-02    0.10135833E-02
    3   -0.19433282E+03   -0.33980159E-05    0.35325171E-03
    4   -0.19433282E+03   -0.72101602E-06    0.52248849E-04
    5   -0.19433282E+03   -0.80067082E-08    0.75192098E-05
    6   -0.19433282E+03   -0.75627327E-09    0.18055942E-05
    7   -0.19433282E+03   -0.14125590E-10    0.39757149E-06
    8   -0.19433282E+03   -0.31263880E-12    0.87688548E-07
    9   -0.19433282E+03    0.28421709E-13    0.21516271E-07
   10   -0.19433282E+03   -0.56843419E-13    0.25452067E-08

Total Energy:                     -192.3763622034 H        -5234.8272 eV
Extrapolated to 0K:               -192.3763622034 H        -5234.8272 eV
Total Mermin free energy:         -192.3763622034 H        -5234.8272 eV
Force related energy:             -192.3763622034 H        -5234.8272 eV

Volume:                              0.100036E+05 au^3   0.148238E+04 A^3
Pressure:                            0.852019E-06 au     0.250672E+08 Pa
>> Charges saved for restart in charges.bin

total energy  -1.9237636E+02 H       energy change -1.4673948E-04 H
gradient norm  9.9791795E-03 H/a0    max. gradient  2.5297431E-03 H/a0
step length    6.3727831E-02 a0      max. step      1.3934293E-02 a0

--------------------------------------------------------------------------------

***  Geometry step: 33

 iSCC Total electronic   Diff electronic      SCC error    
    1   -0.19433282E+03    0.00000000E+00    0.22178515E-02
    2   -0.19433497E+03   -0.21538084E-02    0.13734324E-02
    3   -0.19433497E+03   -0.36740431E-05    0.43774934E-03
    4   -0.19433498E+03   -0.81205462E-06    0.42821788E-04
    5   -0.19433498E+03   -0.12677333E-07    0.63187057E-05
    6   -0.19433498E+03   -0.11658869E-08    0.16274745E-05
    7   -0.19433498E+03   -0.15916157E-10    0.44617567E-06
    8   -0.19433498E+03   -0.42632564E-12    0.94314957E-07
    9   -0.19433498E+03   -0.56843419E-13    0.24010619E-07
   10   -0.19433498E+03    0.28421709E-13    0.31764165E-08

Total Energy:                     -192.3765365551 H        -5234.8319 eV
Extrapolated to 0K:               -192.3765365551 H        -5234.8319 eV
Total Mermin free energy:         -192.3765365551 H        -5234.8319 eV
Force related energy:             -192.3765365551 H        -5234.8319 eV

Volume:                              0.100059E+05 au^3   0.148272E+04 A^3
Pressure:                            0.143306E-05 au     0.421621E+08 Pa
>> Charges saved for restart in charges.bin

total energy  -1.9237654E+02 H       energy change -1.7435174E-04 H
gradient norm  1.0568911E-02 H/a0    max. gradient  3.0542154E-03 H/a0
step length    8.7128764E-02 a0      max. step      1.9381999E-02 a0

--------------------------------------------------------------------------------

***  Geometry step: 34

 iSCC Total electronic   Diff electronic      SCC error    
    1   -0.19433498E+03    0.00000000E+00    0.13087189E-02
    2   -0.19433653E+03   -0.15545106E-02    0.82242448E-03
    3   -0.19433653E+03   -0.13924361E-05    0.22713824E-03
    4   -0.19433653E+03   -0.32784919E-06    0.27228563E-04
    5   -0.19433653E+03   -0.10838022E-07    0.47512638E-05
    6   -0.19433653E+03   -0.51306870E-09    0.10318337E-05
    7   -0.19433653E+03   -0.69633188E-11    0.33973219E-06
    8   -0.19433653E+03   -0.19895197E-12    0.60830958E-07
    9   -0.19433653E+03   -0.28421709E-13    0.11494692E-07
   10   -0.19433653E+03    0.00000000E+00    0.14317392E-08

Total Energy:                     -192.3767048857 H        -5234.8365 eV
Extrapolated to 0K:               -192.3767048857 H        -5234.8365 eV
Total Mermin free energy:         -192.3767048857 H        -5234.8365 eV
Force related energy:             -192.3767048857 H        -5234.8365 eV

Volume:                              0.100077E+05 au^3   0.148299E+04 A^3
Pressure:                            0.188077E-05 au     0.553342E+08 Pa
>> Charges saved for restart in charges.bin

total energy  -1.9237670E+02 H       energy change -1.6833056E-04 H
gradient norm  1.0060082E-02 H/a0    max. gradient  3.4892060E-03 H/a0
step length    8.3094832E-02 a0      max. step      1.8885085E-02 a0

--------------------------------------------------------------------------------

***  Geometry step: 35

 iSCC Total electronic   Diff electronic      SCC error    
    1   -0.19433653E+03    0.00000000E+00    0.26269638E-02
    2   -0.19433778E+03   -0.12502296E-02    0.15001221E-02
    3   -0.19433779E+03   -0.31117632E-05    0.26004133E-03
    4   -0.19433779E+03   -0.72507783E-06    0.36520737E-04
    5   -0.19433779E+03   -0.21598254E-07    0.14903617E-04
    6   -0.19433779E+03   -0.96082431E-09    0.28410861E-05
    7   -0.19433779E+03   -0.22481572E-10    0.44010714E-06
    8   -0.19433779E+03   -0.56843419E-12    0.11315637E-06
    9   -0.19433779E+03   -0.14210855E-12    0.20008894E-07
   10   -0.19433779E+03    0.00000000E+00    0.31127998E-08

Total Energy:                     -192.3768981276 H        -5234.8417 eV
Extrapolated to 0K:               -192.3768981276 H        -5234.8417 eV
Total Mermin free energy:         -192.3768981276 H        -5234.8417 eV
Force related energy:             -192.3768981276 H        -5234.8417 eV

Volume:                              0.100102E+05 au^3   0.148336E+04 A^3
Pressure:                            0.227549E-05 au     0.669471E+08 Pa
>> Charges saved for restart in charges.bin

total energy  -1.9237690E+02 H       energy change -1.9324197E-04 H
gradient norm  9.8655195E-03 H/a0    max. gradient  2.5950573E-03 H/a0
step length    1.0827881E-01 a0      max. step      2.4816406E-02 a0

--------------------------------------------------------------------------------

***  Geometry step: 36

 iSCC Total electronic   Diff electronic      SCC error    
    1   -0.19433779E+03    0.00000000E+00    0.28786860E-02
    2   -0.19433796E+03   -0.16922612E-03    0.16263984E-02
    3   -0.19433796E+03   -0.26336449E-05    0.28843739E-03
    4   -0.19433796E+03   -0.60508350E-06    0.24890540E-04
    5   -0.19433796E+03   -0.14767124E-07    0.14773331E-04
    6   -0.19433796E+03   -0.80456175E-09    0.20327964E-05
    7   -0.19433796E+03   -0.19582558E-10    0.39997012E-06
    8   -0.19433796E+03   -0.39790393E-12    0.95017965E-07
    9   -0.19433796E+03   -0.11368684E-12    0.17729727E-07
   10   -0.19433796E+03   -0.56843419E-13    0.24533326E-08

Total Energy:                     -192.3770373146 H        -5234.8455 eV
Extrapolated to 0K:               -192.3770373146 H        -5234.8455 eV
Total Mermin free energy:         -192.3770373146 H        -5234.8455 eV
Force related energy:             -192.3770373146 H        -5234.8455 eV

Volume:                              0.100130E+05 au^3   0.148377E+04 A^3
Pressure:                            0.210915E-05 au     0.620534E+08 Pa
>> Charges saved for restart in charges.bin

total energy  -1.9237704E+02 H       energy change -1.3918693E-04 H
gradient norm  9.1545861E-03 H/a0    max. gradient  2.1658701E-03 H/a0
step length    8.4449998E-02 a0      max. step      1.9133421E-02 a0

--------------------------------------------------------------------------------

***  Geometry step: 37

 iSCC Total electronic   Diff electronic      SCC error    
    1   -0.19433796E+03    0.00000000E+00    0.31556002E-02
    2   -0.19433838E+03   -0.41651162E-03    0.17718080E-02
    3   -0.19433838E+03   -0.27222577E-05    0.30197838E-03
    4   -0.19433838E+03   -0.62080696E-06    0.32112521E-04
    5   -0.19433838E+03   -0.14999330E-07    0.12970526E-04
    6   -0.19433838E+03   -0.78802032E-09    0.18998597E-05
    7   -0.19433838E+03   -0.17251978E-10    0.37744613E-06
    8   -0.19433838E+03   -0.48316906E-12    0.67406740E-07
    9   -0.19433838E+03   -0.14210855E-12    0.14111516E-07
   10   -0.19433838E+03    0.00000000E+00    0.22084166E-08

Total Energy:                     -192.3771689046 H        -5234.8491 eV
Extrapolated to 0K:               -192.3771689046 H        -5234.8491 eV
Total Mermin free energy:         -192.3771689046 H        -5234.8491 eV
Force related energy:             -192.3771689046 H        -5234.8491 eV

Volume:                              0.100157E+05 au^3   0.148417E+04 A^3
Pressure:                            0.196713E-05 au     0.578750E+08 Pa
>> Charges saved for restart in charges.bin

total energy  -1.9237717E+02 H       energy change -1.3159007E-04 H
gradient norm  8.0576213E-03 H/a0    max. gradient  1.6895394E-03 H/a0
step length    8.3231421E-02 a0      max. step      1.8312040E-02 a0

--------------------------------------------------------------------------------

***  Geometry step: 38

 iSCC Total electronic   Diff electronic      SCC error    
    1   -0.19433838E+03    0.00000000E+00    0.14753186E-02
    2   -0.19433919E+03   -0.81492531E-03    0.81716277E-03
    3   -0.19433919E+03   -0.12901975E-05    0.16710928E-03
    4   -0.19433919E+03   -0.25700683E-06    0.30889026E-04
    5   -0.19433919E+03   -0.61671130E-08    0.64169988E-05
    6   -0.19433919E+03   -0.41421799E-09    0.11394661E-05
    7   -0.19433919E+03   -0.76170181E-11    0.17028539E-06
    8   -0.19433919E+03   -0.39790393E-12    0.57562794E-07
    9   -0.19433919E+03   -0.28421709E-13    0.16075583E-07
   10   -0.19433919E+03    0.00000000E+00    0.13949708E-08

Total Energy:                     -192.3772670111 H        -5234.8518 eV
Extrapolated to 0K:               -192.3772670111 H        -5234.8518 eV
Total Mermin free energy:         -192.3772670111 H        -5234.8518 eV
Force related energy:             -192.3772670111 H        -5234.8518 eV

Volume:                              0.100176E+05 au^3   0.148446E+04 A^3
Pressure:                            0.182485E-05 au     0.536890E+08 Pa
>> Charges saved for restart in charges.bin

total energy  -1.9237727E+02 H       energy change -9.8106510E-05 H
gradient norm  7.5968756E-03 H/a0    max. gradient  1.7820257E-03 H/a0
step length    5.7558398E-02 a0      max. step      1.2004413E-02 a0

--------------------------------------------------------------------------------

***  Geometry step: 39

 iSCC Total electronic   Diff electronic      SCC error    
    1   -0.19433919E+03    0.00000000E+00    0.16966090E-02
    2   -0.19434111E+03   -0.19111093E-02    0.62813178E-03
    3   -0.19434111E+03   -0.19930106E-05    0.18563625E-03
    4   -0.19434111E+03   -0.37944892E-06    0.27667877E-04
    5   -0.19434111E+03   -0.73918898E-08    0.72895662E-05
    6   -0.19434111E+03   -0.47569415E-09    0.15779786E-05
    7   -0.19434111E+03   -0.16086688E-10    0.26708735E-06
    8   -0.19434111E+03   -0.31263880E-12    0.79664132E-07
    9   -0.19434111E+03   -0.85265128E-13    0.16605640E-07
   10   -0.19434111E+03    0.00000000E+00    0.22045161E-08

Total Energy:                     -192.3773771261 H        -5234.8548 eV
Extrapolated to 0K:               -192.3773771261 H        -5234.8548 eV
Total Mermin free energy:         -192.3773771261 H        -5234.8548 eV
Force related energy:             -192.3773771261 H        -5234.8548 eV

Volume:                              0.100198E+05 au^3   0.148478E+04 A^3
Pressure:                            0.195905E-05 au     0.576373E+08 Pa
>> Charges saved for restart in charges.bin

total energy  -1.9237738E+02 H       energy change -1.1011498E-04 H
gradient norm  7.9148964E-03 H/a0    max. gradient  1.9553380E-03 H/a0
step length    6.5098818E-02 a0      max. step      1.4048868E-02 a0

--------------------------------------------------------------------------------

***  Geometry step: 40

 iSCC Total electronic   Diff electronic      SCC error    
    1   -0.19434111E+03    0.00000000E+00    0.13890946E-02
    2   -0.19434301E+03   -0.19017774E-02    0.66591021E-03
    3   -0.19434301E+03   -0.15821159E-05    0.17998910E-03
    4   -0.19434301E+03   -0.32066220E-06    0.31177415E-04
    5   -0.19434301E+03   -0.51717564E-08    0.70453827E-05
    6   -0.19434301E+03   -0.35439029E-09    0.12225170E-05
    7   -0.19434301E+03   -0.12164492E-10    0.22493227E-06
    8   -0.19434301E+03   -0.31263880E-12    0.59360783E-07
    9   -0.19434301E+03   -0.28421709E-13    0.12636848E-07
   10   -0.19434301E+03    0.56843419E-13    0.19576922E-08

Total Energy:                     -192.3774641363 H        -5234.8571 eV
Extrapolated to 0K:               -192.3774641363 H        -5234.8571 eV
Total Mermin free energy:         -192.3774641363 H        -5234.8571 eV
Force related energy:             -192.3774641363 H        -5234.8571 eV

Volume:                              0.100220E+05 au^3   0.148511E+04 A^3
Pressure:                            0.222000E-05 au     0.653146E+08 Pa
>> Charges saved for restart in charges.bin

total energy  -1.9237746E+02 H       energy change -8.7010142E-05 H
gradient norm  7.6298664E-03 H/a0    max. gradient  1.9454111E-03 H/a0
step length    5.4990853E-02 a0      max. step      1.2021918E-02 a0

--------------------------------------------------------------------------------

***  Geometry step: 41

 iSCC Total electronic   Diff electronic      SCC error    
    1   -0.19434301E+03    0.00000000E+00    0.18777292E-02
    2   -0.19434471E+03   -0.16949774E-02    0.10726822E-02
    3   -0.19434471E+03   -0.15064931E-05    0.22935707E-03
    4   -0.19434471E+03   -0.34000107E-06    0.30910686E-04
    5   -0.19434471E+03   -0.55925682E-08    0.81043996E-05
    6   -0.19434471E+03   -0.36865799E-09    0.12333780E-05
    7   -0.19434471E+03   -0.10260237E-10    0.24159147E-06
    8   -0.19434471E+03   -0.45474735E-12    0.70920984E-07
    9   -0.19434471E+03    0.00000000E+00    0.14473264E-07
   10   -0.19434471E+03    0.00000000E+00    0.16367681E-08

Total Energy:                     -192.3775488333 H        -5234.8595 eV
Extrapolated to 0K:               -192.3775488333 H        -5234.8595 eV
Total Mermin free energy:         -192.3775488333 H        -5234.8595 eV
Force related energy:             -192.3775488333 H        -5234.8595 eV

Volume:                              0.100250E+05 au^3   0.148555E+04 A^3
Pressure:                            0.253642E-05 au     0.746240E+08 Pa
>> Charges saved for restart in charges.bin

total energy  -1.9237755E+02 H       energy change -8.4697043E-05 H
gradient norm  6.8525358E-03 H/a0    max. gradient  1.3865411E-03 H/a0
step length    5.7992274E-02 a0      max. step      1.2775928E-02 a0

--------------------------------------------------------------------------------

***  Geometry step: 42

 iSCC Total electronic   Diff electronic      SCC error    
    1   -0.19434471E+03    0.00000000E+00    0.13720896E-02
    2   -0.19434534E+03   -0.62941273E-03    0.76975760E-03
    3   -0.19434534E+03   -0.87540585E-06    0.13706869E-03
    4   -0.19434534E+03   -0.20431850E-06    0.21885647E-04
    5   -0.19434534E+03   -0.37167638E-08    0.60704044E-05
    6   -0.19434534E+03   -0.24306246E-09    0.12939582E-05
    7   -0.19434534E+03   -0.61390892E-11    0.20775277E-06
    8   -0.19434534E+03   -0.31263880E-12    0.56064775E-07
    9   -0.19434534E+03    0.11368684E-12    0.13433545E-07
   10   -0.19434534E+03   -0.85265128E-13    0.13952715E-08

Total Energy:                     -192.3776210527 H        -5234.8614 eV
Extrapolated to 0K:               -192.3776210527 H        -5234.8614 eV
Total Mermin free energy:         -192.3776210527 H        -5234.8614 eV
Force related energy:             -192.3776210527 H        -5234.8614 eV

Volume:                              0.100287E+05 au^3   0.148610E+04 A^3
Pressure:                            0.250476E-05 au     0.736925E+08 Pa
>> Charges saved for restart in charges.bin

total energy  -1.9237762E+02 H       energy change -7.2219402E-05 H
gradient norm  6.3773878E-03 H/a0    max. gradient  1.4050513E-03 H/a0
step length    5.1373911E-02 a0      max. step      1.1187565E-02 a0

--------------------------------------------------------------------------------

***  Geometry step: 43

 iSCC Total electronic   Diff electronic      SCC error    
    1   -0.19434534E+03    0.00000000E+00    0.11746442E-02
    2   -0.19434525E+03    0.86159361E-04    0.51929017E-03
    3   -0.19434525E+03   -0.10113858E-05    0.14371983E-03
    4   -0.19434525E+03   -0.20888487E-06    0.20390451E-04
    5   -0.19434525E+03   -0.41679016E-08    0.56540870E-05
    6   -0.19434525E+03   -0.31300829E-09    0.14914726E-05
    7   -0.19434525E+03   -0.55422333E-11    0.24404103E-06
    8   -0.19434525E+03   -0.19895197E-12    0.49964121E-07
    9   -0.19434525E+03    0.85265128E-13    0.12414985E-07
   10   -0.19434525E+03   -0.11368684E-12    0.17168285E-08

Total Energy:                     -192.3776961286 H        -5234.8635 eV
Extrapolated to 0K:               -192.3776961286 H        -5234.8635 eV
Total Mermin free energy:         -192.3776961286 H        -5234.8635 eV
Force related energy:             -192.3776961286 H        -5234.8635 eV

Volume:                              0.100338E+05 au^3   0.148685E+04 A^3
Pressure:                            0.201843E-05 au     0.593843E+08 Pa
>> Charges saved for restart in charges.bin

total energy  -1.9237770E+02 H       energy change -7.5075937E-05 H
gradient norm  6.8173978E-03 H/a0    max. gradient  1.6550176E-03 H/a0
step length    5.7606980E-02 a0      max. step      1.2479021E-02 a0

--------------------------------------------------------------------------------

***  Geometry step: 44

 iSCC Total electronic   Diff electronic      SCC error    
    1   -0.19434525E+03    0.00000000E+00    0.12205976E-02
    2   -0.19434507E+03    0.18557392E-03    0.53195975E-03
    3   -0.19434507E+03   -0.10658362E-05    0.16325133E-03
    4   -0.19434507E+03   -0.21395920E-06    0.18362986E-04
    5   -0.19434507E+03   -0.43072248E-08    0.25726022E-05
    6   -0.19434507E+03   -0.34251002E-09    0.84143245E-06
    7   -0.19434507E+03   -0.55138116E-11    0.20761893E-06
    8   -0.19434507E+03   -0.56843419E-13    0.34830209E-07
    9   -0.19434507E+03    0.56843419E-13    0.73093527E-08

Total Energy:                     -192.3777759818 H        -5234.8656 eV
Extrapolated to 0K:               -192.3777759818 H        -5234.8656 eV
Total Mermin free energy:         -192.3777759818 H        -5234.8656 eV
Force related energy:             -192.3777759818 H        -5234.8656 eV

Volume:                              0.100396E+05 au^3   0.148772E+04 A^3
Pressure:                            0.145195E-05 au     0.427177E+08 Pa
>> Charges saved for restart in charges.bin

total energy  -1.9237778E+02 H       energy change -7.9853148E-05 H
gradient norm  7.2095700E-03 H/a0    max. gradient  1.9039853E-03 H/a0
step length    6.6358401E-02 a0      max. step      1.4460160E-02 a0

--------------------------------------------------------------------------------

***  Geometry step: 45

 iSCC Total electronic   Diff electronic      SCC error    
    1   -0.19434507E+03    0.00000000E+00    0.10147703E-02
    2   -0.19434469E+03    0.37708219E-03    0.58932063E-03
    3   -0.19434469E+03   -0.10790862E-05    0.17057446E-03
    4   -0.19434469E+03   -0.22549878E-06    0.18150232E-04
    5   -0.19434469E+03   -0.36865515E-08    0.29537753E-05
    6   -0.19434469E+03   -0.24880364E-09    0.56839532E-06
    7   -0.19434469E+03   -0.23021585E-11    0.13806488E-06
    8   -0.19434469E+03   -0.28421709E-13    0.36468643E-07
    9   -0.19434469E+03    0.28421709E-13    0.12081884E-07
   10   -0.19434469E+03   -0.85265128E-13    0.10947701E-08

Total Energy:                     -192.3778545169 H        -5234.8678 eV
Extrapolated to 0K:               -192.3778545169 H        -5234.8678 eV
Total Mermin free energy:         -192.3778545169 H        -5234.8678 eV
Force related energy:             -192.3778545169 H        -5234.8678 eV

Volume:                              0.100461E+05 au^3   0.148867E+04 A^3
Pressure:                            0.755449E-06 au     0.222261E+08 Pa
>> Charges saved for restart in charges.bin

total energy  -1.9237785E+02 H       energy change -7.8535139E-05 H
gradient norm  6.8188493E-03 H/a0    max. gradient  1.2561952E-03 H/a0
step length    7.1453298E-02 a0      max. step      1.5616000E-02 a0

--------------------------------------------------------------------------------

***  Geometry step: 46

 iSCC Total electronic   Diff electronic      SCC error    
    1   -0.19434469E+03    0.00000000E+00    0.98131505E-03
    2   -0.19434472E+03   -0.20830828E-04    0.44925167E-03
    3   -0.19434472E+03   -0.10632542E-05    0.14567936E-03
    4   -0.19434472E+03   -0.24462884E-06    0.19458033E-04
    5   -0.19434472E+03   -0.36853578E-08    0.44605985E-05
    6   -0.19434472E+03   -0.24235192E-09    0.69242455E-06
    7   -0.19434472E+03   -0.35242920E-11    0.18191518E-06
    8   -0.19434472E+03    0.85265128E-13    0.44052587E-07
    9   -0.19434472E+03   -0.11368684E-12    0.11697239E-07
   10   -0.19434472E+03    0.00000000E+00    0.86598906E-09

Total Energy:                     -192.3779302009 H        -5234.8698 eV
Extrapolated to 0K:               -192.3779302009 H        -5234.8698 eV
Total Mermin free energy:         -192.3779302009 H        -5234.8698 eV
Force related energy:             -192.3779302009 H        -5234.8698 eV

Volume:                              0.100518E+05 au^3   0.148953E+04 A^3
Pressure:                            0.196742E-06 au     0.578835E+07 Pa
>> Charges saved for restart in charges.bin

total energy  -1.9237793E+02 H       energy change -7.5683943E-05 H
gradient norm  6.2240266E-03 H/a0    max. gradient  1.0553342E-03 H/a0
step length    7.0938122E-02 a0      max. step      1.5716811E-02 a0

--------------------------------------------------------------------------------

***  Geometry step: 47

 iSCC Total electronic   Diff electronic      SCC error    
    1   -0.19434472E+03    0.00000000E+00    0.10707182E-02
    2   -0.19434552E+03   -0.80378784E-03    0.45654151E-03
    3   -0.19434552E+03   -0.11726768E-05    0.13270781E-03
    4   -0.19434552E+03   -0.26995070E-06    0.19990807E-04
    5   -0.19434552E+03   -0.46049990E-08    0.41800333E-05
    6   -0.19434552E+03   -0.33813308E-09    0.86343667E-06
    7   -0.19434552E+03   -0.58264504E-11    0.20593605E-06
    8   -0.19434552E+03   -0.14210855E-12    0.61088978E-07
    9   -0.19434552E+03   -0.56843419E-13    0.11482641E-07
   10   -0.19434552E+03   -0.28421709E-13    0.22160043E-08

Total Energy:                     -192.3780002713 H        -5234.8717 eV
Extrapolated to 0K:               -192.3780002713 H        -5234.8717 eV
Total Mermin free energy:         -192.3780002713 H        -5234.8717 eV
Force related energy:             -192.3780002713 H        -5234.8717 eV

Volume:                              0.100565E+05 au^3   0.149023E+04 A^3
Pressure:                           -0.974399E-07 au    -0.286678E+07 Pa
>> Charges saved for restart in charges.bin

total energy  -1.9237800E+02 H       energy change -7.0070466E-05 H
gradient norm  6.6218209E-03 H/a0    max. gradient  1.3961243E-03 H/a0
step length    7.2309749E-02 a0      max. step      1.6399764E-02 a0

--------------------------------------------------------------------------------

***  Geometry step: 48

 iSCC Total electronic   Diff electronic      SCC error    
    1   -0.19434552E+03    0.00000000E+00    0.83471104E-03
    2   -0.19434690E+03   -0.13821274E-02    0.36000420E-03
    3   -0.19434690E+03   -0.82285470E-06    0.10622505E-03
    4   -0.19434690E+03   -0.18609859E-06    0.13871075E-04
    5   -0.19434690E+03   -0.36728522E-08    0.28766375E-05
    6   -0.19434690E+03   -0.28794034E-09    0.49045639E-06
    7   -0.19434690E+03   -0.64233063E-11    0.18772512E-06
    8   -0.19434690E+03   -0.19895197E-12    0.54769106E-07
    9   -0.19434690E+03    0.56843419E-13    0.82057872E-08

Total Energy:                     -192.3780669062 H        -5234.8735 eV
Extrapolated to 0K:               -192.3780669062 H        -5234.8735 eV
Total Mermin free energy:         -192.3780669062 H        -5234.8735 eV
Force related energy:             -192.3780669062 H        -5234.8735 eV

Volume:                              0.100592E+05 au^3   0.149062E+04 A^3
Pressure:                            0.230693E-08 au     0.678723E+05 Pa
>> Charges saved for restart in charges.bin

total energy  -1.9237807E+02 H       energy change -6.6634850E-05 H
gradient norm  6.9761106E-03 H/a0    max. gradient  1.8595191E-03 H/a0
step length    5.9098248E-02 a0      max. step      1.3652067E-02 a0

--------------------------------------------------------------------------------

***  Geometry step: 49

 iSCC Total electronic   Diff electronic      SCC error    
    1   -0.19434690E+03    0.00000000E+00    0.10342313E-02
    2   -0.19434901E+03   -0.21062302E-02    0.65192502E-03
    3   -0.19434901E+03   -0.13117501E-05    0.21059579E-03
    4   -0.19434901E+03   -0.26950232E-06    0.19072543E-04
    5   -0.19434901E+03   -0.65464576E-08    0.28881382E-05
    6   -0.19434901E+03   -0.37880454E-09    0.73959071E-06
    7   -0.19434901E+03   -0.64233063E-11    0.25238084E-06
    8   -0.19434901E+03   -0.85265128E-13    0.55112007E-07
    9   -0.19434901E+03   -0.28421709E-13    0.14318199E-07
   10   -0.19434901E+03   -0.28421709E-13    0.17340991E-08

Total Energy:                     -192.3781549230 H        -5234.8759 eV
Extrapolated to 0K:               -192.3781549230 H        -5234.8759 eV
Total Mermin free energy:         -192.3781549230 H        -5234.8759 eV
Force related energy:             -192.3781549230 H        -5234.8759 eV

Volume:                              0.100617E+05 au^3   0.149099E+04 A^3
Pressure:                            0.433193E-06 au     0.127450E+08 Pa
>> Charges saved for restart in charges.bin

total energy  -1.9237815E+02 H       energy change -8.8016853E-05 H
gradient norm  6.9350786E-03 H/a0    max. gradient  1.7419860E-03 H/a0
step length    7.7186823E-02 a0      max. step      1.7717219E-02 a0

--------------------------------------------------------------------------------

***  Geometry step: 50

 iSCC Total electronic   Diff electronic      SCC error    
    1   -0.19434901E+03    0.00000000E+00    0.12618304E-02
    2   -0.19435024E+03   -0.12269623E-02    0.77348313E-03
    3   -0.19435024E+03   -0.97282518E-06    0.22851660E-03
    4   -0.19435024E+03   -0.19593278E-06    0.14610931E-04
    5   -0.19435024E+03   -0.51691700E-08    0.23529179E-05
    6   -0.19435024E+03   -0.26886937E-09    0.56190754E-06
    7   -0.19435024E+03   -0.22453150E-11    0.19838632E-06
    8   -0.19435024E+03   -0.85265128E-13    0.40840171E-07
    9   -0.19435024E+03   -0.85265128E-13    0.10292966E-07
   10   -0.19435024E+03    0.14210855E-12    0.96667296E-09

Total Energy:                     -192.3782294193 H        -5234.8780 eV
Extrapolated to 0K:               -192.3782294193 H        -5234.8780 eV
Total Mermin free energy:         -192.3782294193 H        -5234.8780 eV
Force related energy:             -192.3782294193 H        -5234.8780 eV

Volume:                              0.100639E+05 au^3   0.149131E+04 A^3
Pressure:                            0.678734E-06 au     0.199690E+08 Pa
>> Charges saved for restart in charges.bin

total energy  -1.9237823E+02 H       energy change -7.4496296E-05 H
gradient norm  6.6823500E-03 H/a0    max. gradient  1.2175027E-03 H/a0
step length    7.0670742E-02 a0      max. step      1.5957628E-02 a0

--------------------------------------------------------------------------------

***  Geometry step: 51

 iSCC Total electronic   Diff electronic      SCC error    
    1   -0.19435024E+03    0.00000000E+00    0.15162538E-02
    2   -0.19435060E+03   -0.36006091E-03    0.72481633E-03
    3   -0.19435060E+03   -0.11916022E-05    0.23647530E-03
    4   -0.19435060E+03   -0.25480279E-06    0.19375396E-04
    5   -0.19435060E+03   -0.46551349E-08    0.20142537E-05
    6   -0.19435060E+03   -0.39264592E-09    0.49775260E-06
    7   -0.19435060E+03   -0.48885340E-11    0.21190166E-06
    8   -0.19435060E+03   -0.56843419E-13    0.32613777E-07
    9   -0.19435060E+03    0.56843419E-13    0.75171602E-08

Total Energy:                     -192.3783043844 H        -5234.8800 eV
Extrapolated to 0K:               -192.3783043844 H        -5234.8800 eV
Total Mermin free energy:         -192.3783043844 H        -5234.8800 eV
Force related energy:             -192.3783043844 H        -5234.8800 eV

Volume:                              0.100661E+05 au^3   0.149164E+04 A^3
Pressure:                            0.766930E-06 au     0.225639E+08 Pa
>> Charges saved for restart in charges.bin

total energy  -1.9237830E+02 H       energy change -7.4965037E-05 H
gradient norm  6.5097384E-03 H/a0    max. gradient  1.2644291E-03 H/a0
step length    6.7780795E-02 a0      max. step      1.4934642E-02 a0

--------------------------------------------------------------------------------

***  Geometry step: 52

 iSCC Total electronic   Diff electronic      SCC error    
    1   -0.19435060E+03    0.00000000E+00    0.13280494E-02
    2   -0.19434984E+03    0.76061579E-03    0.82346860E-03
    3   -0.19434984E+03   -0.16711423E-05    0.28726176E-03
    4   -0.19434984E+03   -0.37069773E-06    0.24223169E-04
    5   -0.19434984E+03   -0.68838517E-08    0.50047865E-05
    6   -0.19434984E+03   -0.58344085E-09    0.13398791E-05
[...]

Total Energy:                     -192.3802875398 H        -5234.9340 eV
Extrapolated to 0K:               -192.3802875398 H        -5234.9340 eV
Total Mermin free energy:         -192.3802875398 H        -5234.9340 eV
Force related energy:             -192.3802875398 H        -5234.9340 eV

Volume:                              0.997061E+04 au^3   0.147749E+04 A^3
Pressure:                            0.171523E-06 au     0.504636E+07 Pa
>> Charges saved for restart in charges.bin

total energy  -1.9238029E+02 H       energy change -1.5894852E-06 H
gradient norm  1.0681311E-03 H/a0    max. gradient  2.5611699E-04 H/a0
step length    4.1069529E-03 a0      max. step      1.0187163E-03 a0

--------------------------------------------------------------------------------

***  Geometry step: 210

 iSCC Total electronic   Diff electronic      SCC error    
    1   -0.19434649E+03    0.00000000E+00    0.21288646E-03
    2   -0.19434649E+03    0.74011865E-05    0.84667118E-04
    3   -0.19434649E+03   -0.29420477E-07    0.14364654E-04
    4   -0.19434649E+03   -0.64870278E-08    0.22210357E-05
    5   -0.19434649E+03   -0.48288484E-10    0.59096683E-06
    6   -0.19434649E+03   -0.33537617E-11    0.89185521E-07
    7   -0.19434649E+03   -0.28421709E-13    0.10675068E-07
    8   -0.19434649E+03    0.00000000E+00    0.43297397E-08

Total Energy:                     -192.3802891297 H        -5234.9340 eV
Extrapolated to 0K:               -192.3802891297 H        -5234.9340 eV
Total Mermin free energy:         -192.3802891297 H        -5234.9340 eV
Force related energy:             -192.3802891297 H        -5234.9340 eV

Volume:                              0.997066E+04 au^3   0.147750E+04 A^3
Pressure:                            0.176783E-06 au     0.520114E+07 Pa
>> Charges saved for restart in charges.bin

total energy  -1.9238029E+02 H       energy change -1.5898263E-06 H
gradient norm  1.0820686E-03 H/a0    max. gradient  2.2948482E-04 H/a0
step length    4.8120184E-03 a0      max. step      1.1888700E-03 a0

--------------------------------------------------------------------------------

***  Geometry step: 211

 iSCC Total electronic   Diff electronic      SCC error    
    1   -0.19434649E+03    0.00000000E+00    0.19595861E-03
    2   -0.19434643E+03    0.59608996E-04    0.87437214E-04
    3   -0.19434643E+03   -0.27992400E-07    0.29396134E-04
    4   -0.19434643E+03   -0.61528453E-08    0.33300263E-05
    5   -0.19434643E+03   -0.81513463E-10    0.72080411E-06
    6   -0.19434643E+03   -0.59969807E-11    0.14996664E-06
    7   -0.19434643E+03   -0.19895197E-12    0.16370348E-07
    8   -0.19434643E+03   -0.56843419E-13    0.52327471E-08

Total Energy:                     -192.3802909769 H        -5234.9341 eV
Extrapolated to 0K:               -192.3802909769 H        -5234.9341 eV
Total Mermin free energy:         -192.3802909769 H        -5234.9341 eV
Force related energy:             -192.3802909769 H        -5234.9341 eV

Volume:                              0.997073E+04 au^3   0.147751E+04 A^3
Pressure:                            0.124744E-06 au     0.367010E+07 Pa
>> Charges saved for restart in charges.bin

total energy  -1.9238029E+02 H       energy change -1.8472054E-06 H
gradient norm  1.1431096E-03 H/a0    max. gradient  2.4880932E-04 H/a0
step length    6.7095574E-03 a0      max. step      1.7957280E-03 a0

--------------------------------------------------------------------------------

***  Geometry step: 212

 iSCC Total electronic   Diff electronic      SCC error    
    1   -0.19434643E+03    0.00000000E+00    0.19104330E-03
    2   -0.19434640E+03    0.25897460E-04    0.10636437E-03
    3   -0.19434640E+03   -0.40563833E-07    0.35604642E-04
    4   -0.19434640E+03   -0.92472305E-08    0.31032914E-05
    5   -0.19434640E+03   -0.15018031E-09    0.77050570E-06
    6   -0.19434640E+03   -0.99191766E-11    0.14114893E-06
    7   -0.19434640E+03   -0.11368684E-12    0.16510887E-07
    8   -0.19434640E+03    0.56843419E-13    0.58873986E-08

Total Energy:                     -192.3802929167 H        -5234.9341 eV
Extrapolated to 0K:               -192.3802929167 H        -5234.9341 eV
Total Mermin free energy:         -192.3802929167 H        -5234.9341 eV
Force related energy:             -192.3802929167 H        -5234.9341 eV

Volume:                              0.997055E+04 au^3   0.147748E+04 A^3
Pressure:                            0.171369E-06 au     0.504185E+07 Pa
>> Charges saved for restart in charges.bin

total energy  -1.9238029E+02 H       energy change -1.9398189E-06 H
gradient norm  1.1117452E-03 H/a0    max. gradient  3.4221243E-04 H/a0
step length    1.2572285E-02 a0      max. step      3.9183194E-03 a0

--------------------------------------------------------------------------------

***  Geometry step: 213

 iSCC Total electronic   Diff electronic      SCC error    
    1   -0.19434640E+03    0.00000000E+00    0.24078572E-03
    2   -0.19434612E+03    0.27692782E-03    0.11011630E-03
    3   -0.19434612E+03   -0.35605012E-07    0.22176926E-04
    4   -0.19434612E+03   -0.74021216E-08    0.28931935E-05
    5   -0.19434612E+03   -0.97116981E-10    0.41283237E-06
    6   -0.19434612E+03   -0.91802121E-11    0.10230616E-06
    7   -0.19434612E+03   -0.85265128E-13    0.16011974E-07
    8   -0.19434612E+03   -0.85265128E-13    0.42695110E-08

Total Energy:                     -192.3802944389 H        -5234.9342 eV
Extrapolated to 0K:               -192.3802944389 H        -5234.9342 eV
Total Mermin free energy:         -192.3802944389 H        -5234.9342 eV
Force related energy:             -192.3802944389 H        -5234.9342 eV

Volume:                              0.996960E+04 au^3   0.147734E+04 A^3
Pressure:                            0.785482E-07 au     0.231097E+07 Pa
>> Charges saved for restart in charges.bin

total energy  -1.9238029E+02 H       energy change -1.5222287E-06 H
gradient norm  1.0409275E-03 H/a0    max. gradient  2.8437177E-04 H/a0
step length    2.0207301E-02 a0      max. step      5.1471686E-03 a0

--------------------------------------------------------------------------------

***  Geometry step: 214

 iSCC Total electronic   Diff electronic      SCC error    
    1   -0.19434612E+03    0.00000000E+00    0.20517971E-03
    2   -0.19434623E+03   -0.10781956E-03    0.84177604E-04
    3   -0.19434623E+03   -0.26427870E-07    0.24208329E-04
    4   -0.19434623E+03   -0.55143801E-08    0.28025498E-05
    5   -0.19434623E+03   -0.63664629E-10    0.26760504E-06
    6   -0.19434623E+03   -0.53432814E-11    0.61925277E-07
    7   -0.19434623E+03   -0.56843419E-13    0.82625449E-08

Total Energy:                     -192.3802956711 H        -5234.9342 eV
Extrapolated to 0K:               -192.3802956711 H        -5234.9342 eV
Total Mermin free energy:         -192.3802956711 H        -5234.9342 eV
Force related energy:             -192.3802956711 H        -5234.9342 eV

Volume:                              0.996945E+04 au^3   0.147732E+04 A^3
Pressure:                            0.169426E-06 au     0.498468E+07 Pa
>> Charges saved for restart in charges.bin

total energy  -1.9238030E+02 H       energy change -1.2321450E-06 H
gradient norm  8.7117688E-04 H/a0    max. gradient  2.1887919E-04 H/a0
step length    3.5785356E-03 a0      max. step      7.9497537E-04 a0

--------------------------------------------------------------------------------

***  Geometry step: 215

 iSCC Total electronic   Diff electronic      SCC error    
    1   -0.19434623E+03    0.00000000E+00    0.23128355E-03
    2   -0.19434618E+03    0.52566958E-04    0.89681104E-04
    3   -0.19434618E+03   -0.36855965E-07    0.32438940E-04
    4   -0.19434618E+03   -0.77831430E-08    0.29115760E-05
    5   -0.19434618E+03   -0.83161922E-10    0.37506577E-06
    6   -0.19434618E+03   -0.84128260E-11    0.84511663E-07
    7   -0.19434618E+03    0.56843419E-13    0.13848315E-07
    8   -0.19434618E+03   -0.56843419E-13    0.38404782E-08

Total Energy:                     -192.3802967723 H        -5234.9342 eV
Extrapolated to 0K:               -192.3802967723 H        -5234.9342 eV
Total Mermin free energy:         -192.3802967723 H        -5234.9342 eV
Force related energy:             -192.3802967723 H        -5234.9342 eV

Volume:                              0.996928E+04 au^3   0.147730E+04 A^3
Pressure:                            0.101537E-06 au     0.298732E+07 Pa
>> Charges saved for restart in charges.bin

total energy  -1.9238030E+02 H       energy change -1.1012420E-06 H
gradient norm  7.3258630E-04 H/a0    max. gradient  1.7698909E-04 H/a0
step length    4.1525635E-03 a0      max. step      8.9228860E-04 a0

--------------------------------------------------------------------------------

***  Geometry step: 216

 iSCC Total electronic   Diff electronic      SCC error    
    1   -0.19434618E+03    0.00000000E+00    0.16334807E-03
    2   -0.19434628E+03   -0.99519027E-04    0.78620013E-04
    3   -0.19434628E+03   -0.16876641E-07    0.25586291E-04
    4   -0.19434628E+03   -0.38812971E-08    0.23044857E-05
    5   -0.19434628E+03   -0.59458216E-10    0.33694771E-06
    6   -0.19434628E+03   -0.52295945E-11    0.76698683E-07
    7   -0.19434628E+03   -0.85265128E-13    0.11134605E-07
    8   -0.19434628E+03    0.56843419E-13    0.31006597E-08

Total Energy:                     -192.3802974582 H        -5234.9342 eV
Extrapolated to 0K:               -192.3802974582 H        -5234.9342 eV
Total Mermin free energy:         -192.3802974582 H        -5234.9342 eV
Force related energy:             -192.3802974582 H        -5234.9342 eV

Volume:                              0.996912E+04 au^3   0.147727E+04 A^3
Pressure:                            0.171690E-06 au     0.505129E+07 Pa
>> Charges saved for restart in charges.bin

total energy  -1.9238030E+02 H       energy change -6.8588619E-07 H
gradient norm  6.5458471E-04 H/a0    max. gradient  1.3709556E-04 H/a0
step length    4.1539181E-03 a0      max. step      1.0200385E-03 a0

--------------------------------------------------------------------------------

***  Geometry step: 217

 iSCC Total electronic   Diff electronic      SCC error    
    1   -0.19434628E+03    0.00000000E+00    0.82958455E-04
    2   -0.19434624E+03    0.34897088E-04    0.36739938E-04
    3   -0.19434624E+03   -0.74646209E-08    0.12288844E-04
    4   -0.19434624E+03   -0.17521131E-08    0.17937121E-05
    5   -0.19434624E+03   -0.17507773E-10    0.15782363E-06
    6   -0.19434624E+03   -0.15347723E-11    0.36731258E-07
    7   -0.19434624E+03   -0.56843419E-13    0.50223612E-08

Total Energy:                     -192.3802980562 H        -5234.9343 eV
Extrapolated to 0K:               -192.3802980562 H        -5234.9343 eV
Total Mermin free energy:         -192.3802980562 H        -5234.9343 eV
Force related energy:             -192.3802980562 H        -5234.9343 eV

Volume:                              0.996905E+04 au^3   0.147726E+04 A^3
Pressure:                            0.144465E-06 au     0.425030E+07 Pa
>> Charges saved for restart in charges.bin

total energy  -1.9238030E+02 H       energy change -5.9804532E-07 H
gradient norm  6.3158483E-04 H/a0    max. gradient  1.6215954E-04 H/a0
step length    3.3069129E-03 a0      max. step      6.0218690E-04 a0

--------------------------------------------------------------------------------

***  Geometry step: 218

 iSCC Total electronic   Diff electronic      SCC error    
    1   -0.19434624E+03    0.00000000E+00    0.13672296E-03
    2   -0.19434624E+03   -0.26228426E-06    0.55079643E-04
    3   -0.19434624E+03   -0.18095733E-07    0.18149712E-04
    4   -0.19434624E+03   -0.40894008E-08    0.21023984E-05
    5   -0.19434624E+03   -0.33708147E-10    0.29371854E-06
    6   -0.19434624E+03   -0.25863756E-11    0.70269976E-07
    7   -0.19434624E+03   -0.56843419E-13    0.95375419E-08

Total Energy:                     -192.3802988787 H        -5234.9343 eV
Extrapolated to 0K:               -192.3802988787 H        -5234.9343 eV
Total Mermin free energy:         -192.3802988787 H        -5234.9343 eV
Force related energy:             -192.3802988787 H        -5234.9343 eV

Volume:                              0.996902E+04 au^3   0.147726E+04 A^3
Pressure:                            0.138070E-06 au     0.406216E+07 Pa
>> Charges saved for restart in charges.bin

total energy  -1.9238030E+02 H       energy change -8.2251196E-07 H
gradient norm  7.6314145E-04 H/a0    max. gradient  1.7349998E-04 H/a0
step length    5.1303979E-03 a0      max. step      1.0846642E-03 a0

--------------------------------------------------------------------------------

***  Geometry step: 219

 iSCC Total electronic   Diff electronic      SCC error    
    1   -0.19434624E+03    0.00000000E+00    0.20585444E-03
    2   -0.19434623E+03    0.11496160E-04    0.88494411E-04
    3   -0.19434623E+03   -0.19435561E-07    0.20964807E-04
    4   -0.19434623E+03   -0.42429917E-08    0.20544735E-05
    5   -0.19434623E+03   -0.47833737E-10    0.51154692E-06
    6   -0.19434623E+03   -0.32684966E-11    0.91587138E-07
    7   -0.19434623E+03    0.28421709E-13    0.77540596E-08

Total Energy:                     -192.3802998933 H        -5234.9343 eV
Extrapolated to 0K:               -192.3802998933 H        -5234.9343 eV
Total Mermin free energy:         -192.3802998933 H        -5234.9343 eV
Force related energy:             -192.3802998933 H        -5234.9343 eV

Volume:                              0.996898E+04 au^3   0.147725E+04 A^3
Pressure:                            0.117508E-06 au     0.345721E+07 Pa
>> Charges saved for restart in charges.bin

total energy  -1.9238030E+02 H       energy change -1.0145183E-06 H
gradient norm  9.2888696E-04 H/a0    max. gradient  2.1265598E-04 H/a0
step length    6.3321235E-03 a0      max. step      1.8314609E-03 a0

--------------------------------------------------------------------------------

***  Geometry step: 220

 iSCC Total electronic   Diff electronic      SCC error    
    1   -0.19434623E+03    0.00000000E+00    0.17856900E-03
    2   -0.19434622E+03    0.91365021E-05    0.99549262E-04
    3   -0.19434622E+03   -0.21722400E-07    0.32835852E-04
    4   -0.19434622E+03   -0.50835069E-08    0.23433193E-05
    5   -0.19434622E+03   -0.12138912E-09    0.70562164E-06
    6   -0.19434622E+03   -0.44337867E-11    0.78082717E-07
    7   -0.19434622E+03   -0.11368684E-12    0.11346944E-07
    8   -0.19434622E+03   -0.28421709E-13    0.51660125E-08

Total Energy:                     -192.3803012848 H        -5234.9343 eV
Extrapolated to 0K:               -192.3803012848 H        -5234.9343 eV
Total Mermin free energy:         -192.3803012848 H        -5234.9343 eV
Force related energy:             -192.3803012848 H        -5234.9343 eV

Volume:                              0.996891E+04 au^3   0.147724E+04 A^3
Pressure:                            0.120402E-06 au     0.354235E+07 Pa
>> Charges saved for restart in charges.bin

total energy  -1.9238030E+02 H       energy change -1.3915818E-06 H
gradient norm  9.8364732E-04 H/a0    max. gradient  2.2013892E-04 H/a0
step length    8.9662387E-03 a0      max. step      2.5394694E-03 a0

--------------------------------------------------------------------------------

***  Geometry step: 221

 iSCC Total electronic   Diff electronic      SCC error    
    1   -0.19434622E+03    0.00000000E+00    0.15176017E-03
    2   -0.19434615E+03    0.71033524E-04    0.73837698E-04
    3   -0.19434615E+03   -0.15489093E-07    0.21396792E-04
    4   -0.19434615E+03   -0.37919392E-08    0.25405546E-05
    5   -0.19434615E+03   -0.88988372E-10    0.40140722E-06
    6   -0.19434615E+03   -0.47748472E-11    0.70463101E-07
    7   -0.19434615E+03    0.28421709E-13    0.13763403E-07
    8   -0.19434615E+03   -0.56843419E-13    0.45974242E-08

Total Energy:                     -192.3803026482 H        -5234.9344 eV
Extrapolated to 0K:               -192.3803026482 H        -5234.9344 eV
Total Mermin free energy:         -192.3803026482 H        -5234.9344 eV
Force related energy:             -192.3803026482 H        -5234.9344 eV

Volume:                              0.996903E+04 au^3   0.147726E+04 A^3
Pressure:                            0.957410E-07 au     0.281680E+07 Pa
>> Charges saved for restart in charges.bin

total energy  -1.9238030E+02 H       energy change -1.3633616E-06 H
gradient norm  7.9376660E-04 H/a0    max. gradient  1.8272551E-04 H/a0
step length    9.0961594E-03 a0      max. step      2.6128213E-03 a0

--------------------------------------------------------------------------------

***  Geometry step: 222

 iSCC Total electronic   Diff electronic      SCC error    
    1   -0.19434615E+03    0.00000000E+00    0.12344219E-03
    2   -0.19434612E+03    0.35897117E-04    0.49419463E-04
    3   -0.19434612E+03   -0.15306171E-07    0.18126988E-04
    4   -0.19434612E+03   -0.34200127E-08    0.19391424E-05
    5   -0.19434612E+03   -0.47378990E-10    0.30154293E-06
    6   -0.19434612E+03   -0.32116532E-11    0.46780524E-07
    7   -0.19434612E+03   -0.28421709E-13    0.75793998E-08

Total Energy:                     -192.3803034948 H        -5234.9344 eV
Extrapolated to 0K:               -192.3803034948 H        -5234.9344 eV
Total Mermin free energy:         -192.3803034948 H        -5234.9344 eV
Force related energy:             -192.3803034948 H        -5234.9344 eV

Volume:                              0.996892E+04 au^3   0.147724E+04 A^3
Pressure:                            0.843985E-07 au     0.248309E+07 Pa
>> Charges saved for restart in charges.bin

total energy  -1.9238030E+02 H       energy change -8.4654712E-07 H
gradient norm  6.0496884E-04 H/a0    max. gradient  1.2718479E-04 H/a0
step length    5.4537932E-03 a0      max. step      1.6178809E-03 a0

--------------------------------------------------------------------------------

***  Geometry step: 223

 iSCC Total electronic   Diff electronic      SCC error    
    1   -0.19434612E+03    0.00000000E+00    0.10877860E-03
    2   -0.19434614E+03   -0.26838601E-04    0.45303733E-04
    3   -0.19434614E+03   -0.83783789E-08    0.15108015E-04
    4   -0.19434614E+03   -0.19404354E-08    0.15107754E-05
    5   -0.19434614E+03   -0.27995384E-10    0.44658387E-06
    6   -0.19434614E+03   -0.19895197E-11    0.68620663E-07
    7   -0.19434614E+03   -0.56843419E-13    0.75104678E-08

Total Energy:                     -192.3803039640 H        -5234.9344 eV
Extrapolated to 0K:               -192.3803039640 H        -5234.9344 eV
Total Mermin free energy:         -192.3803039640 H        -5234.9344 eV
Force related energy:             -192.3803039640 H        -5234.9344 eV

Volume:                              0.996890E+04 au^3   0.147724E+04 A^3
Pressure:                            0.104379E-06 au     0.307094E+07 Pa
>> Charges saved for restart in charges.bin

total energy  -1.9238030E+02 H       energy change -4.6922761E-07 H
gradient norm  5.0822000E-04 H/a0    max. gradient  9.5158162E-05 H/a0
step length    1.3982875E-03 a0      max. step      3.2777031E-04 a0

Geometry converged

--------------------------------------------------------------------------------
DFTB+ running times                          cpu [s]             wall clock [s]
--------------------------------------------------------------------------------
Pre-SCC initialisation                 +       7.89 (  0.3%)       3.62 (  0.9%)
SCC                                    +    2854.45 ( 91.8%)     372.33 ( 89.5%)
Post-SCC processing                    +     245.25 (  7.9%)      40.16 (  9.7%)
--------------------------------------------------------------------------------
Missing                                +       0.18 (  0.0%)       0.01 (  0.0%)
Total                                  =    3107.77 (100.0%)     416.12 (100.0%)
--------------------------------------------------------------------------------
