|===============================================================================
|
|  DFTB+ release 24.1
|
|  Copyright (C) 2006 - 2024  DFTB+ developers group
|
|===============================================================================
|
|  When publishing results obtained with DFTB+, please cite the following
|  reference:
|
|  * DFTB+, a software package for efficient approximate density functional
|    theory based atomistic simulations, J. Chem. Phys. 152, 124101 (2020).
|    [doi: 10.1063/1.5143190]
|
|  You should also cite additional publications crediting the parametrization
|  data you use. Please consult the documentation of the SK-files for the
|  references.
|
|===============================================================================

Reading input file 'dftb_in.hsd'
Parser version: 14

--------------------------------------------------------------------------------
Reading SK-files:
./SKFiles/Ge-Ge.skf
./SKFiles/Ge-Si.skf
./SKFiles/Ge-O.skf
./SKFiles/Si-Si.skf
./SKFiles/Si-O.skf
./SKFiles/O-O.skf
Done.


Processed input in HSD format written to 'dftb_pin.hsd'

Starting initialization...
--------------------------------------------------------------------------------
WARNING!
-> Dipole printed for extended system : value printed is not well defined
MPI processes:               1
OpenMP threads:              8
BLACS orbital grid size:     1 x 1
BLACS atom grid size:        1 x 1
Chosen random seed:          154876195
Current stacksize:           unlimited
Mode:                        Static calculation
Self consistent charges:     Yes
SCC-tolerance:                 0.100000E-07
Max. scc iterations:                    500
Shell resolved Hubbard:      No
Spin polarisation:           No
Nr. of up electrons:           192.000000
Nr. of down electrons:         192.000000
Periodic boundaries:         Yes
Electronic solver:           Relatively robust
Mixer:                       Broyden mixer
Mixing parameter:                  0.200000
Maximal SCC-cycles:                     500
Nr. of chrg. vec. in memory:            500
Electronic temperature:              0.100000E-07 H      0.272114E-06 eV
Initial charges:             Set automatically (system chrg:   0.000E+00)
Included shells:            Ge:  s, p, d
                            Si:  s, p, d
                             O:  s, p
K-points and weights:           1:  0.500000  0.500000  0.500000     1.000000

K-points in absolute space:     1:  0.025319  0.017606  0.037774

Extra options:
                             Mulliken analysis
Force type                   original

--------------------------------------------------------------------------------

***  Geometry step: 0

 iSCC Total electronic   Diff electronic      SCC error    
    1    0.00000000E+00    0.00000000E+00    0.14596795E+01
    2   -0.19479960E+03   -0.19479960E+03    0.99395821E+00
    3   -0.19516653E+03   -0.36693953E+00    0.61991654E-01
    4   -0.19548236E+03   -0.31582777E+00    0.28705555E-01
    5   -0.19548451E+03   -0.21473230E-02    0.80278265E-02
    6   -0.19548467E+03   -0.15699443E-03    0.17426115E-02
    7   -0.19548467E+03   -0.50043101E-05    0.46092125E-03
    8   -0.19548467E+03   -0.11808148E-05    0.56262686E-04
    9   -0.19548467E+03   -0.74474116E-07    0.31489438E-04
   10   -0.19548467E+03   -0.21941560E-10    0.11331891E-05
   11   -0.19548467E+03   -0.26855673E-09    0.51582721E-06
   12   -0.19548467E+03   -0.32116532E-11    0.14245276E-06
   13   -0.19548467E+03   -0.56843419E-13    0.17958197E-07
   14   -0.19548467E+03    0.56843419E-13    0.25957139E-08

Total Energy:                     -191.8768338426 H        -5221.2343 eV
Extrapolated to 0K:               -191.8768338426 H        -5221.2343 eV
Total Mermin free energy:         -191.8768338426 H        -5221.2343 eV
Force related energy:             -191.8768338426 H        -5221.2343 eV

Volume:                              0.913789E+04 au^3   0.135410E+04 A^3
Pressure:                            0.714702E-03 au     0.210273E+11 Pa
>> Charges saved for restart in charges.bin

total energy  -1.9187683E+02 H       energy change -1.9187683E+02 H
gradient norm  9.2733753E-01 H/a0    max. gradient  4.8796557E-01 H/a0
step length    0.0000000E+00 a0      max. step      0.0000000E+00 a0

--------------------------------------------------------------------------------

***  Geometry step: 1

 iSCC Total electronic   Diff electronic      SCC error    
    1   -0.19548467E+03    0.00000000E+00    0.11352232E+00
    2   -0.19510791E+03    0.37676357E+00    0.64499829E-01
    3   -0.19511673E+03   -0.88203359E-02    0.14255761E-01
    4   -0.19511877E+03   -0.20400151E-02    0.16179189E-02
    5   -0.19511879E+03   -0.24970882E-04    0.58841144E-03
    6   -0.19511880E+03   -0.82817687E-06    0.16572252E-03
    7   -0.19511880E+03   -0.72895716E-07    0.21366790E-04
    8   -0.19511880E+03   -0.71032389E-08    0.27381938E-05
    9   -0.19511880E+03   -0.27517899E-09    0.89097115E-06
   10   -0.19511880E+03   -0.35242920E-11    0.24459436E-06
   11   -0.19511880E+03   -0.19895197E-12    0.35059269E-07
   12   -0.19511880E+03   -0.11368684E-12    0.81636906E-08

Total Energy:                     -192.0280910189 H        -5225.3502 eV
Extrapolated to 0K:               -192.0280910189 H        -5225.3502 eV
Total Mermin free energy:         -192.0280910189 H        -5225.3502 eV
Force related energy:             -192.0280910189 H        -5225.3502 eV

Volume:                              0.945262E+04 au^3   0.140073E+04 A^3
Pressure:                            0.461299E-03 au     0.135719E+11 Pa
>> Charges saved for restart in charges.bin

total energy  -1.9202809E+02 H       energy change -1.5125718E-01 H
gradient norm  6.1279936E-01 H/a0    max. gradient  2.4541466E-01 H/a0
step length    5.9691747E-01 a0      max. step      3.1409833E-01 a0

--------------------------------------------------------------------------------

***  Geometry step: 2

 iSCC Total electronic   Diff electronic      SCC error    
    1   -0.19511880E+03    0.00000000E+00    0.62536307E-01
    2   -0.19504441E+03    0.74385462E-01    0.29966400E-01
    3   -0.19504769E+03   -0.32840125E-02    0.80803100E-02
    4   -0.19504849E+03   -0.79656902E-03    0.10653077E-02
    5   -0.19504850E+03   -0.89146339E-05    0.21908041E-03
    6   -0.19504850E+03   -0.35201128E-06    0.80488049E-04
    7   -0.19504850E+03   -0.18770862E-07    0.14738713E-04
    8   -0.19504850E+03   -0.22178028E-08    0.12975588E-05
    9   -0.19504850E+03   -0.12917667E-09    0.41920198E-06
   10   -0.19504850E+03   -0.14210855E-11    0.14837737E-06
   11   -0.19504850E+03    0.00000000E+00    0.24781547E-07
   12   -0.19504850E+03   -0.56843419E-13    0.51321756E-08

Total Energy:                     -192.1792446165 H        -5229.4633 eV
Extrapolated to 0K:               -192.1792446165 H        -5229.4633 eV
Total Mermin free energy:         -192.1792446165 H        -5229.4633 eV
Force related energy:             -192.1792446165 H        -5229.4633 eV

Volume:                              0.944277E+04 au^3   0.139927E+04 A^3
Pressure:                            0.383521E-03 au     0.112836E+11 Pa
>> Charges saved for restart in charges.bin

total energy  -1.9217924E+02 H       energy change -1.5115360E-01 H
gradient norm  3.1601758E-01 H/a0    max. gradient  6.8779453E-02 H/a0
step length    3.9066447E-01 a0      max. step      7.0865451E-02 a0

--------------------------------------------------------------------------------

***  Geometry step: 3

 iSCC Total electronic   Diff electronic      SCC error    
    1   -0.19504850E+03    0.00000000E+00    0.54011048E-01
    2   -0.19489411E+03    0.15439361E+00    0.31295593E-01
    3   -0.19489679E+03   -0.26859910E-02    0.82398700E-02
    4   -0.19489749E+03   -0.69405727E-03    0.12981576E-02
    5   -0.19489750E+03   -0.85506751E-05    0.22322121E-03
    6   -0.19489750E+03   -0.56454812E-06    0.98338779E-04
    7   -0.19489750E+03   -0.13703698E-07    0.13858817E-04
    8   -0.19489750E+03   -0.24537314E-08    0.17350461E-05
    9   -0.19489750E+03   -0.10442136E-09    0.42766185E-06
   10   -0.19489750E+03   -0.15916157E-11    0.12120003E-06
   11   -0.19489750E+03   -0.28421709E-13    0.17472905E-07
   12   -0.19489750E+03   -0.28421709E-13    0.56603038E-08

Total Energy:                     -192.2620797314 H        -5231.7174 eV
Extrapolated to 0K:               -192.2620797314 H        -5231.7174 eV
Total Mermin free energy:         -192.2620797314 H        -5231.7174 eV
Force related energy:             -192.2620797314 H        -5231.7174 eV

Volume:                              0.948673E+04 au^3   0.140579E+04 A^3
Pressure:                            0.296222E-03 au     0.871516E+10 Pa
>> Charges saved for restart in charges.bin

total energy  -1.9226208E+02 H       energy change -8.2835115E-02 H
gradient norm  2.2588647E-01 H/a0    max. gradient  1.0395667E-01 H/a0
step length    4.7923990E-01 a0      max. step      9.6002098E-02 a0

--------------------------------------------------------------------------------

***  Geometry step: 4

 iSCC Total electronic   Diff electronic      SCC error    
    1   -0.19489750E+03    0.00000000E+00    0.38854654E-01
    2   -0.19469209E+03    0.20540421E+00    0.23174970E-01
    3   -0.19469274E+03   -0.65269021E-03    0.47554135E-02
    4   -0.19469291E+03   -0.17058598E-03    0.43381603E-03
    5   -0.19469292E+03   -0.33924839E-05    0.14290302E-03
    6   -0.19469292E+03   -0.12452227E-06    0.63828925E-04
    7   -0.19469292E+03   -0.28960017E-08    0.63588461E-05
    8   -0.19469292E+03   -0.60532557E-09    0.11615002E-05
    9   -0.19469292E+03   -0.26659563E-10    0.23657140E-06
   10   -0.19469292E+03   -0.54001248E-12    0.45431640E-07
   11   -0.19469292E+03   -0.85265128E-13    0.11945966E-07
   12   -0.19469292E+03    0.00000000E+00    0.34576462E-08

Total Energy:                     -192.3024623727 H        -5232.8162 eV
Extrapolated to 0K:               -192.3024623727 H        -5232.8162 eV
Total Mermin free energy:         -192.3024623727 H        -5232.8162 eV
Force related energy:             -192.3024623727 H        -5232.8162 eV

Volume:                              0.959638E+04 au^3   0.142204E+04 A^3
Pressure:                            0.196748E-03 au     0.578852E+10 Pa
>> Charges saved for restart in charges.bin

total energy  -1.9230246E+02 H       energy change -4.0382641E-02 H
gradient norm  1.9432858E-01 H/a0    max. gradient  9.7437058E-02 H/a0
step length    3.8563123E-01 a0      max. step      9.5521850E-02 a0

--------------------------------------------------------------------------------

***  Geometry step: 5

 iSCC Total electronic   Diff electronic      SCC error    
    1   -0.19469292E+03    0.00000000E+00    0.38047855E-01
    2   -0.19448174E+03    0.21117819E+00    0.21572573E-01
    3   -0.19448227E+03   -0.52656650E-03    0.31286635E-02
    4   -0.19448240E+03   -0.13500891E-03    0.39431516E-03
    5   -0.19448240E+03   -0.29401571E-05    0.15039218E-03
    6   -0.19448240E+03   -0.14714783E-06    0.73680935E-04
    7   -0.19448240E+03   -0.28518912E-08    0.59411257E-05
    8   -0.19448240E+03   -0.48760285E-09    0.10363717E-05
    9   -0.19448240E+03   -0.28904878E-10    0.15315739E-06
   10   -0.19448240E+03   -0.42632564E-12    0.43683183E-07
   11   -0.19448240E+03    0.85265128E-13    0.13362567E-07
   12   -0.19448240E+03   -0.28421709E-13    0.28365328E-08

Total Energy:                     -192.3290907708 H        -5233.5408 eV
Extrapolated to 0K:               -192.3290907708 H        -5233.5408 eV
Total Mermin free energy:         -192.3290907708 H        -5233.5408 eV
Force related energy:             -192.3290907708 H        -5233.5408 eV

Volume:                              0.970568E+04 au^3   0.143823E+04 A^3
Pressure:                            0.101449E-03 au     0.298474E+10 Pa
>> Charges saved for restart in charges.bin

total energy  -1.9232909E+02 H       energy change -2.6628398E-02 H
gradient norm  1.1684702E-01 H/a0    max. gradient  3.6847768E-02 H/a0
step length    3.9954266E-01 a0      max. step      8.1653027E-02 a0

--------------------------------------------------------------------------------

***  Geometry step: 6

 iSCC Total electronic   Diff electronic      SCC error    
    1   -0.19448240E+03    0.00000000E+00    0.21771731E-01
    2   -0.19439534E+03    0.87060222E-01    0.91969712E-02
    3   -0.19439561E+03   -0.26808450E-03    0.22518431E-02
    4   -0.19439567E+03   -0.56849588E-04    0.49036338E-03
    5   -0.19439567E+03   -0.11891279E-05    0.10753830E-03
    6   -0.19439567E+03   -0.12901916E-06    0.45231955E-04
    7   -0.19439567E+03   -0.22981794E-08    0.70710043E-05
    8   -0.19439567E+03   -0.14392754E-09    0.11171349E-05
    9   -0.19439567E+03   -0.14239276E-10    0.25288145E-06
   10   -0.19439567E+03   -0.51159077E-12    0.42918328E-07
   11   -0.19439567E+03    0.00000000E+00    0.71690134E-08

Total Energy:                     -192.3418016631 H        -5233.8867 eV
Extrapolated to 0K:               -192.3418016631 H        -5233.8867 eV
Total Mermin free energy:         -192.3418016631 H        -5233.8867 eV
Force related energy:             -192.3418016631 H        -5233.8867 eV

Volume:                              0.973891E+04 au^3   0.144316E+04 A^3
Pressure:                            0.605134E-04 au     0.178037E+10 Pa
>> Charges saved for restart in charges.bin

total energy  -1.9234180E+02 H       energy change -1.2710892E-02 H
gradient norm  8.4283342E-02 H/a0    max. gradient  2.6956809E-02 H/a0
step length    2.5677789E-01 a0      max. step      4.9038578E-02 a0

--------------------------------------------------------------------------------

***  Geometry step: 7

 iSCC Total electronic   Diff electronic      SCC error    
    1   -0.19439567E+03    0.00000000E+00    0.24463930E-01
    2   -0.19434895E+03    0.46720152E-01    0.14312946E-01
    3   -0.19434924E+03   -0.28942862E-03    0.37825926E-02
    4   -0.19434930E+03   -0.63669381E-04    0.34344052E-03
    5   -0.19434930E+03   -0.10635707E-05    0.10780473E-03
    6   -0.19434930E+03   -0.64875877E-07    0.36920855E-04
    7   -0.19434930E+03   -0.14979094E-08    0.56036804E-05
    8   -0.19434930E+03   -0.17033130E-09    0.70838252E-06
    9   -0.19434930E+03   -0.14409807E-10    0.22924793E-06
   10   -0.19434930E+03   -0.48316906E-12    0.28413487E-07
   11   -0.19434930E+03    0.56843419E-13    0.52013229E-08

Total Energy:                     -192.3514381119 H        -5234.1489 eV
Extrapolated to 0K:               -192.3514381119 H        -5234.1489 eV
Total Mermin free energy:         -192.3514381119 H        -5234.1489 eV
Force related energy:             -192.3514381119 H        -5234.1489 eV

Volume:                              0.975800E+04 au^3   0.144599E+04 A^3
Pressure:                            0.390103E-04 au     0.114772E+10 Pa
>> Charges saved for restart in charges.bin

total energy  -1.9235144E+02 H       energy change -9.6364488E-03 H
gradient norm  6.2813572E-02 H/a0    max. gradient  1.8237379E-02 H/a0
step length    2.4174238E-01 a0      max. step      4.4899798E-02 a0

--------------------------------------------------------------------------------

***  Geometry step: 8

 iSCC Total electronic   Diff electronic      SCC error    
    1   -0.19434930E+03    0.00000000E+00    0.26373269E-01
    2   -0.19435345E+03   -0.41405770E-02    0.15578963E-01
    3   -0.19435364E+03   -0.19232170E-03    0.29983399E-02
    4   -0.19435369E+03   -0.47627224E-04    0.32172823E-03
    5   -0.19435369E+03   -0.13197522E-05    0.82166766E-04
    6   -0.19435369E+03   -0.84406025E-07    0.27168894E-04
    7   -0.19435369E+03   -0.18142998E-08    0.61472460E-05
    8   -0.19435369E+03   -0.88277829E-10    0.55061685E-06
    9   -0.19435369E+03   -0.12903456E-10    0.12268777E-06
   10   -0.19435369E+03   -0.34106051E-12    0.19311920E-07
   11   -0.19435369E+03    0.28421709E-13    0.73643722E-08

Total Energy:                     -192.3566838189 H        -5234.2917 eV
Extrapolated to 0K:               -192.3566838189 H        -5234.2917 eV
Total Mermin free energy:         -192.3566838189 H        -5234.2917 eV
Force related energy:             -192.3566838189 H        -5234.2917 eV

Volume:                              0.975159E+04 au^3   0.144504E+04 A^3
Pressure:                            0.383461E-04 au     0.112818E+10 Pa
>> Charges saved for restart in charges.bin

total energy  -1.9235668E+02 H       energy change -5.2457070E-03 H
gradient norm  5.3285115E-02 H/a0    max. gradient  1.7209918E-02 H/a0
step length    1.9395539E-01 a0      max. step      3.2784309E-02 a0

--------------------------------------------------------------------------------

***  Geometry step: 9

 iSCC Total electronic   Diff electronic      SCC error    
    1   -0.19435369E+03    0.00000000E+00    0.14356617E-01
    2   -0.19435974E+03   -0.60522574E-02    0.84560162E-02
    3   -0.19435980E+03   -0.60235864E-04    0.13491748E-02
    4   -0.19435982E+03   -0.15804449E-04    0.14692123E-03
    5   -0.19435982E+03   -0.54251248E-06    0.49505893E-04
    6   -0.19435982E+03   -0.18143567E-07    0.14278490E-04
    7   -0.19435982E+03   -0.45110937E-09    0.21012869E-05
    8   -0.19435982E+03   -0.49539040E-10    0.30072664E-06
    9   -0.19435982E+03   -0.28705927E-11    0.46287855E-07
   10   -0.19435982E+03   -0.85265128E-13    0.84428455E-08

Total Energy:                     -192.3595722821 H        -5234.3703 eV
Extrapolated to 0K:               -192.3595722821 H        -5234.3703 eV
Total Mermin free energy:         -192.3595722821 H        -5234.3703 eV
Force related energy:             -192.3595722821 H        -5234.3703 eV

Volume:                              0.975159E+04 au^3   0.144504E+04 A^3
Pressure:                            0.392651E-04 au     0.115522E+10 Pa
>> Charges saved for restart in charges.bin

total energy  -1.9235957E+02 H       energy change -2.8884633E-03 H
gradient norm  4.2101854E-02 H/a0    max. gradient  9.2795122E-03 H/a0
step length    1.3194692E-01 a0      max. step      2.0783552E-02 a0

--------------------------------------------------------------------------------

***  Geometry step: 10

 iSCC Total electronic   Diff electronic      SCC error    
    1   -0.19435982E+03    0.00000000E+00    0.13440191E-01
    2   -0.19437054E+03   -0.10720005E-01    0.53681294E-02
    3   -0.19437059E+03   -0.55943103E-04    0.10706326E-02
    4   -0.19437060E+03   -0.12277561E-04    0.15924828E-03
    5   -0.19437060E+03   -0.47254895E-06    0.43897256E-04
    6   -0.19437060E+03   -0.21743830E-07    0.16812299E-04
    7   -0.19437060E+03   -0.32738967E-09    0.20201212E-05
    8   -0.19437060E+03   -0.46355808E-10    0.40960418E-06
    9   -0.19437060E+03   -0.19895197E-11    0.62072384E-07
   10   -0.19437060E+03   -0.56843419E-13    0.13734847E-07
   11   -0.19437060E+03    0.00000000E+00    0.23132900E-08

Total Energy:                     -192.3620706525 H        -5234.4383 eV
Extrapolated to 0K:               -192.3620706525 H        -5234.4383 eV
Total Mermin free energy:         -192.3620706525 H        -5234.4383 eV
Force related energy:             -192.3620706525 H        -5234.4383 eV

Volume:                              0.974722E+04 au^3   0.144439E+04 A^3
Pressure:                            0.417013E-04 au     0.122689E+10 Pa
>> Charges saved for restart in charges.bin

total energy  -1.9236207E+02 H       energy change -2.4983703E-03 H
gradient norm  3.8642743E-02 H/a0    max. gradient  1.2932815E-02 H/a0
step length    1.4089777E-01 a0      max. step      2.4094885E-02 a0

--------------------------------------------------------------------------------

***  Geometry step: 11

 iSCC Total electronic   Diff electronic      SCC error    
    1   -0.19437060E+03    0.00000000E+00    0.94156169E-02
    2   -0.19436636E+03    0.42470396E-02    0.41653286E-02
    3   -0.19436642E+03   -0.59303236E-04    0.12063075E-02
    4   -0.19436643E+03   -0.13569228E-04    0.14210819E-03
    5   -0.19436643E+03   -0.39727382E-06    0.28043057E-04
    6   -0.19436643E+03   -0.23299947E-07    0.11493675E-04
    7   -0.19436643E+03   -0.29169200E-09    0.25303809E-05
    8   -0.19436643E+03   -0.29217517E-10    0.39041668E-06
    9   -0.19436643E+03   -0.18474111E-11    0.10358894E-06
   10   -0.19436643E+03   -0.56843419E-13    0.17045449E-07
   11   -0.19436643E+03    0.56843419E-13    0.19858115E-08

Total Energy:                     -192.3643478727 H        -5234.5002 eV
Extrapolated to 0K:               -192.3643478727 H        -5234.5002 eV
Total Mermin free energy:         -192.3643478727 H        -5234.5002 eV
Force related energy:             -192.3643478727 H        -5234.5002 eV

Volume:                              0.975925E+04 au^3   0.144617E+04 A^3
Pressure:                            0.373829E-04 au     0.109984E+10 Pa
>> Charges saved for restart in charges.bin

total energy  -1.9236435E+02 H       energy change -2.2772202E-03 H
gradient norm  3.8491827E-02 H/a0    max. gradient  1.1144833E-02 H/a0
step length    1.4340561E-01 a0      max. step      2.8496860E-02 a0

--------------------------------------------------------------------------------

***  Geometry step: 12

 iSCC Total electronic   Diff electronic      SCC error    
    1   -0.19436643E+03    0.00000000E+00    0.12308280E-01
    2   -0.19435605E+03    0.10379355E-01    0.72426913E-02
    3   -0.19435610E+03   -0.48843988E-04    0.13572135E-02
    4   -0.19435611E+03   -0.11260255E-04    0.16382220E-03
    5   -0.19435611E+03   -0.42935477E-06    0.71667340E-04
    6   -0.19435611E+03   -0.20337183E-07    0.21388503E-04
    7   -0.19435611E+03   -0.29604053E-09    0.20267895E-05
    8   -0.19435611E+03   -0.26858515E-10    0.33395348E-06
    9   -0.19435611E+03   -0.30411229E-11    0.85464974E-07
   10   -0.19435611E+03   -0.11368684E-12    0.89550589E-08

Total Energy:                     -192.3665313804 H        -5234.5597 eV
Extrapolated to 0K:               -192.3665313804 H        -5234.5597 eV
Total Mermin free energy:         -192.3665313804 H        -5234.5597 eV
Force related energy:             -192.3665313804 H        -5234.5597 eV

Volume:                              0.977716E+04 au^3   0.144883E+04 A^3
Pressure:                            0.303315E-04 au     0.892383E+09 Pa
>> Charges saved for restart in charges.bin

total energy  -1.9236653E+02 H       energy change -2.1835077E-03 H
gradient norm  3.4168491E-02 H/a0    max. gradient  1.2477754E-02 H/a0
step length    1.6259410E-01 a0      max. step      3.8937297E-02 a0

--------------------------------------------------------------------------------

***  Geometry step: 13

 iSCC Total electronic   Diff electronic      SCC error    
    1   -0.19435611E+03    0.00000000E+00    0.72829500E-02
    2   -0.19434464E+03    0.11468239E-01    0.42502930E-02
    3   -0.19434466E+03   -0.18762088E-04    0.82847992E-03
    4   -0.19434467E+03   -0.41649260E-05    0.98342806E-04
    5   -0.19434467E+03   -0.15416020E-06    0.42148862E-04
    6   -0.19434467E+03   -0.63007803E-08    0.12553963E-04
    7   -0.19434467E+03   -0.11681323E-09    0.11830633E-05
    8   -0.19434467E+03   -0.12533974E-10    0.16214752E-06
    9   -0.19434467E+03   -0.10231815E-11    0.41168922E-07
   10   -0.19434467E+03   -0.56843419E-13    0.69802404E-08

Total Energy:                     -192.3679168553 H        -5234.5974 eV
Extrapolated to 0K:               -192.3679168553 H        -5234.5974 eV
Total Mermin free energy:         -192.3679168553 H        -5234.5974 eV
Force related energy:             -192.3679168553 H        -5234.5974 eV

Volume:                              0.979720E+04 au^3   0.145180E+04 A^3
Pressure:                            0.236812E-04 au     0.696724E+09 Pa
>> Charges saved for restart in charges.bin

total energy  -1.9236792E+02 H       energy change -1.3854749E-03 H
gradient norm  2.7104370E-02 H/a0    max. gradient  6.1793881E-03 H/a0
step length    1.1922737E-01 a0      max. step      2.6708412E-02 a0

--------------------------------------------------------------------------------

***  Geometry step: 14

 iSCC Total electronic   Diff electronic      SCC error    
    1   -0.19434467E+03    0.00000000E+00    0.65513553E-02
    2   -0.19433615E+03    0.85159289E-02    0.25544580E-02
    3   -0.19433618E+03   -0.25682460E-04    0.80593654E-03
    4   -0.19433618E+03   -0.50435239E-05    0.10526044E-03
    5   -0.19433618E+03   -0.10064866E-06    0.27192575E-04
    6   -0.19433618E+03   -0.84760643E-08    0.93409522E-05
    7   -0.19433618E+03   -0.17257662E-09    0.20509277E-05
    8   -0.19433618E+03   -0.77022833E-11    0.22972226E-06
    9   -0.19433618E+03   -0.85265128E-12    0.57485016E-07
   10   -0.19433618E+03   -0.22737368E-12    0.74237669E-08

Total Energy:                     -192.3691434036 H        -5234.6307 eV
Extrapolated to 0K:               -192.3691434036 H        -5234.6307 eV
Total Mermin free energy:         -192.3691434036 H        -5234.6307 eV
Force related energy:             -192.3691434036 H        -5234.6307 eV

Volume:                              0.981765E+04 au^3   0.145483E+04 A^3
Pressure:                            0.178890E-04 au     0.526311E+09 Pa
>> Charges saved for restart in charges.bin

total energy  -1.9236914E+02 H       energy change -1.2265483E-03 H
gradient norm  2.4418484E-02 H/a0    max. gradient  6.4273156E-03 H/a0
step length    1.2228519E-01 a0      max. step      2.4456450E-02 a0

--------------------------------------------------------------------------------

***  Geometry step: 15

 iSCC Total electronic   Diff electronic      SCC error    
    1   -0.19433618E+03    0.00000000E+00    0.49432780E-02
    2   -0.19433483E+03    0.13547076E-02    0.24353373E-02
    3   -0.19433485E+03   -0.24118499E-04    0.71451631E-03
    4   -0.19433486E+03   -0.50667141E-05    0.10424954E-03
    5   -0.19433486E+03   -0.81847276E-07    0.25567224E-04
    6   -0.19433486E+03   -0.74040827E-08    0.72940451E-05
    7   -0.19433486E+03   -0.18511059E-09    0.17965344E-05
    8   -0.19433486E+03   -0.57411853E-11    0.23041454E-06
    9   -0.19433486E+03   -0.10800250E-11    0.61339150E-07
   10   -0.19433486E+03   -0.28421709E-13    0.81116154E-08

Total Energy:                     -192.3701295586 H        -5234.6576 eV
Extrapolated to 0K:               -192.3701295586 H        -5234.6576 eV
Total Mermin free energy:         -192.3701295586 H        -5234.6576 eV
Force related energy:             -192.3701295586 H        -5234.6576 eV

Volume:                              0.983445E+04 au^3   0.145732E+04 A^3
Pressure:                            0.154112E-04 au     0.453413E+09 Pa
>> Charges saved for restart in charges.bin

total energy  -1.9237013E+02 H       energy change -9.8615506E-04 H
gradient norm  2.4465913E-02 H/a0    max. gradient  7.3452760E-03 H/a0
step length    1.1077385E-01 a0      max. step      2.0011966E-02 a0

--------------------------------------------------------------------------------

***  Geometry step: 16

 iSCC Total electronic   Diff electronic      SCC error    
    1   -0.19433486E+03    0.00000000E+00    0.64016635E-02
    2   -0.19433771E+03   -0.28534903E-02    0.36606442E-02
    3   -0.19433773E+03   -0.22186831E-04    0.79326888E-03
    4   -0.19433774E+03   -0.48115120E-05    0.94284743E-04
    5   -0.19433774E+03   -0.10371969E-06    0.31456745E-04
    6   -0.19433774E+03   -0.86524494E-08    0.74912111E-05
    7   -0.19433774E+03   -0.19386448E-09    0.15621105E-05
    8   -0.19433774E+03   -0.68780537E-11    0.28067880E-06
    9   -0.19433774E+03   -0.16484591E-11    0.62777402E-07
   10   -0.19433774E+03    0.00000000E+00    0.67105486E-08

Total Energy:                     -192.3710035106 H        -5234.6813 eV
Extrapolated to 0K:               -192.3710035106 H        -5234.6813 eV
Total Mermin free energy:         -192.3710035106 H        -5234.6813 eV
Force related energy:             -192.3710035106 H        -5234.6813 eV

Volume:                              0.984993E+04 au^3   0.145961E+04 A^3
Pressure:                            0.153245E-04 au     0.450863E+09 Pa
>> Charges saved for restart in charges.bin

total energy  -1.9237100E+02 H       energy change -8.7395203E-04 H
gradient norm  2.2058566E-02 H/a0    max. gradient  5.5351386E-03 H/a0
step length    1.1356738E-01 a0      max. step      1.9798959E-02 a0

--------------------------------------------------------------------------------

***  Geometry step: 17

 iSCC Total electronic   Diff electronic      SCC error    
    1   -0.19433774E+03    0.00000000E+00    0.58763507E-02
    2   -0.19433954E+03   -0.17996101E-02    0.34258810E-02
    3   -0.19433955E+03   -0.95819741E-05    0.68880532E-03
    4   -0.19433955E+03   -0.21569403E-05    0.85675677E-04
    5   -0.19433955E+03   -0.65679188E-07    0.28307091E-04
    6   -0.19433955E+03   -0.42305999E-08    0.50473709E-05
    7   -0.19433955E+03   -0.10874146E-09    0.10602300E-05
    8   -0.19433955E+03   -0.44337867E-11    0.20884906E-06
    9   -0.19433955E+03   -0.82422957E-12    0.53496468E-07
   10   -0.19433955E+03    0.28421709E-13    0.45974535E-08

Total Energy:                     -192.3716805356 H        -5234.6998 eV
Extrapolated to 0K:               -192.3716805356 H        -5234.6998 eV
Total Mermin free energy:         -192.3716805356 H        -5234.6998 eV
Force related energy:             -192.3716805356 H        -5234.6998 eV

Volume:                              0.986312E+04 au^3   0.146156E+04 A^3
Pressure:                            0.152971E-04 au     0.450055E+09 Pa
>> Charges saved for restart in charges.bin

total energy  -1.9237168E+02 H       energy change -6.7702497E-04 H
gradient norm  1.9438733E-02 H/a0    max. gradient  4.0944853E-03 H/a0
step length    9.4997808E-02 a0      max. step      1.6434300E-02 a0

--------------------------------------------------------------------------------

***  Geometry step: 18

 iSCC Total electronic   Diff electronic      SCC error    
    1   -0.19433955E+03    0.00000000E+00    0.43345314E-02
    2   -0.19433891E+03    0.63689332E-03    0.25771408E-02
    3   -0.19433892E+03   -0.98234533E-05    0.61381175E-03
    4   -0.19433892E+03   -0.20630459E-05    0.85807015E-04
    5   -0.19433892E+03   -0.65610578E-07    0.33845041E-04
    6   -0.19433892E+03   -0.51319375E-08    0.64737992E-05
    7   -0.19433892E+03   -0.10695089E-09    0.11617816E-05
    8   -0.19433892E+03   -0.40643044E-11    0.28545376E-06
    9   -0.19433892E+03   -0.82422957E-12    0.73866452E-07
   10   -0.19433892E+03    0.56843419E-13    0.42702659E-08

Total Energy:                     -192.3724116250 H        -5234.7197 eV
Extrapolated to 0K:               -192.3724116250 H        -5234.7197 eV
Total Mermin free energy:         -192.3724116250 H        -5234.7197 eV
Force related energy:             -192.3724116250 H        -5234.7197 eV

Volume:                              0.987950E+04 au^3   0.146399E+04 A^3
Pressure:                            0.141488E-04 au     0.416271E+09 Pa
>> Charges saved for restart in charges.bin

total energy  -1.9237241E+02 H       energy change -7.3108936E-04 H
gradient norm  2.0722631E-02 H/a0    max. gradient  4.7169544E-03 H/a0
step length    1.1061764E-01 a0      max. step      1.8428987E-02 a0

--------------------------------------------------------------------------------

***  Geometry step: 19

 iSCC Total electronic   Diff electronic      SCC error    
    1   -0.19433892E+03    0.00000000E+00    0.30641301E-02
    2   -0.19433599E+03    0.29365463E-02    0.18637095E-02
    3   -0.19433600E+03   -0.10347516E-04    0.61581087E-03
    4   -0.19433600E+03   -0.20054005E-05    0.81331417E-04
    5   -0.19433600E+03   -0.57702835E-07    0.13691971E-04
    6   -0.19433600E+03   -0.45393449E-08    0.39810088E-05
    7   -0.19433600E+03   -0.55166538E-10    0.94126307E-06
    8   -0.19433600E+03   -0.19326762E-11    0.18405105E-06
    9   -0.19433600E+03   -0.54001248E-12    0.53329154E-07
   10   -0.19433600E+03   -0.85265128E-13    0.50991886E-08

Total Energy:                     -192.3731548504 H        -5234.7399 eV
Extrapolated to 0K:               -192.3731548504 H        -5234.7399 eV
Total Mermin free energy:         -192.3731548504 H        -5234.7399 eV
Force related energy:             -192.3731548504 H        -5234.7399 eV

Volume:                              0.989875E+04 au^3   0.146684E+04 A^3
Pressure:                            0.118594E-04 au     0.348917E+09 Pa
>> Charges saved for restart in charges.bin

total energy  -1.9237315E+02 H       energy change -7.4322542E-04 H
gradient norm  2.2038213E-02 H/a0    max. gradient  6.0905696E-03 H/a0
step length    1.2307426E-01 a0      max. step      2.0456353E-02 a0

--------------------------------------------------------------------------------

***  Geometry step: 20

 iSCC Total electronic   Diff electronic      SCC error    
    1   -0.19433600E+03    0.00000000E+00    0.32338523E-02
    2   -0.19433084E+03    0.51575099E-02    0.19469097E-02
    3   -0.19433085E+03   -0.10896528E-04    0.55361108E-03
    4   -0.19433085E+03   -0.22688550E-05    0.60974300E-04
    5   -0.19433085E+03   -0.73628598E-07    0.20802983E-04
    6   -0.19433085E+03   -0.47600963E-08    0.49126100E-05
    7   -0.19433085E+03   -0.77193363E-10    0.87174863E-06
    8   -0.19433085E+03   -0.29842795E-11    0.21219689E-06
    9   -0.19433085E+03   -0.73896445E-12    0.52632268E-07
   10   -0.19433085E+03   -0.85265128E-13    0.50793516E-08

Total Energy:                     -192.3738457060 H        -5234.7587 eV
Extrapolated to 0K:               -192.3738457060 H        -5234.7587 eV
Total Mermin free energy:         -192.3738457060 H        -5234.7587 eV
Force related energy:             -192.3738457060 H        -5234.7587 eV

Volume:                              0.992017E+04 au^3   0.147002E+04 A^3
Pressure:                            0.845934E-05 au     0.248882E+09 Pa
>> Charges saved for restart in charges.bin

total energy  -1.9237385E+02 H       energy change -6.9085563E-04 H
gradient norm  2.0081830E-02 H/a0    max. gradient  5.4520642E-03 H/a0
step length    1.2989578E-01 a0      max. step      2.2674502E-02 a0

--------------------------------------------------------------------------------

***  Geometry step: 21

 iSCC Total electronic   Diff electronic      SCC error    
    1   -0.19433085E+03    0.00000000E+00    0.32833154E-02
    2   -0.19432648E+03    0.43760517E-02    0.18727395E-02
    3   -0.19432649E+03   -0.84688244E-05    0.40290365E-03
    4   -0.19432649E+03   -0.20580284E-05    0.75518454E-04
    5   -0.19432649E+03   -0.50087607E-07    0.20533244E-04
    6   -0.19432649E+03   -0.33737138E-08    0.43839690E-05
    7   -0.19432649E+03   -0.78188123E-10    0.93182374E-06
    8   -0.19432649E+03   -0.25295321E-11    0.21472332E-06
    9   -0.19432649E+03   -0.54001248E-12    0.43487158E-07
   10   -0.19432649E+03   -0.85265128E-13    0.43186015E-08

Total Energy:                     -192.3743402348 H        -5234.7721 eV
Extrapolated to 0K:               -192.3743402348 H        -5234.7721 eV
Total Mermin free energy:         -192.3743402348 H        -5234.7721 eV
Force related energy:             -192.3743402348 H        -5234.7721 eV

Volume:                              0.993711E+04 au^3   0.147253E+04 A^3
Pressure:                            0.538781E-05 au     0.158515E+09 Pa
>> Charges saved for restart in charges.bin

total energy  -1.9237434E+02 H       energy change -4.9452878E-04 H
gradient norm  1.4743126E-02 H/a0    max. gradient  3.2383205E-03 H/a0
step length    1.0102825E-01 a0      max. step      1.8012728E-02 a0

--------------------------------------------------------------------------------

***  Geometry step: 22

 iSCC Total electronic   Diff electronic      SCC error    
    1   -0.19432649E+03    0.00000000E+00    0.25500310E-02
    2   -0.19432548E+03    0.10074028E-02    0.15003412E-02
    3   -0.19432549E+03   -0.70962896E-05    0.39892296E-03
    4   -0.19432549E+03   -0.17180955E-05    0.65109703E-04
    5   -0.19432549E+03   -0.27840912E-07    0.18241709E-04
    6   -0.19432549E+03   -0.21484823E-08    0.40497106E-05
    7   -0.19432549E+03   -0.53034910E-10    0.91018332E-06
    8   -0.19432549E+03   -0.11937118E-11    0.14233522E-06
    9   -0.19432549E+03   -0.45474735E-12    0.35681049E-07
   10   -0.19432549E+03    0.56843419E-13    0.39247183E-08

Total Energy:                     -192.3746618400 H        -5234.7809 eV
Extrapolated to 0K:               -192.3746618400 H        -5234.7809 eV
Total Mermin free energy:         -192.3746618400 H        -5234.7809 eV
Force related energy:             -192.3746618400 H        -5234.7809 eV

Volume:                              0.994817E+04 au^3   0.147417E+04 A^3
Pressure:                            0.395536E-05 au     0.116371E+09 Pa
>> Charges saved for restart in charges.bin

total energy  -1.9237466E+02 H       energy change -3.2160514E-04 H
gradient norm  1.1805387E-02 H/a0    max. gradient  2.5791058E-03 H/a0
step length    7.1060250E-02 a0      max. step      1.2856393E-02 a0

--------------------------------------------------------------------------------

***  Geometry step: 23

 iSCC Total electronic   Diff electronic      SCC error    
    1   -0.19432549E+03    0.00000000E+00    0.19482992E-02
    2   -0.19432664E+03   -0.11493916E-02    0.91003920E-03
    3   -0.19432664E+03   -0.40294903E-05    0.29194504E-03
    4   -0.19432665E+03   -0.94562122E-06    0.37733335E-04
    5   -0.19432665E+03   -0.13541751E-07    0.65139009E-05
    6   -0.19432665E+03   -0.11935981E-08    0.13890927E-05
    7   -0.19432665E+03   -0.25750069E-10    0.40099407E-06
    8   -0.19432665E+03   -0.25579538E-12    0.93802057E-07
    9   -0.19432665E+03   -0.14210855E-12    0.16746141E-07
   10   -0.19432665E+03    0.00000000E+00    0.20562196E-08

Total Energy:                     -192.3748680312 H        -5234.7865 eV
Extrapolated to 0K:               -192.3748680312 H        -5234.7865 eV
Total Mermin free energy:         -192.3748680312 H        -5234.7865 eV
Force related energy:             -192.3748680312 H        -5234.7865 eV

Volume:                              0.995446E+04 au^3   0.147510E+04 A^3
Pressure:                            0.357086E-05 au     0.105058E+09 Pa
>> Charges saved for restart in charges.bin

total energy  -1.9237487E+02 H       energy change -2.0619123E-04 H
gradient norm  1.1400062E-02 H/a0    max. gradient  3.3653407E-03 H/a0
step length    4.6377378E-02 a0      max. step      8.8487794E-03 a0

--------------------------------------------------------------------------------

***  Geometry step: 24

 iSCC Total electronic   Diff electronic      SCC error    
    1   -0.19432665E+03    0.00000000E+00    0.17250082E-02
    2   -0.19432952E+03   -0.28731091E-02    0.96358600E-03
    3   -0.19432952E+03   -0.32913161E-05    0.28104153E-03
    4   -0.19432952E+03   -0.76901426E-06    0.28931753E-04
    5   -0.19432952E+03   -0.13623008E-07    0.90799740E-05
    6   -0.19432952E+03   -0.83574037E-09    0.16192881E-05
    7   -0.19432952E+03   -0.17422508E-10    0.38989166E-06
    8   -0.19432952E+03   -0.34106051E-12    0.82111019E-07
    9   -0.19432952E+03   -0.14210855E-12    0.21983483E-07
   10   -0.19432952E+03    0.56843419E-13    0.26327776E-08

Total Energy:                     -192.3750565714 H        -5234.7916 eV
Extrapolated to 0K:               -192.3750565714 H        -5234.7916 eV
Total Mermin free energy:         -192.3750565714 H        -5234.7916 eV
Force related energy:             -192.3750565714 H        -5234.7916 eV

Volume:                              0.996019E+04 au^3   0.147595E+04 A^3
Pressure:                            0.389718E-05 au     0.114659E+09 Pa
>> Charges saved for restart in charges.bin

total energy  -1.9237506E+02 H       energy change -1.8854025E-04 H
gradient norm  1.0343581E-02 H/a0    max. gradient  3.0169542E-03 H/a0
step length    4.8192817E-02 a0      max. step      1.0804585E-02 a0

--------------------------------------------------------------------------------

***  Geometry step: 25

 iSCC Total electronic   Diff electronic      SCC error    
    1   -0.19432952E+03    0.00000000E+00    0.20439951E-02
    2   -0.19433201E+03   -0.24877516E-02    0.12371234E-02
    3   -0.19433201E+03   -0.27309368E-05    0.34234540E-03
    4   -0.19433201E+03   -0.64403494E-06    0.34958086E-04
    5   -0.19433201E+03   -0.12084627E-07    0.74504984E-05
    6   -0.19433201E+03   -0.79336360E-09    0.13233758E-05
    7   -0.19433201E+03   -0.15830892E-10    0.36673325E-06
    8   -0.19433201E+03   -0.19895197E-12    0.66817521E-07
    9   -0.19433201E+03   -0.11368684E-12    0.13015788E-07
   10   -0.19433201E+03   -0.56843419E-13    0.22162681E-08

Total Energy:                     -192.3752056947 H        -5234.7957 eV
Extrapolated to 0K:               -192.3752056947 H        -5234.7957 eV
Total Mermin free energy:         -192.3752056947 H        -5234.7957 eV
Force related energy:             -192.3752056947 H        -5234.7957 eV

Volume:                              0.996545E+04 au^3   0.147673E+04 A^3
Pressure:                            0.424528E-05 au     0.124900E+09 Pa
>> Charges saved for restart in charges.bin

total energy  -1.9237521E+02 H       energy change -1.4912323E-04 H
gradient norm  9.1668481E-03 H/a0    max. gradient  1.8866723E-03 H/a0
step length    4.2211537E-02 a0      max. step      9.6242868E-03 a0

--------------------------------------------------------------------------------

***  Geometry step: 26

 iSCC Total electronic   Diff electronic      SCC error    
    1   -0.19433201E+03    0.00000000E+00    0.24850080E-02
    2   -0.19433387E+03   -0.18543357E-02    0.15358524E-02
    3   -0.19433387E+03   -0.35711632E-05    0.45709790E-03
    4   -0.19433387E+03   -0.83524267E-06    0.39687282E-04
    5   -0.19433387E+03   -0.16462224E-07    0.10161692E-04
    6   -0.19433387E+03   -0.12490489E-08    0.20297842E-05
    7   -0.19433387E+03   -0.20349944E-10    0.51277980E-06
    8   -0.19433387E+03   -0.28421709E-12    0.92274679E-07
    9   -0.19433387E+03   -0.14210855E-12    0.21514338E-07
   10   -0.19433387E+03    0.28421709E-13    0.30747205E-08

Total Energy:                     -192.3753570534 H        -5234.7998 eV
Extrapolated to 0K:               -192.3753570534 H        -5234.7998 eV
Total Mermin free energy:         -192.3753570534 H        -5234.7998 eV
Force related energy:             -192.3753570534 H        -5234.7998 eV

Volume:                              0.997231E+04 au^3   0.147774E+04 A^3
Pressure:                            0.438363E-05 au     0.128971E+09 Pa
>> Charges saved for restart in charges.bin

total energy  -1.9237536E+02 H       energy change -1.5135873E-04 H
gradient norm  9.3904601E-03 H/a0    max. gradient  1.9148797E-03 H/a0
step length    5.0254216E-02 a0      max. step      1.0590580E-02 a0

--------------------------------------------------------------------------------

***  Geometry step: 27

 iSCC Total electronic   Diff electronic      SCC error    
    1   -0.19433387E+03    0.00000000E+00    0.22696670E-02
    2   -0.19433410E+03   -0.23190997E-03    0.13478856E-02
    3   -0.19433411E+03   -0.30990608E-05    0.42858953E-03
    4   -0.19433411E+03   -0.70106100E-06    0.37503620E-04
    5   -0.19433411E+03   -0.15064870E-07    0.83028744E-05
    6   -0.19433411E+03   -0.12528290E-08    0.19389681E-05
    7   -0.19433411E+03   -0.15660362E-10    0.49649528E-06
    8   -0.19433411E+03   -0.31263880E-12    0.70788561E-07
    9   -0.19433411E+03   -0.56843419E-13    0.24171469E-07
   10   -0.19433411E+03    0.56843419E-13    0.18075403E-08

Total Energy:                     -192.3755079032 H        -5234.8039 eV
Extrapolated to 0K:               -192.3755079032 H        -5234.8039 eV
Total Mermin free energy:         -192.3755079032 H        -5234.8039 eV
Force related energy:             -192.3755079032 H        -5234.8039 eV

Volume:                              0.998049E+04 au^3   0.147896E+04 A^3
Pressure:                            0.379401E-05 au     0.111623E+09 Pa
>> Charges saved for restart in charges.bin

total energy  -1.9237551E+02 H       energy change -1.5084976E-04 H
gradient norm  1.0748928E-02 H/a0    max. gradient  2.9085669E-03 H/a0
step length    5.5538912E-02 a0      max. step      1.0057755E-02 a0

--------------------------------------------------------------------------------

***  Geometry step: 28

 iSCC Total electronic   Diff electronic      SCC error    
    1   -0.19433411E+03    0.00000000E+00    0.20392791E-02
    2   -0.19433335E+03    0.75832433E-03    0.13069253E-02
    3   -0.19433335E+03   -0.37578472E-05    0.42361981E-03
    4   -0.19433335E+03   -0.83772468E-06    0.42510170E-04
    5   -0.19433335E+03   -0.21686219E-07    0.52682832E-05
    6   -0.19433335E+03   -0.16530919E-08    0.15989922E-05
    7   -0.19433335E+03   -0.15887736E-10    0.52098743E-06
    8   -0.19433335E+03   -0.28421709E-12    0.65089772E-07
    9   -0.19433335E+03   -0.11368684E-12    0.21001946E-07
   10   -0.19433335E+03    0.28421709E-13    0.22077726E-08

Total Energy:                     -192.3757013289 H        -5234.8092 eV
Extrapolated to 0K:               -192.3757013289 H        -5234.8092 eV
Total Mermin free energy:         -192.3757013289 H        -5234.8092 eV
Force related energy:             -192.3757013289 H        -5234.8092 eV

Volume:                              0.999133E+04 au^3   0.148056E+04 A^3
Pressure:                            0.254234E-05 au     0.747981E+08 Pa
>> Charges saved for restart in charges.bin

total energy  -1.9237570E+02 H       energy change -1.9342577E-04 H
gradient norm  1.1076965E-02 H/a0    max. gradient  2.8056770E-03 H/a0
step length    7.4771236E-02 a0      max. step      1.4464007E-02 a0

--------------------------------------------------------------------------------

***  Geometry step: 29

 iSCC Total electronic   Diff electronic      SCC error    
    1   -0.19433335E+03    0.00000000E+00    0.16325563E-02
    2   -0.19433246E+03    0.89919302E-03    0.83784023E-03
    3   -0.19433246E+03   -0.28631343E-05    0.27949370E-03
    4   -0.19433246E+03   -0.62399639E-06    0.35143172E-04
    5   -0.19433246E+03   -0.17669322E-07    0.50306404E-05
    6   -0.19433246E+03   -0.13409931E-08    0.11299698E-05
    7   -0.19433246E+03   -0.14495072E-10    0.47419030E-06
    8   -0.19433246E+03   -0.25579538E-12    0.69147360E-07
    9   -0.19433246E+03   -0.85265128E-13    0.17536447E-07
   10   -0.19433246E+03   -0.28421709E-13    0.35183354E-08

Total Energy:                     -192.3758795326 H        -5234.8140 eV
Extrapolated to 0K:               -192.3758795326 H        -5234.8140 eV
Total Mermin free energy:         -192.3758795326 H        -5234.8140 eV
Force related energy:             -192.3758795326 H        -5234.8140 eV

Volume:                              0.100013E+05 au^3   0.148204E+04 A^3
Pressure:                            0.130481E-05 au     0.383888E+08 Pa
>> Charges saved for restart in charges.bin

total energy  -1.9237588E+02 H       energy change -1.7820365E-04 H
gradient norm  9.8611417E-03 H/a0    max. gradient  2.0119418E-03 H/a0
step length    7.7099852E-02 a0      max. step      1.5809885E-02 a0

--------------------------------------------------------------------------------

***  Geometry step: 30

 iSCC Total electronic   Diff electronic      SCC error    
    1   -0.19433246E+03    0.00000000E+00    0.15797694E-02
    2   -0.19433216E+03    0.29663355E-03    0.73184697E-03
    3   -0.19433216E+03   -0.23653312E-05    0.20804896E-03
    4   -0.19433216E+03   -0.50957789E-06    0.34293388E-04
    5   -0.19433216E+03   -0.91107211E-08    0.45029247E-05
    6   -0.19433216E+03   -0.89116270E-09    0.70764606E-06
    7   -0.19433216E+03   -0.16228796E-10    0.29807755E-06
    8   -0.19433216E+03   -0.36948222E-12    0.65759766E-07
    9   -0.19433216E+03    0.28421709E-13    0.11709431E-07
   10   -0.19433216E+03   -0.28421709E-13    0.21849020E-08

Total Energy:                     -192.3760246736 H        -5234.8180 eV
Extrapolated to 0K:               -192.3760246736 H        -5234.8180 eV
Total Mermin free energy:         -192.3760246736 H        -5234.8180 eV
Force related energy:             -192.3760246736 H        -5234.8180 eV

Volume:                              0.100076E+05 au^3   0.148298E+04 A^3
Pressure:                            0.507889E-06 au     0.149426E+08 Pa
>> Charges saved for restart in charges.bin

total energy  -1.9237602E+02 H       energy change -1.4514099E-04 H
gradient norm  8.8831338E-03 H/a0    max. gradient  1.7567640E-03 H/a0
step length    6.3916224E-02 a0      max. step      1.3875618E-02 a0

--------------------------------------------------------------------------------

***  Geometry step: 31

 iSCC Total electronic   Diff electronic      SCC error    
    1   -0.19433216E+03    0.00000000E+00    0.15966153E-02
    2   -0.19433317E+03   -0.10089594E-02    0.67655819E-03
    3   -0.19433318E+03   -0.30208971E-05    0.19613832E-03
    4   -0.19433318E+03   -0.64326886E-06    0.38996097E-04
    5   -0.19433318E+03   -0.98781925E-08    0.44725055E-05
    6   -0.19433318E+03   -0.81610096E-09    0.12619472E-05
    7   -0.19433318E+03   -0.20975222E-10    0.44515979E-06
    8   -0.19433318E+03   -0.39790393E-12    0.59971494E-07
    9   -0.19433318E+03   -0.28421709E-13    0.14255725E-07
   10   -0.19433318E+03    0.56843419E-13    0.36513224E-08

Total Energy:                     -192.3761735928 H        -5234.8220 eV
Extrapolated to 0K:               -192.3761735928 H        -5234.8220 eV
Total Mermin free energy:         -192.3761735928 H        -5234.8220 eV
Force related energy:             -192.3761735928 H        -5234.8220 eV

Volume:                              0.100115E+05 au^3   0.148355E+04 A^3
Pressure:                            0.359796E-06 au     0.105856E+08 Pa
>> Charges saved for restart in charges.bin

total energy  -1.9237617E+02 H       energy change -1.4891924E-04 H
gradient norm  9.4040309E-03 H/a0    max. gradient  2.1288072E-03 H/a0
step length    6.4483438E-02 a0      max. step      1.4497490E-02 a0

--------------------------------------------------------------------------------

***  Geometry step: 32

 iSCC Total electronic   Diff electronic      SCC error    
    1   -0.19433318E+03    0.00000000E+00    0.18055289E-02
    2   -0.19433515E+03   -0.19759693E-02    0.85117044E-03
    3   -0.19433516E+03   -0.33251411E-05    0.30677740E-03
    4   -0.19433516E+03   -0.71568854E-06    0.38005736E-04
    5   -0.19433516E+03   -0.11216997E-07    0.68712751E-05
    6   -0.19433516E+03   -0.11832810E-08    0.17686753E-05
    7   -0.19433516E+03   -0.16086688E-10    0.50267185E-06
    8   -0.19433516E+03   -0.25579538E-12    0.60291975E-07
    9   -0.19433516E+03   -0.14210855E-12    0.19400018E-07
   10   -0.19433516E+03    0.56843419E-13    0.26359488E-08

Total Energy:                     -192.3763310349 H        -5234.8263 eV
Extrapolated to 0K:               -192.3763310349 H        -5234.8263 eV
Total Mermin free energy:         -192.3763310349 H        -5234.8263 eV
Force related energy:             -192.3763310349 H        -5234.8263 eV

Volume:                              0.100134E+05 au^3   0.148384E+04 A^3
Pressure:                            0.820218E-06 au     0.241316E+08 Pa
>> Charges saved for restart in charges.bin

total energy  -1.9237633E+02 H       energy change -1.5744209E-04 H
gradient norm  1.0415127E-02 H/a0    max. gradient  2.6158479E-03 H/a0
step length    6.9771524E-02 a0      max. step      1.6037384E-02 a0

--------------------------------------------------------------------------------

***  Geometry step: 33

 iSCC Total electronic   Diff electronic      SCC error    
    1   -0.19433516E+03    0.00000000E+00    0.15636658E-02
    2   -0.19433714E+03   -0.19812303E-02    0.96052506E-03
    3   -0.19433714E+03   -0.25883702E-05    0.30582473E-03
    4   -0.19433714E+03   -0.59308917E-06    0.28587503E-04
    5   -0.19433714E+03   -0.12705044E-07    0.62955594E-05
    6   -0.19433714E+03   -0.11547456E-08    0.15579678E-05
    7   -0.19433714E+03   -0.10288659E-10    0.38835958E-06
    8   -0.19433714E+03   -0.25579538E-12    0.64655896E-07
    9   -0.19433714E+03    0.00000000E+00    0.25919740E-07
   10   -0.19433714E+03    0.00000000E+00    0.18505966E-08

Total Energy:                     -192.3764946137 H        -5234.8308 eV
Extrapolated to 0K:               -192.3764946137 H        -5234.8308 eV
Total Mermin free energy:         -192.3764946137 H        -5234.8308 eV
Force related energy:             -192.3764946137 H        -5234.8308 eV

Volume:                              0.100151E+05 au^3   0.148409E+04 A^3
Pressure:                            0.142510E-05 au     0.419278E+08 Pa
>> Charges saved for restart in charges.bin

total energy  -1.9237649E+02 H       energy change -1.6357881E-04 H
gradient norm  1.0226347E-02 H/a0    max. gradient  2.1882730E-03 H/a0
step length    7.7235491E-02 a0      max. step      1.7990253E-02 a0

--------------------------------------------------------------------------------

***  Geometry step: 34

 iSCC Total electronic   Diff electronic      SCC error    
    1   -0.19433714E+03    0.00000000E+00    0.16667050E-02
    2   -0.19433868E+03   -0.15339892E-02    0.10284623E-02
    3   -0.19433868E+03   -0.23973617E-05    0.27706311E-03
    4   -0.19433868E+03   -0.55714426E-06    0.37990040E-04
    5   -0.19433868E+03   -0.17545744E-07    0.38882754E-05
    6   -0.19433868E+03   -0.94300390E-09    0.13628596E-05
    7   -0.19433868E+03   -0.96918029E-11    0.46176091E-06
    8   -0.19433868E+03   -0.17053026E-12    0.47837397E-07
    9   -0.19433868E+03   -0.56843419E-13    0.10406052E-07
   10   -0.19433868E+03    0.00000000E+00    0.16176536E-08

Total Energy:                     -192.3766644129 H        -5234.8354 eV
Extrapolated to 0K:               -192.3766644129 H        -5234.8354 eV
Total Mermin free energy:         -192.3766644129 H        -5234.8354 eV
Force related energy:             -192.3766644129 H        -5234.8354 eV

Volume:                              0.100170E+05 au^3   0.148436E+04 A^3
Pressure:                            0.193869E-05 au     0.570383E+08 Pa
>> Charges saved for restart in charges.bin

total energy  -1.9237666E+02 H       energy change -1.6979918E-04 H
gradient norm  9.4297753E-03 H/a0    max. gradient  1.7942180E-03 H/a0
step length    8.8200816E-02 a0      max. step      2.0881531E-02 a0

--------------------------------------------------------------------------------

***  Geometry step: 35

 iSCC Total electronic   Diff electronic      SCC error    
    1   -0.19433868E+03    0.00000000E+00    0.20543917E-02
    2   -0.19433941E+03   -0.72762167E-03    0.11243613E-02
    3   -0.19433941E+03   -0.27336207E-05    0.34739996E-03
    4   -0.19433941E+03   -0.61081533E-06    0.31749955E-04
    5   -0.19433941E+03   -0.17323885E-07    0.48059241E-05
    6   -0.19433941E+03   -0.99072395E-09    0.14444279E-05
    7   -0.19433941E+03   -0.19866775E-10    0.44599943E-06
    8   -0.19433941E+03   -0.45474735E-12    0.80419363E-07
    9   -0.19433941E+03   -0.85265128E-13    0.17656733E-07
   10   -0.19433941E+03   -0.14210855E-12    0.31143284E-08

Total Energy:                     -192.3768150506 H        -5234.8395 eV
Extrapolated to 0K:               -192.3768150506 H        -5234.8395 eV
Total Mermin free energy:         -192.3768150506 H        -5234.8395 eV
Force related energy:             -192.3768150506 H        -5234.8395 eV

Volume:                              0.100187E+05 au^3   0.148462E+04 A^3
Pressure:                            0.228935E-05 au     0.673551E+08 Pa
>> Charges saved for restart in charges.bin

total energy  -1.9237682E+02 H       energy change -1.5063766E-04 H
gradient norm  9.0702625E-03 H/a0    max. gradient  1.8297854E-03 H/a0
step length    8.2152822E-02 a0      max. step      1.9603021E-02 a0

--------------------------------------------------------------------------------

***  Geometry step: 36

 iSCC Total electronic   Diff electronic      SCC error    
    1   -0.19433941E+03    0.00000000E+00    0.19171627E-02
    2   -0.19433934E+03    0.67921279E-04    0.11004027E-02
    3   -0.19433934E+03   -0.28416318E-05    0.31755447E-03
    4   -0.19433935E+03   -0.64374120E-06    0.28239900E-04
    5   -0.19433935E+03   -0.16992828E-07    0.88881858E-05
    6   -0.19433935E+03   -0.10639383E-08    0.19427402E-05
    7   -0.19433935E+03   -0.20378366E-10    0.43615019E-06
    8   -0.19433935E+03   -0.39790393E-12    0.92393055E-07
    9   -0.19433935E+03   -0.56843419E-13    0.23400036E-07
   10   -0.19433935E+03   -0.85265128E-13    0.31528886E-08

Total Energy:                     -192.3769534566 H        -5234.8432 eV
Extrapolated to 0K:               -192.3769534566 H        -5234.8432 eV
Total Mermin free energy:         -192.3769534566 H        -5234.8432 eV
Force related energy:             -192.3769534566 H        -5234.8432 eV

Volume:                              0.100206E+05 au^3   0.148490E+04 A^3
Pressure:                            0.208944E-05 au     0.614733E+08 Pa
>> Charges saved for restart in charges.bin

total energy  -1.9237695E+02 H       energy change -1.3840607E-04 H
gradient norm  9.0952236E-03 H/a0    max. gradient  1.9672343E-03 H/a0
step length    7.7513412E-02 a0      max. step      1.8265319E-02 a0

--------------------------------------------------------------------------------

***  Geometry step: 37

 iSCC Total electronic   Diff electronic      SCC error    
    1   -0.19433935E+03    0.00000000E+00    0.16079177E-02
    2   -0.19433991E+03   -0.56887067E-03    0.91424095E-03
    3   -0.19433992E+03   -0.22583476E-05    0.21747891E-03
    4   -0.19433992E+03   -0.51064930E-06    0.30642321E-04
    5   -0.19433992E+03   -0.10812897E-07    0.79871943E-05
    6   -0.19433992E+03   -0.79944584E-09    0.14763229E-05
    7   -0.19433992E+03   -0.14665602E-10    0.34462497E-06
    8   -0.19433992E+03   -0.48316906E-12    0.71732832E-07
    9   -0.19433992E+03   -0.14210855E-12    0.17949388E-07
   10   -0.19433992E+03    0.56843419E-13    0.18035573E-08

Total Energy:                     -192.3770750240 H        -5234.8466 eV
Extrapolated to 0K:               -192.3770750240 H        -5234.8466 eV
Total Mermin free energy:         -192.3770750240 H        -5234.8466 eV
Force related energy:             -192.3770750240 H        -5234.8466 eV

Volume:                              0.100219E+05 au^3   0.148510E+04 A^3
Pressure:                            0.208408E-05 au     0.613157E+08 Pa
>> Charges saved for restart in charges.bin

total energy  -1.9237708E+02 H       energy change -1.2156736E-04 H
gradient norm  8.1788127E-03 H/a0    max. gradient  1.9737486E-03 H/a0
step length    6.5527683E-02 a0      max. step      1.4665228E-02 a0

--------------------------------------------------------------------------------

***  Geometry step: 38

 iSCC Total electronic   Diff electronic      SCC error    
    1   -0.19433992E+03    0.00000000E+00    0.13503636E-02
    2   -0.19434107E+03   -0.11560745E-02    0.76237743E-03
    3   -0.19434107E+03   -0.17522847E-05    0.16215716E-03
    4   -0.19434108E+03   -0.38949287E-06    0.29474435E-04
    5   -0.19434108E+03   -0.56485874E-08    0.62387212E-05
    6   -0.19434108E+03   -0.47640469E-09    0.12092698E-05
    7   -0.19434108E+03   -0.92370556E-11    0.29583845E-06
    8   -0.19434108E+03   -0.36948222E-12    0.55763834E-07
    9   -0.19434108E+03   -0.56843419E-13    0.13732864E-07
   10   -0.19434108E+03   -0.56843419E-13    0.11781562E-08

Total Energy:                     -192.3771776933 H        -5234.8494 eV
Extrapolated to 0K:               -192.3771776933 H        -5234.8494 eV
Total Mermin free energy:         -192.3771776933 H        -5234.8494 eV
Force related energy:             -192.3771776933 H        -5234.8494 eV

Volume:                              0.100233E+05 au^3   0.148529E+04 A^3
Pressure:                            0.223950E-05 au     0.658885E+08 Pa
>> Charges saved for restart in charges.bin

total energy  -1.9237718E+02 H       energy change -1.0266932E-04 H
gradient norm  7.0397546E-03 H/a0    max. gradient  1.2426552E-03 H/a0
step length    5.9826122E-02 a0      max. step      1.2468222E-02 a0

--------------------------------------------------------------------------------

***  Geometry step: 39

 iSCC Total electronic   Diff electronic      SCC error    
    1   -0.19434108E+03    0.00000000E+00    0.10467601E-02
    2   -0.19434271E+03   -0.16345446E-02    0.46748842E-03
    3   -0.19434271E+03   -0.12504998E-05    0.12598222E-03
    4   -0.19434271E+03   -0.25841018E-06    0.21308847E-04
    5   -0.19434271E+03   -0.27766873E-08    0.42462541E-05
    6   -0.19434271E+03   -0.23106850E-09    0.87395438E-06
    7   -0.19434271E+03   -0.56843419E-11    0.17152268E-06
    8   -0.19434271E+03   -0.25579538E-12    0.43372768E-07
    9   -0.19434271E+03   -0.28421709E-13    0.82907361E-08

Total Energy:                     -192.3772594883 H        -5234.8516 eV
Extrapolated to 0K:               -192.3772594883 H        -5234.8516 eV
Total Mermin free energy:         -192.3772594883 H        -5234.8516 eV
Force related energy:             -192.3772594883 H        -5234.8516 eV

Volume:                              0.100249E+05 au^3   0.148554E+04 A^3
Pressure:                            0.245748E-05 au     0.723017E+08 Pa
>> Charges saved for restart in charges.bin

total energy  -1.9237726E+02 H       energy change -8.1795009E-05 H
gradient norm  6.7616911E-03 H/a0    max. gradient  1.2868309E-03 H/a0
step length    5.1386372E-02 a0      max. step      9.7703068E-03 a0

--------------------------------------------------------------------------------

***  Geometry step: 40

 iSCC Total electronic   Diff electronic      SCC error    
    1   -0.19434271E+03    0.00000000E+00    0.13466538E-02
    2   -0.19434480E+03   -0.20919912E-02    0.55893665E-03
    3   -0.19434480E+03   -0.13597819E-05    0.18893535E-03
    4   -0.19434480E+03   -0.26284445E-06    0.34795859E-04
    5   -0.19434480E+03   -0.38191104E-08    0.27911684E-05
    6   -0.19434480E+03   -0.32221692E-09    0.72425993E-06
    7   -0.19434480E+03   -0.76454398E-11    0.18314787E-06
    8   -0.19434480E+03   -0.25579538E-12    0.44367987E-07
    9   -0.19434480E+03    0.00000000E+00    0.11972777E-07
   10   -0.19434480E+03    0.56843419E-13    0.21252382E-08

Total Energy:                     -192.3773401740 H        -5234.8538 eV
Extrapolated to 0K:               -192.3773401740 H        -5234.8538 eV
Total Mermin free energy:         -192.3773401740 H        -5234.8538 eV
Force related energy:             -192.3773401740 H        -5234.8538 eV

Volume:                              0.100272E+05 au^3   0.148588E+04 A^3
Pressure:                            0.272692E-05 au     0.802288E+08 Pa
>> Charges saved for restart in charges.bin

total energy  -1.9237734E+02 H       energy change -8.0685714E-05 H
gradient norm  7.1164620E-03 H/a0    max. gradient  1.5063262E-03 H/a0
step length    5.4241644E-02 a0      max. step      1.0188638E-02 a0

--------------------------------------------------------------------------------

***  Geometry step: 41

 iSCC Total electronic   Diff electronic      SCC error    
    1   -0.19434480E+03    0.00000000E+00    0.13650048E-02
    2   -0.19434726E+03   -0.24553821E-02    0.60793884E-03
    3   -0.19434726E+03   -0.13945276E-05    0.19976333E-03
    4   -0.19434726E+03   -0.27786223E-06    0.36020710E-04
    5   -0.19434726E+03   -0.60688592E-08    0.56902385E-05
    6   -0.19434726E+03   -0.48842708E-09    0.11303962E-05
    7   -0.19434726E+03   -0.83559826E-11    0.19252986E-06
    8   -0.19434726E+03   -0.22737368E-12    0.59752389E-07
    9   -0.19434726E+03    0.00000000E+00    0.16835771E-07
   10   -0.19434726E+03    0.56843419E-13    0.16001769E-08

Total Energy:                     -192.3774230541 H        -5234.8560 eV
Extrapolated to 0K:               -192.3774230541 H        -5234.8560 eV
Total Mermin free energy:         -192.3774230541 H        -5234.8560 eV
Force related energy:             -192.3774230541 H        -5234.8560 eV

Volume:                              0.100300E+05 au^3   0.148629E+04 A^3
Pressure:                            0.322455E-05 au     0.948694E+08 Pa
>> Charges saved for restart in charges.bin

total energy  -1.9237742E+02 H       energy change -8.2880036E-05 H
gradient norm  7.2765157E-03 H/a0    max. gradient  1.7641253E-03 H/a0
step length    5.9121300E-02 a0      max. step      1.1506548E-02 a0

--------------------------------------------------------------------------------

***  Geometry step: 42

 iSCC Total electronic   Diff electronic      SCC error    
    1   -0.19434726E+03    0.00000000E+00    0.13910096E-02
    2   -0.19434821E+03   -0.95277921E-03    0.56459386E-03
    3   -0.19434822E+03   -0.10758100E-05    0.14410485E-03
    4   -0.19434822E+03   -0.22010474E-06    0.28153190E-04
    5   -0.19434822E+03   -0.44155399E-08    0.42136271E-05
    6   -0.19434822E+03   -0.37215386E-09    0.75817442E-06
    7   -0.19434822E+03   -0.61959327E-11    0.16196476E-06
    8   -0.19434822E+03   -0.25579538E-12    0.56425502E-07
    9   -0.19434822E+03    0.28421709E-13    0.12013024E-07
   10   -0.19434822E+03    0.00000000E+00    0.11979511E-08

Total Energy:                     -192.3775006476 H        -5234.8581 eV
Extrapolated to 0K:               -192.3775006476 H        -5234.8581 eV
Total Mermin free energy:         -192.3775006476 H        -5234.8581 eV
Force related energy:             -192.3775006476 H        -5234.8581 eV

Volume:                              0.100340E+05 au^3   0.148689E+04 A^3
Pressure:                            0.318961E-05 au     0.938417E+08 Pa
>> Charges saved for restart in charges.bin

total energy  -1.9237750E+02 H       energy change -7.7593507E-05 H
gradient norm  6.7866193E-03 H/a0    max. gradient  1.6601457E-03 H/a0
step length    5.6643167E-02 a0      max. step      1.1393179E-02 a0

--------------------------------------------------------------------------------

***  Geometry step: 43

 iSCC Total electronic   Diff electronic      SCC error    
    1   -0.19434822E+03    0.00000000E+00    0.13025918E-02
    2   -0.19434818E+03    0.36856055E-04    0.55403738E-03
    3   -0.19434818E+03   -0.16205273E-05    0.14763106E-03
    4   -0.19434818E+03   -0.34688733E-06    0.29041446E-04
    5   -0.19434818E+03   -0.46861999E-08    0.43829221E-05
    6   -0.19434818E+03   -0.41600856E-09    0.10382317E-05
    7   -0.19434818E+03   -0.10601298E-10    0.31407846E-06
    8   -0.19434818E+03   -0.56843419E-13    0.61540129E-07
    9   -0.19434818E+03   -0.14210855E-12    0.15025223E-07
   10   -0.19434818E+03    0.56843419E-13    0.29715661E-08

Total Energy:                     -192.3775842795 H        -5234.8604 eV
Extrapolated to 0K:               -192.3775842795 H        -5234.8604 eV
Total Mermin free energy:         -192.3775842795 H        -5234.8604 eV
Force related energy:             -192.3775842795 H        -5234.8604 eV

Volume:                              0.100397E+05 au^3   0.148773E+04 A^3
Pressure:                            0.273767E-05 au     0.805450E+08 Pa
>> Charges saved for restart in charges.bin

total energy  -1.9237758E+02 H       energy change -8.3631970E-05 H
gradient norm  6.4326130E-03 H/a0    max. gradient  1.7944382E-03 H/a0
step length    6.5302210E-02 a0      max. step      1.3426608E-02 a0

--------------------------------------------------------------------------------

***  Geometry step: 44

 iSCC Total electronic   Diff electronic      SCC error    
    1   -0.19434818E+03    0.00000000E+00    0.11011516E-02
    2   -0.19434737E+03    0.81507180E-03    0.50981689E-03
    3   -0.19434737E+03   -0.10901653E-05    0.10406464E-03
    4   -0.19434737E+03   -0.22764672E-06    0.19113026E-04
    5   -0.19434737E+03   -0.27565648E-08    0.32222461E-05
    6   -0.19434737E+03   -0.25872282E-09    0.79312958E-06
    7   -0.19434737E+03   -0.65654149E-11    0.20554700E-06
    8   -0.19434737E+03   -0.85265128E-13    0.42816896E-07
    9   -0.19434737E+03   -0.28421709E-13    0.89311127E-08

Total Energy:                     -192.3776534212 H        -5234.8623 eV
Extrapolated to 0K:               -192.3776534212 H        -5234.8623 eV
Total Mermin free energy:         -192.3776534212 H        -5234.8623 eV
Force related energy:             -192.3776534212 H        -5234.8623 eV

Volume:                              0.100453E+05 au^3   0.148856E+04 A^3
Pressure:                            0.201964E-05 au     0.594199E+08 Pa
>> Charges saved for restart in charges.bin

total energy  -1.9237765E+02 H       energy change -6.9141657E-05 H
gradient norm  6.6212189E-03 H/a0    max. gradient  1.8673563E-03 H/a0
step length    5.6122097E-02 a0      max. step      1.1603688E-02 a0

--------------------------------------------------------------------------------

***  Geometry step: 45

 iSCC Total electronic   Diff electronic      SCC error    
    1   -0.19434737E+03    0.00000000E+00    0.97243106E-03
    2   -0.19434630E+03    0.10691440E-02    0.46600664E-03
    3   -0.19434630E+03   -0.99609636E-06    0.15370253E-03
    4   -0.19434630E+03   -0.20750682E-06    0.17345106E-04
    5   -0.19434630E+03   -0.31593004E-08    0.52681729E-05
    6   -0.19434630E+03   -0.24493829E-09    0.11897572E-05
    7   -0.19434630E+03   -0.46895821E-11    0.14082144E-06
    8   -0.19434630E+03   -0.11368684E-12    0.38321495E-07
    9   -0.19434630E+03    0.85265128E-13    0.10003197E-07
   10   -0.19434630E+03   -0.85265128E-13    0.10387682E-08

Total Energy:                     -192.3777323124 H        -5234.8644 eV
Extrapolated to 0K:               -192.3777323124 H        -5234.8644 eV
Total Mermin free energy:         -192.3777323124 H        -5234.8644 eV
Force related energy:             -192.3777323124 H        -5234.8644 eV

Volume:                              0.100518E+05 au^3   0.148952E+04 A^3
Pressure:                            0.112597E-05 au     0.331271E+08 Pa
>> Charges saved for restart in charges.bin

total energy  -1.9237773E+02 H       energy change -7.8891208E-05 H
gradient norm  7.0264486E-03 H/a0    max. gradient  1.5691770E-03 H/a0
step length    6.5600048E-02 a0      max. step      1.3126550E-02 a0

--------------------------------------------------------------------------------

***  Geometry step: 46

 iSCC Total electronic   Diff electronic      SCC error    
    1   -0.19434630E+03    0.00000000E+00    0.97045494E-03
    2   -0.19434558E+03    0.71808023E-03    0.54635368E-03
    3   -0.19434558E+03   -0.98997964E-06    0.15149606E-03
    4   -0.19434558E+03   -0.22738166E-06    0.16398681E-04
    5   -0.19434558E+03   -0.39089230E-08    0.46256081E-05
    6   -0.19434558E+03   -0.21546498E-09    0.83787698E-06
    7   -0.19434558E+03   -0.38653525E-11    0.18814055E-06
    8   -0.19434558E+03   -0.28421709E-13    0.50523441E-07
    9   -0.19434558E+03   -0.85265128E-13    0.12702295E-07
   10   -0.19434558E+03    0.56843419E-13    0.11622161E-08

Total Energy:                     -192.3778185258 H        -5234.8668 eV
Extrapolated to 0K:               -192.3778185258 H        -5234.8668 eV
Total Mermin free energy:         -192.3778185258 H        -5234.8668 eV
Force related energy:             -192.3778185258 H        -5234.8668 eV

Volume:                              0.100583E+05 au^3   0.149049E+04 A^3
Pressure:                            0.473462E-06 au     0.139297E+08 Pa
>> Charges saved for restart in charges.bin

total energy  -1.9237782E+02 H       energy change -8.6213424E-05 H
gradient norm  6.9020069E-03 H/a0    max. gradient  1.3605366E-03 H/a0
step length    7.4165378E-02 a0      max. step      1.4716277E-02 a0

--------------------------------------------------------------------------------

***  Geometry step: 47

 iSCC Total electronic   Diff electronic      SCC error    
    1   -0.19434558E+03    0.00000000E+00    0.11230158E-02
    2   -0.19434529E+03    0.29411496E-03    0.51099322E-03
    3   -0.19434529E+03   -0.14918016E-05    0.15543017E-03
    4   -0.19434529E+03   -0.35087444E-06    0.18170545E-04
    5   -0.19434529E+03   -0.45213824E-08    0.37418714E-05
    6   -0.19434529E+03   -0.34231107E-09    0.73857802E-06
    7   -0.19434529E+03   -0.57696070E-11    0.29770516E-06
    8   -0.19434529E+03   -0.56843419E-13    0.47264510E-07
    9   -0.19434529E+03    0.28421709E-13    0.13518645E-07
   10   -0.19434529E+03   -0.28421709E-13    0.20074200E-08

Total Energy:                     -192.3779061933 H        -5234.8692 eV
Extrapolated to 0K:               -192.3779061933 H        -5234.8692 eV
Total Mermin free energy:         -192.3779061933 H        -5234.8692 eV
Force related energy:             -192.3779061933 H        -5234.8692 eV

Volume:                              0.100647E+05 au^3   0.149143E+04 A^3
Pressure:                           -0.245337E-06 au    -0.721806E+07 Pa
>> Charges saved for restart in charges.bin

total energy  -1.9237791E+02 H       energy change -8.7667448E-05 H
gradient norm  6.9545641E-03 H/a0    max. gradient  1.6229112E-03 H/a0
step length    8.3771864E-02 a0      max. step      1.6912908E-02 a0

--------------------------------------------------------------------------------

***  Geometry step: 48

 iSCC Total electronic   Diff electronic      SCC error    
    1   -0.19434529E+03    0.00000000E+00    0.15924680E-02
    2   -0.19434683E+03   -0.15420211E-02    0.67929178E-03
    3   -0.19434683E+03   -0.17322085E-05    0.13941795E-03
    4   -0.19434683E+03   -0.40038398E-06    0.19743870E-04
    5   -0.19434683E+03   -0.48655693E-08    0.35836021E-05
    6   -0.19434683E+03   -0.37701398E-09    0.70676137E-06
    7   -0.19434683E+03   -0.11738166E-10    0.29809167E-06
    8   -0.19434683E+03   -0.19895197E-12    0.64478261E-07
    9   -0.19434683E+03    0.00000000E+00    0.90404537E-08

Total Energy:                     -192.3779874564 H        -5234.8714 eV
Extrapolated to 0K:               -192.3779874564 H        -5234.8714 eV
Total Mermin free energy:         -192.3779874564 H        -5234.8714 eV
Force related energy:             -192.3779874564 H        -5234.8714 eV

Volume:                              0.100683E+05 au^3   0.149196E+04 A^3
Pressure:                           -0.122608E-06 au    -0.360724E+07 Pa
>> Charges saved for restart in charges.bin

total energy  -1.9237799E+02 H       energy change -8.1263142E-05 H
gradient norm  6.9783090E-03 H/a0    max. gradient  1.4375200E-03 H/a0
step length    7.5680941E-02 a0      max. step      1.5906092E-02 a0

--------------------------------------------------------------------------------

***  Geometry step: 49

 iSCC Total electronic   Diff electronic      SCC error    
    1   -0.19434683E+03    0.00000000E+00    0.16064261E-02
    2   -0.19434928E+03   -0.24458280E-02    0.68939566E-03
    3   -0.19434928E+03   -0.17849773E-05    0.14818809E-03
    4   -0.19434928E+03   -0.36331602E-06    0.17669207E-04
    5   -0.19434928E+03   -0.47103015E-08    0.41590082E-05
    6   -0.19434928E+03   -0.33938363E-09    0.10080131E-05
    7   -0.19434928E+03   -0.80717655E-11    0.26267863E-06
    8   -0.19434928E+03   -0.22737368E-12    0.70394044E-07
    9   -0.19434928E+03   -0.85265128E-13    0.11854444E-07
   10   -0.19434928E+03    0.56843419E-13    0.16777641E-08

Total Energy:                     -192.3780726534 H        -5234.8737 eV
Extrapolated to 0K:               -192.3780726534 H        -5234.8737 eV
Total Mermin free energy:         -192.3780726534 H        -5234.8737 eV
Force related energy:             -192.3780726534 H        -5234.8737 eV

Volume:                              0.100709E+05 au^3   0.149236E+04 A^3
Pressure:                            0.282891E-06 au     0.832295E+07 Pa
>> Charges saved for restart in charges.bin

total energy  -1.9237807E+02 H       energy change -8.5196958E-05 H
gradient norm  7.1586318E-03 H/a0    max. gradient  1.4096778E-03 H/a0
step length    8.0320895E-02 a0      max. step      1.7257838E-02 a0

--------------------------------------------------------------------------------

***  Geometry step: 50

 iSCC Total electronic   Diff electronic      SCC error    
    1   -0.19434928E+03    0.00000000E+00    0.11945795E-02
    2   -0.19435221E+03   -0.29270104E-02    0.61047938E-03
    3   -0.19435221E+03   -0.19074880E-05    0.18502404E-03
    4   -0.19435221E+03   -0.38237172E-06    0.20371796E-04
    5   -0.19435221E+03   -0.63288326E-08    0.52295050E-05
    6   -0.19435221E+03   -0.34074787E-09    0.11311174E-05
    7   -0.19435221E+03   -0.42916781E-11    0.22362252E-06
    8   -0.19435221E+03   -0.25579538E-12    0.57306331E-07
    9   -0.19435221E+03    0.14210855E-12    0.10436216E-07
   10   -0.19435221E+03   -0.85265128E-13    0.17569941E-08

Total Energy:                     -192.3781633162 H        -5234.8762 eV
Extrapolated to 0K:               -192.3781633162 H        -5234.8762 eV
Total Mermin free energy:         -192.3781633162 H        -5234.8762 eV
Force related energy:             -192.3781633162 H        -5234.8762 eV

Volume:                              0.100730E+05 au^3   0.149266E+04 A^3
Pressure:                            0.103086E-05 au     0.303290E+08 Pa
>> Charges saved for restart in charges.bin

total energy  -1.9237816E+02 H       energy change -9.0662799E-05 H
gradient norm  7.4483958E-03 H/a0    max. gradient  1.5908271E-03 H/a0
step length    8.4888253E-02 a0      max. step      1.8548127E-02 a0

--------------------------------------------------------------------------------

***  Geometry step: 51

 iSCC Total electronic   Diff electronic      SCC error    
    1   -0.19435221E+03    0.00000000E+00    0.15632856E-02
    2   -0.19435368E+03   -0.14722885E-02    0.87488488E-03
    3   -0.19435369E+03   -0.15270715E-05    0.20485803E-03
    4   -0.19435369E+03   -0.33747494E-06    0.18311071E-04
    5   -0.19435369E+03   -0.62692607E-08    0.66233252E-05
    6   -0.19435369E+03   -0.37297809E-09    0.13597913E-05
    7   -0.19435369E+03   -0.58264504E-11    0.28071693E-06
    8   -0.19435369E+03   -0.14210855E-12    0.46856780E-07
    9   -0.19435369E+03    0.00000000E+00    0.89705847E-08

Total Energy:                     -192.3782537258 H        -5234.8786 eV
Extrapolated to 0K:               -192.3782537258 H        -5234.8786 eV
Total Mermin free energy:         -192.3782537258 H        -5234.8786 eV
Force related energy:             -192.3782537258 H        -5234.8786 eV

Volume:                              0.100757E+05 au^3   0.149307E+04 A^3
Pressure:                            0.119885E-05 au     0.352714E+08 Pa
>> Charges saved for restart in charges.bin

total energy  -1.9237825E+02 H       energy change -9.0409625E-05 H
gradient norm  7.2405181E-03 H/a0    max. gradient  1.7802903E-03 H/a0
step length    8.4572684E-02 a0      max. step      1.8369816E-02 a0

--------------------------------------------------------------------------------

***  Geometry step: 52

 iSCC Total electronic   Diff electronic      SCC error    
    1   -0.19435369E+03    0.00000000E+00    0.21338293E-02
    2   -0.19435431E+03   -0.62826046E-03    0.12051640E-02
    3   -0.19435432E+03   -0.25430023E-05    0.25360741E-03
    4   -0.19435432E+03   -0.62567321E-06    0.28884529E-04
    5   -0.19435432E+03   -0.95049586E-08    0.84505101E-05
    6   -0.19435432E+03   -0.65224981E-09    0.18880491E-05
[...]
Extrapolated to 0K:               -192.3805423650 H        -5234.9409 eV
Total Mermin free energy:         -192.3805423650 H        -5234.9409 eV
Force related energy:             -192.3805423650 H        -5234.9409 eV

Volume:                              0.997245E+04 au^3   0.147777E+04 A^3
Pressure:                            0.248393E-06 au     0.730797E+07 Pa
>> Charges saved for restart in charges.bin

total energy  -1.9238054E+02 H       energy change -2.7618438E-06 H
gradient norm  1.0558933E-03 H/a0    max. gradient  2.1614819E-04 H/a0
step length    7.8244004E-03 a0      max. step      1.6890233E-03 a0

--------------------------------------------------------------------------------

***  Geometry step: 166

 iSCC Total electronic   Diff electronic      SCC error    
    1   -0.19434777E+03    0.00000000E+00    0.26481975E-03
    2   -0.19434736E+03    0.40863860E-03    0.13385567E-03
    3   -0.19434736E+03   -0.12441856E-06    0.44843730E-04
    4   -0.19434736E+03   -0.24235987E-07    0.61647313E-05
    5   -0.19434736E+03   -0.39324277E-09    0.72824285E-06
    6   -0.19434736E+03   -0.44991566E-10    0.14986038E-06
    7   -0.19434736E+03   -0.48316906E-12    0.29968714E-07
    8   -0.19434736E+03    0.85265128E-13    0.79243749E-08

Total Energy:                     -192.3805450514 H        -5234.9410 eV
Extrapolated to 0K:               -192.3805450514 H        -5234.9410 eV
Total Mermin free energy:         -192.3805450514 H        -5234.9410 eV
Force related energy:             -192.3805450514 H        -5234.9410 eV

Volume:                              0.996975E+04 au^3   0.147736E+04 A^3
Pressure:                            0.207553E-06 au     0.610642E+07 Pa
>> Charges saved for restart in charges.bin

total energy  -1.9238055E+02 H       energy change -2.6863622E-06 H
gradient norm  1.0884539E-03 H/a0    max. gradient  3.1577298E-04 H/a0
step length    3.5071338E-02 a0      max. step      7.8719409E-03 a0

--------------------------------------------------------------------------------

***  Geometry step: 167

 iSCC Total electronic   Diff electronic      SCC error    
    1   -0.19434736E+03    0.00000000E+00    0.17372178E-03
    2   -0.19434757E+03   -0.20887385E-03    0.72117345E-04
    3   -0.19434757E+03   -0.31058931E-07    0.24648587E-04
    4   -0.19434757E+03   -0.71815691E-08    0.30245331E-05
    5   -0.19434757E+03   -0.67018391E-10    0.37439401E-06
    6   -0.19434757E+03   -0.59117156E-11    0.91894691E-07
    7   -0.19434757E+03   -0.56843419E-13    0.16503733E-07
    8   -0.19434757E+03   -0.28421709E-13    0.36287258E-08

Total Energy:                     -192.3805463983 H        -5234.9410 eV
Extrapolated to 0K:               -192.3805463983 H        -5234.9410 eV
Total Mermin free energy:         -192.3805463983 H        -5234.9410 eV
Force related energy:             -192.3805463983 H        -5234.9410 eV

Volume:                              0.996958E+04 au^3   0.147734E+04 A^3
Pressure:                            0.261970E-06 au     0.770742E+07 Pa
>> Charges saved for restart in charges.bin

total energy  -1.9238055E+02 H       energy change -1.3469059E-06 H
gradient norm  9.3784832E-04 H/a0    max. gradient  2.4803482E-04 H/a0
step length    5.1316080E-03 a0      max. step      1.0900225E-03 a0

--------------------------------------------------------------------------------

***  Geometry step: 168

 iSCC Total electronic   Diff electronic      SCC error    
    1   -0.19434757E+03    0.00000000E+00    0.14053430E-03
    2   -0.19434754E+03    0.27060826E-04    0.58446770E-04
    3   -0.19434754E+03   -0.20546395E-07    0.19714232E-04
    4   -0.19434754E+03   -0.43350212E-08    0.23856070E-05
    5   -0.19434754E+03   -0.56701310E-10    0.32482981E-06
    6   -0.19434754E+03   -0.48032689E-11    0.63496684E-07
    7   -0.19434754E+03   -0.56843419E-13    0.14588133E-07
    8   -0.19434754E+03   -0.85265128E-13    0.36917109E-08

Total Energy:                     -192.3805477426 H        -5234.9411 eV
Extrapolated to 0K:               -192.3805477426 H        -5234.9411 eV
Total Mermin free energy:         -192.3805477426 H        -5234.9411 eV
Force related energy:             -192.3805477426 H        -5234.9411 eV

Volume:                              0.996954E+04 au^3   0.147733E+04 A^3
Pressure:                            0.253144E-06 au     0.744776E+07 Pa
>> Charges saved for restart in charges.bin

total energy  -1.9238055E+02 H       energy change -1.3443533E-06 H
gradient norm  8.6413458E-04 H/a0    max. gradient  1.9801797E-04 H/a0
step length    2.9051382E-03 a0      max. step      5.7979744E-04 a0

--------------------------------------------------------------------------------

***  Geometry step: 169

 iSCC Total electronic   Diff electronic      SCC error    
    1   -0.19434754E+03    0.00000000E+00    0.26544091E-03
    2   -0.19434747E+03    0.71038205E-04    0.11902357E-03
    3   -0.19434747E+03   -0.53648591E-07    0.27303190E-04
    4   -0.19434747E+03   -0.10958075E-07    0.38071755E-05
    5   -0.19434747E+03   -0.15424462E-09    0.59230614E-06
    6   -0.19434747E+03   -0.13045565E-10    0.10627529E-06
    7   -0.19434747E+03   -0.25579538E-12    0.27578191E-07
    8   -0.19434747E+03   -0.85265128E-13    0.91038546E-08

Total Energy:                     -192.3805498064 H        -5234.9411 eV
Extrapolated to 0K:               -192.3805498064 H        -5234.9411 eV
Total Mermin free energy:         -192.3805498064 H        -5234.9411 eV
Force related energy:             -192.3805498064 H        -5234.9411 eV

Volume:                              0.996971E+04 au^3   0.147736E+04 A^3
Pressure:                            0.222070E-06 au     0.653352E+07 Pa
>> Charges saved for restart in charges.bin

total energy  -1.9238055E+02 H       energy change -2.0637309E-06 H
gradient norm  1.0243866E-03 H/a0    max. gradient  2.7586042E-04 H/a0
step length    1.1775581E-02 a0      max. step      3.0663757E-03 a0

--------------------------------------------------------------------------------

***  Geometry step: 170

 iSCC Total electronic   Diff electronic      SCC error    
    1   -0.19434747E+03    0.00000000E+00    0.24324074E-03
    2   -0.19434735E+03    0.11691895E-03    0.10622228E-03
    3   -0.19434735E+03   -0.38517783E-07    0.27264278E-04
    4   -0.19434735E+03   -0.74986986E-08    0.46210154E-05
    5   -0.19434735E+03   -0.97230668E-10    0.51932949E-06
    6   -0.19434735E+03   -0.88391516E-11    0.11401323E-06
    7   -0.19434735E+03   -0.17053026E-12    0.20181268E-07
    8   -0.19434735E+03    0.00000000E+00    0.72789388E-08

Total Energy:                     -192.3805513218 H        -5234.9412 eV
Extrapolated to 0K:               -192.3805513218 H        -5234.9412 eV
Total Mermin free energy:         -192.3805513218 H        -5234.9412 eV
Force related energy:             -192.3805513218 H        -5234.9412 eV

Volume:                              0.996979E+04 au^3   0.147737E+04 A^3
Pressure:                            0.175048E-06 au     0.515008E+07 Pa
>> Charges saved for restart in charges.bin

total energy  -1.9238055E+02 H       energy change -1.5153953E-06 H
gradient norm  9.6787719E-04 H/a0    max. gradient  1.9820366E-04 H/a0
step length    1.3956811E-02 a0      max. step      3.9511113E-03 a0

--------------------------------------------------------------------------------

***  Geometry step: 171

 iSCC Total electronic   Diff electronic      SCC error    
    1   -0.19434735E+03    0.00000000E+00    0.18542002E-03
    2   -0.19434727E+03    0.88143494E-04    0.75788563E-04
    3   -0.19434727E+03   -0.21505457E-07    0.22321798E-04
    4   -0.19434727E+03   -0.47645869E-08    0.38232162E-05
    5   -0.19434727E+03   -0.57639227E-10    0.55700149E-06
    6   -0.19434727E+03   -0.55706550E-11    0.87189124E-07
    7   -0.19434727E+03   -0.11368684E-12    0.14598641E-07
    8   -0.19434727E+03   -0.56843419E-13    0.48562137E-08

Total Energy:                     -192.3805526285 H        -5234.9412 eV
Extrapolated to 0K:               -192.3805526285 H        -5234.9412 eV
Total Mermin free energy:         -192.3805526285 H        -5234.9412 eV
Force related energy:             -192.3805526285 H        -5234.9412 eV

Volume:                              0.996970E+04 au^3   0.147736E+04 A^3
Pressure:                            0.137520E-06 au     0.404598E+07 Pa
>> Charges saved for restart in charges.bin

total energy  -1.9238055E+02 H       energy change -1.3067146E-06 H
gradient norm  8.1018893E-04 H/a0    max. gradient  1.6544471E-04 H/a0
step length    4.5311972E-03 a0      max. step      9.4615203E-04 a0

--------------------------------------------------------------------------------

***  Geometry step: 172

 iSCC Total electronic   Diff electronic      SCC error    
    1   -0.19434727E+03    0.00000000E+00    0.25288285E-03
    2   -0.19434727E+03   -0.18301755E-05    0.10714172E-03
    3   -0.19434727E+03   -0.38493340E-07    0.26396511E-04
    4   -0.19434727E+03   -0.83276461E-08    0.41355047E-05
    5   -0.19434727E+03   -0.11152679E-09    0.64596872E-06
    6   -0.19434727E+03   -0.12050805E-10    0.12201833E-06
    7   -0.19434727E+03   -0.11368684E-12    0.17161475E-07
    8   -0.19434727E+03   -0.11368684E-12    0.56330594E-08

Total Energy:                     -192.3805538976 H        -5234.9412 eV
Extrapolated to 0K:               -192.3805538976 H        -5234.9412 eV
Total Mermin free energy:         -192.3805538976 H        -5234.9412 eV
Force related energy:             -192.3805538976 H        -5234.9412 eV

Volume:                              0.996948E+04 au^3   0.147732E+04 A^3
Pressure:                            0.165598E-06 au     0.487205E+07 Pa
>> Charges saved for restart in charges.bin

total energy  -1.9238055E+02 H       energy change -1.2691487E-06 H
gradient norm  6.6982050E-04 H/a0    max. gradient  1.6048949E-04 H/a0
step length    6.5693477E-03 a0      max. step      1.4908322E-03 a0

--------------------------------------------------------------------------------

***  Geometry step: 173

 iSCC Total electronic   Diff electronic      SCC error    
    1   -0.19434727E+03    0.00000000E+00    0.97139339E-04
    2   -0.19434721E+03    0.53859339E-04    0.62721243E-04
    3   -0.19434721E+03   -0.68980626E-08    0.20953785E-04
    4   -0.19434721E+03   -0.16468107E-08    0.17576624E-05
    5   -0.19434721E+03   -0.29075409E-10    0.48661206E-06
    6   -0.19434721E+03   -0.19610980E-11    0.67888537E-07
    7   -0.19434721E+03   -0.56843419E-13    0.90194217E-08

Total Energy:                     -192.3805544067 H        -5234.9412 eV
Extrapolated to 0K:               -192.3805544067 H        -5234.9412 eV
Total Mermin free energy:         -192.3805544067 H        -5234.9412 eV
Force related energy:             -192.3805544067 H        -5234.9412 eV

Volume:                              0.996954E+04 au^3   0.147733E+04 A^3
Pressure:                            0.125037E-06 au     0.367872E+07 Pa
>> Charges saved for restart in charges.bin

total energy  -1.9238055E+02 H       energy change -5.0912689E-07 H
gradient norm  5.9729634E-04 H/a0    max. gradient  1.2413412E-04 H/a0
step length    1.6245004E-03 a0      max. step      3.8002770E-04 a0

--------------------------------------------------------------------------------

***  Geometry step: 174

 iSCC Total electronic   Diff electronic      SCC error    
    1   -0.19434721E+03    0.00000000E+00    0.15655713E-03
    2   -0.19434702E+03    0.19234712E-03    0.79593911E-04
    3   -0.19434702E+03   -0.32170476E-07    0.28021960E-04
    4   -0.19434702E+03   -0.69474879E-08    0.35290574E-05
    5   -0.19434702E+03   -0.10228973E-09    0.73398658E-06
    6   -0.19434702E+03   -0.76738615E-11    0.10274806E-06
    7   -0.19434702E+03   -0.56843419E-13    0.18622350E-07
    8   -0.19434702E+03    0.00000000E+00    0.56176903E-08

Total Energy:                     -192.3805557099 H        -5234.9413 eV
Extrapolated to 0K:               -192.3805557099 H        -5234.9413 eV
Total Mermin free energy:         -192.3805557099 H        -5234.9413 eV
Force related energy:             -192.3805557099 H        -5234.9413 eV

Volume:                              0.996814E+04 au^3   0.147713E+04 A^3
Pressure:                            0.102131E-06 au     0.300480E+07 Pa
>> Charges saved for restart in charges.bin

total energy  -1.9238056E+02 H       energy change -1.3031100E-06 H
gradient norm  6.7978027E-04 H/a0    max. gradient  1.8412544E-04 H/a0
step length    2.8080881E-02 a0      max. step      7.2841808E-03 a0

--------------------------------------------------------------------------------

***  Geometry step: 175

 iSCC Total electronic   Diff electronic      SCC error    
    1   -0.19434702E+03    0.00000000E+00    0.56250399E-04
    2   -0.19434712E+03   -0.98108013E-04    0.36515665E-04
    3   -0.19434712E+03   -0.42108184E-08    0.12465583E-04
    4   -0.19434712E+03   -0.98611963E-09    0.14053487E-05
    5   -0.19434712E+03   -0.11766588E-10    0.25633675E-06
    6   -0.19434712E+03   -0.56843419E-12    0.49738762E-07
    7   -0.19434712E+03    0.00000000E+00    0.68670074E-08

Total Energy:                     -192.3805561871 H        -5234.9413 eV
Extrapolated to 0K:               -192.3805561871 H        -5234.9413 eV
Total Mermin free energy:         -192.3805561871 H        -5234.9413 eV
Force related energy:             -192.3805561871 H        -5234.9413 eV

Volume:                              0.996804E+04 au^3   0.147711E+04 A^3
Pressure:                            0.145163E-06 au     0.427084E+07 Pa
>> Charges saved for restart in charges.bin

total energy  -1.9238056E+02 H       energy change -4.7726979E-07 H
gradient norm  5.8148963E-04 H/a0    max. gradient  1.0741312E-04 H/a0
step length    1.2258752E-03 a0      max. step      2.3287524E-04 a0

--------------------------------------------------------------------------------

***  Geometry step: 176

 iSCC Total electronic   Diff electronic      SCC error    
    1   -0.19434712E+03    0.00000000E+00    0.15316094E-03
    2   -0.19434729E+03   -0.16623177E-03    0.98310435E-04
    3   -0.19434729E+03   -0.28538864E-07    0.33343789E-04
    4   -0.19434729E+03   -0.63710104E-08    0.39990383E-05
    5   -0.19434729E+03   -0.81627149E-10    0.68414126E-06
    6   -0.19434729E+03   -0.52295945E-11    0.11115779E-06
    7   -0.19434729E+03   -0.11368684E-12    0.14759842E-07
    8   -0.19434729E+03   -0.56843419E-13    0.55397464E-08

Total Energy:                     -192.3805572401 H        -5234.9413 eV
Extrapolated to 0K:               -192.3805572401 H        -5234.9413 eV
Total Mermin free energy:         -192.3805572401 H        -5234.9413 eV
Force related energy:             -192.3805572401 H        -5234.9413 eV

Volume:                              0.996777E+04 au^3   0.147707E+04 A^3
Pressure:                            0.217618E-06 au     0.640253E+07 Pa
>> Charges saved for restart in charges.bin

total energy  -1.9238056E+02 H       energy change -1.0529340E-06 H
gradient norm  6.5001626E-04 H/a0    max. gradient  1.9267781E-04 H/a0
step length    5.2225284E-03 a0      max. step      9.2341286E-04 a0

--------------------------------------------------------------------------------

***  Geometry step: 177

 iSCC Total electronic   Diff electronic      SCC error    
    1   -0.19434729E+03    0.00000000E+00    0.92615858E-04
    2   -0.19434723E+03    0.56313562E-04    0.38901769E-04
    3   -0.19434723E+03   -0.62224501E-08    0.10956532E-04
    4   -0.19434723E+03   -0.12829560E-08    0.15834925E-05
    5   -0.19434723E+03   -0.16939339E-10    0.19810920E-06
    6   -0.19434723E+03   -0.12789769E-11    0.39451556E-07
    7   -0.19434723E+03    0.00000000E+00    0.43543520E-08

Total Energy:                     -192.3805577893 H        -5234.9413 eV
Extrapolated to 0K:               -192.3805577893 H        -5234.9413 eV
Total Mermin free energy:         -192.3805577893 H        -5234.9413 eV
Force related energy:             -192.3805577893 H        -5234.9413 eV

Volume:                              0.996759E+04 au^3   0.147705E+04 A^3
Pressure:                            0.209127E-06 au     0.615273E+07 Pa
>> Charges saved for restart in charges.bin

total energy  -1.9238056E+02 H       energy change -5.4922506E-07 H
gradient norm  6.9404562E-04 H/a0    max. gradient  2.0684757E-04 H/a0
step length    4.0384039E-03 a0      max. step      9.2372338E-04 a0

--------------------------------------------------------------------------------

***  Geometry step: 178

 iSCC Total electronic   Diff electronic      SCC error    
    1   -0.19434723E+03    0.00000000E+00    0.12112103E-03
    2   -0.19434712E+03    0.11177374E-03    0.49526096E-04
    3   -0.19434712E+03   -0.10662376E-07    0.15293629E-04
    4   -0.19434712E+03   -0.23343034E-08    0.17769161E-05
    5   -0.19434712E+03   -0.34475534E-10    0.24117560E-06
    6   -0.19434712E+03   -0.26432190E-11    0.54667215E-07
    7   -0.19434712E+03   -0.56843419E-13    0.77613271E-08

Total Energy:                     -192.3805585316 H        -5234.9413 eV
Extrapolated to 0K:               -192.3805585316 H        -5234.9413 eV
Total Mermin free energy:         -192.3805585316 H        -5234.9413 eV
Force related energy:             -192.3805585316 H        -5234.9413 eV

Volume:                              0.996741E+04 au^3   0.147702E+04 A^3
Pressure:                            0.182167E-06 au     0.535955E+07 Pa
>> Charges saved for restart in charges.bin

total energy  -1.9238056E+02 H       energy change -7.4230510E-07 H
gradient norm  6.2680638E-04 H/a0    max. gradient  1.3679258E-04 H/a0
step length    5.9427030E-03 a0      max. step      1.3708248E-03 a0

--------------------------------------------------------------------------------

***  Geometry step: 179

 iSCC Total electronic   Diff electronic      SCC error    
    1   -0.19434712E+03    0.00000000E+00    0.10334776E-03
    2   -0.19434703E+03    0.91494861E-04    0.63968751E-04
    3   -0.19434703E+03   -0.10366392E-07    0.19859440E-04
    4   -0.19434703E+03   -0.23981102E-08    0.19089322E-05
    5   -0.19434703E+03   -0.33026026E-10    0.23262986E-06
    6   -0.19434703E+03   -0.28421709E-11    0.58994921E-07
    7   -0.19434703E+03   -0.28421709E-13    0.77039912E-08

Total Energy:                     -192.3805591864 H        -5234.9414 eV
Extrapolated to 0K:               -192.3805591864 H        -5234.9414 eV
Total Mermin free energy:         -192.3805591864 H        -5234.9414 eV
Force related energy:             -192.3805591864 H        -5234.9414 eV

Volume:                              0.996729E+04 au^3   0.147700E+04 A^3
Pressure:                            0.161534E-06 au     0.475248E+07 Pa
>> Charges saved for restart in charges.bin

total energy  -1.9238056E+02 H       energy change -6.5483044E-07 H
gradient norm  5.2126529E-04 H/a0    max. gradient  9.2539163E-05 H/a0
step length    6.1708156E-03 a0      max. step      1.2575156E-03 a0

Geometry converged

--------------------------------------------------------------------------------
DFTB+ running times                          cpu [s]             wall clock [s]
--------------------------------------------------------------------------------
Pre-SCC initialisation                 +       6.78 (  0.2%)       3.29 (  0.8%)
SCC                                    +    2847.43 ( 93.2%)     385.16 ( 90.9%)
Post-SCC processing                    +     202.13 (  6.6%)      35.45 (  8.4%)
--------------------------------------------------------------------------------
Missing                                +       0.28 (  0.0%)       0.01 (  0.0%)
Total                                  =    3056.62 (100.0%)     423.91 (100.0%)
--------------------------------------------------------------------------------
