|===============================================================================
|
|  DFTB+ release 24.1
|
|  Copyright (C) 2006 - 2024  DFTB+ developers group
|
|===============================================================================
|
|  When publishing results obtained with DFTB+, please cite the following
|  reference:
|
|  * DFTB+, a software package for efficient approximate density functional
|    theory based atomistic simulations, J. Chem. Phys. 152, 124101 (2020).
|    [doi: 10.1063/1.5143190]
|
|  You should also cite additional publications crediting the parametrization
|  data you use. Please consult the documentation of the SK-files for the
|  references.
|
|===============================================================================

Reading input file 'dftb_in.hsd'
Parser version: 14

--------------------------------------------------------------------------------
Reading SK-files:
./SKFiles/Ge-Ge.skf
./SKFiles/Ge-Si.skf
./SKFiles/Ge-O.skf
./SKFiles/Si-Si.skf
./SKFiles/Si-O.skf
./SKFiles/O-O.skf
Done.


Processed input in HSD format written to 'dftb_pin.hsd'

Starting initialization...
--------------------------------------------------------------------------------
WARNING!
-> Dipole printed for extended system : value printed is not well defined
MPI processes:               1
OpenMP threads:              8
BLACS orbital grid size:     1 x 1
BLACS atom grid size:        1 x 1
Chosen random seed:          154520735
Current stacksize:           unlimited
Mode:                        Static calculation
Self consistent charges:     Yes
SCC-tolerance:                 0.100000E-07
Max. scc iterations:                    500
Shell resolved Hubbard:      No
Spin polarisation:           No
Nr. of up electrons:           192.000000
Nr. of down electrons:         192.000000
Periodic boundaries:         Yes
Electronic solver:           Relatively robust
Mixer:                       Broyden mixer
Mixing parameter:                  0.200000
Maximal SCC-cycles:                     500
Nr. of chrg. vec. in memory:            500
Electronic temperature:              0.100000E-07 H      0.272114E-06 eV
Initial charges:             Set automatically (system chrg:   0.000E+00)
Included shells:            Ge:  s, p, d
                            Si:  s, p, d
                             O:  s, p
K-points and weights:           1:  0.500000  0.500000  0.500000     1.000000

K-points in absolute space:     1:  0.025319  0.017606  0.037774

Extra options:
                             Mulliken analysis
Force type                   original

--------------------------------------------------------------------------------

***  Geometry step: 0

 iSCC Total electronic   Diff electronic      SCC error    
    1    0.00000000E+00    0.00000000E+00    0.14596851E+01
    2   -0.19479941E+03   -0.19479941E+03    0.99393150E+00
    3   -0.19516638E+03   -0.36697164E+00    0.59825099E-01
    4   -0.19548229E+03   -0.31591087E+00    0.28554127E-01
    5   -0.19548444E+03   -0.21441686E-02    0.79970767E-02
    6   -0.19548459E+03   -0.15502280E-03    0.16719296E-02
    7   -0.19548460E+03   -0.49562873E-05    0.42087818E-03
    8   -0.19548460E+03   -0.12472291E-05    0.49158340E-04
    9   -0.19548460E+03   -0.70342423E-07    0.28487812E-04
   10   -0.19548460E+03   -0.71281647E-10    0.20516970E-05
   11   -0.19548460E+03   -0.18638957E-09    0.32492210E-06
   12   -0.19548460E+03   -0.39221959E-11    0.88945635E-07
   13   -0.19548460E+03   -0.28421709E-13    0.26535931E-07
   14   -0.19548460E+03   -0.56843419E-13    0.17147066E-08

Total Energy:                     -191.8767496156 H        -5221.2320 eV
Extrapolated to 0K:               -191.8767496156 H        -5221.2320 eV
Total Mermin free energy:         -191.8767496156 H        -5221.2320 eV
Force related energy:             -191.8767496156 H        -5221.2320 eV

Volume:                              0.913789E+04 au^3   0.135410E+04 A^3
Pressure:                            0.714066E-03 au     0.210085E+11 Pa
>> Charges saved for restart in charges.bin

total energy  -1.9187675E+02 H       energy change -1.9187675E+02 H
gradient norm  7.1099634E-01 H/a0    max. gradient  2.9000500E-01 H/a0
step length    0.0000000E+00 a0      max. step      0.0000000E+00 a0

--------------------------------------------------------------------------------

***  Geometry step: 1

 iSCC Total electronic   Diff electronic      SCC error    
    1   -0.19548460E+03    0.00000000E+00    0.71634963E-01
    2   -0.19518341E+03    0.30119018E+00    0.35895704E-01
    3   -0.19518832E+03   -0.49144098E-02    0.85399697E-02
    4   -0.19518949E+03   -0.11661777E-02    0.92705281E-03
    5   -0.19518950E+03   -0.12187864E-04    0.31940275E-03
    6   -0.19518950E+03   -0.54975985E-06    0.86135298E-04
    7   -0.19518950E+03   -0.46347822E-07    0.18753498E-04
    8   -0.19518950E+03   -0.29881164E-08    0.16336861E-05
    9   -0.19518950E+03   -0.10103918E-09    0.49924675E-06
   10   -0.19518950E+03   -0.49453774E-11    0.18593243E-06
   11   -0.19518950E+03   -0.17053026E-12    0.37739984E-07
   12   -0.19518950E+03   -0.11368684E-12    0.44324429E-08

Total Energy:                     -192.0330098013 H        -5225.4841 eV
Extrapolated to 0K:               -192.0330098013 H        -5225.4841 eV
Total Mermin free energy:         -192.0330098013 H        -5225.4841 eV
Force related energy:             -192.0330098013 H        -5225.4841 eV

Volume:                              0.937638E+04 au^3   0.138944E+04 A^3
Pressure:                            0.501689E-03 au     0.147602E+11 Pa
>> Charges saved for restart in charges.bin

total energy  -1.9203301E+02 H       energy change -1.5626019E-01 H
gradient norm  5.2814383E-01 H/a0    max. gradient  1.6719625E-01 H/a0
step length    5.1927710E-01 a0      max. step      2.1180553E-01 a0

--------------------------------------------------------------------------------

***  Geometry step: 2

 iSCC Total electronic   Diff electronic      SCC error    
    1   -0.19518950E+03    0.00000000E+00    0.66303776E-01
    2   -0.19506640E+03    0.12310003E+00    0.39060866E-01
    3   -0.19506870E+03   -0.22998018E-02    0.96930162E-02
    4   -0.19506928E+03   -0.58210298E-03    0.72210964E-03
    5   -0.19506929E+03   -0.84519971E-05    0.17098539E-03
    6   -0.19506929E+03   -0.39702081E-06    0.62468651E-04
    7   -0.19506929E+03   -0.10881848E-07    0.88599015E-05
    8   -0.19506929E+03   -0.11968382E-08    0.89232893E-06
    9   -0.19506929E+03   -0.91347374E-10    0.28918263E-06
   10   -0.19506929E+03   -0.11652901E-11    0.12739757E-06
   11   -0.19506929E+03   -0.56843419E-13    0.17183122E-07
   12   -0.19506929E+03    0.56843419E-13    0.17386306E-08

Total Energy:                     -192.1759368253 H        -5229.3733 eV
Extrapolated to 0K:               -192.1759368253 H        -5229.3733 eV
Total Mermin free energy:         -192.1759368253 H        -5229.3733 eV
Force related energy:             -192.1759368253 H        -5229.3733 eV

Volume:                              0.940084E+04 au^3   0.139306E+04 A^3
Pressure:                            0.401331E-03 au     0.118076E+11 Pa
>> Charges saved for restart in charges.bin

total energy  -1.9217594E+02 H       energy change -1.4292702E-01 H
gradient norm  2.7616095E-01 H/a0    max. gradient  5.2775711E-02 H/a0
step length    4.4540710E-01 a0      max. step      1.4490364E-01 a0

--------------------------------------------------------------------------------

***  Geometry step: 3

 iSCC Total electronic   Diff electronic      SCC error    
    1   -0.19506929E+03    0.00000000E+00    0.72163384E-01
    2   -0.19484559E+03    0.22370789E+00    0.42712423E-01
    3   -0.19484738E+03   -0.17974097E-02    0.73950969E-02
    4   -0.19484789E+03   -0.50933240E-03    0.98500423E-03
    5   -0.19484790E+03   -0.10290572E-04    0.17389521E-03
    6   -0.19484790E+03   -0.37822321E-06    0.84746208E-04
    7   -0.19484790E+03   -0.10484968E-07    0.11307129E-04
    8   -0.19484790E+03   -0.17534489E-08    0.17914483E-05
    9   -0.19484790E+03   -0.13577051E-09    0.55869534E-06
   10   -0.19484790E+03   -0.25011104E-11    0.21069170E-06
   11   -0.19484790E+03    0.28421709E-13    0.27834131E-07
   12   -0.19484790E+03   -0.11368684E-12    0.35036694E-08

Total Energy:                     -192.2634223190 H        -5231.7539 eV
Extrapolated to 0K:               -192.2634223190 H        -5231.7539 eV
Total Mermin free energy:         -192.2634223190 H        -5231.7539 eV
Force related energy:             -192.2634223190 H        -5231.7539 eV

Volume:                              0.949175E+04 au^3   0.140653E+04 A^3
Pressure:                            0.277282E-03 au     0.815791E+10 Pa
>> Charges saved for restart in charges.bin

total energy  -1.9226342E+02 H       energy change -8.7485494E-02 H
gradient norm  2.0836598E-01 H/a0    max. gradient  1.0892858E-01 H/a0
step length    5.3019045E-01 a0      max. step      1.4120947E-01 a0

--------------------------------------------------------------------------------

***  Geometry step: 4

 iSCC Total electronic   Diff electronic      SCC error    
    1   -0.19484790E+03    0.00000000E+00    0.56499502E-01
    2   -0.19461274E+03    0.23516331E+00    0.33166511E-01
    3   -0.19461389E+03   -0.11552397E-02    0.61578805E-02
    4   -0.19461419E+03   -0.29321898E-03    0.53296107E-03
    5   -0.19461419E+03   -0.68188176E-05    0.16705781E-03
    6   -0.19461419E+03   -0.25430887E-06    0.86607366E-04
    7   -0.19461419E+03   -0.67053065E-08    0.71169953E-05
    8   -0.19461419E+03   -0.11102657E-08    0.18543329E-05
    9   -0.19461419E+03   -0.78642870E-10    0.51239967E-06
   10   -0.19461419E+03   -0.88107299E-12    0.10334942E-06
   11   -0.19461419E+03   -0.17053026E-12    0.21279127E-07
   12   -0.19461419E+03   -0.56843419E-13    0.33499536E-08

Total Energy:                     -192.3064545992 H        -5232.9249 eV
Extrapolated to 0K:               -192.3064545992 H        -5232.9249 eV
Total Mermin free energy:         -192.3064545992 H        -5232.9249 eV
Force related energy:             -192.3064545992 H        -5232.9249 eV

Volume:                              0.959948E+04 au^3   0.142250E+04 A^3
Pressure:                            0.165337E-03 au     0.486439E+10 Pa
>> Charges saved for restart in charges.bin

total energy  -1.9230645E+02 H       energy change -4.3032280E-02 H
gradient norm  2.0741983E-01 H/a0    max. gradient  1.2058056E-01 H/a0
step length    4.9236446E-01 a0      max. step      1.1097563E-01 a0

--------------------------------------------------------------------------------

***  Geometry step: 5

 iSCC Total electronic   Diff electronic      SCC error    
    1   -0.19461419E+03    0.00000000E+00    0.26704735E-01
    2   -0.19447118E+03    0.14301269E+00    0.13235158E-01
    3   -0.19447162E+03   -0.44094754E-03    0.19414877E-02
    4   -0.19447174E+03   -0.11235816E-03    0.27992838E-03
    5   -0.19447174E+03   -0.12034905E-05    0.84946243E-04
    6   -0.19447174E+03   -0.78422659E-07    0.43540838E-04
    7   -0.19447174E+03   -0.28720422E-08    0.73943003E-05
    8   -0.19447174E+03   -0.18133051E-09    0.80482046E-06
    9   -0.19447174E+03   -0.21117330E-10    0.25841259E-06
   10   -0.19447174E+03   -0.39790393E-12    0.42940175E-07
   11   -0.19447174E+03    0.00000000E+00    0.94000461E-08

Total Energy:                     -192.3292383184 H        -5233.5449 eV
Extrapolated to 0K:               -192.3292383184 H        -5233.5449 eV
Total Mermin free energy:         -192.3292383184 H        -5233.5449 eV
Force related energy:             -192.3292383184 H        -5233.5449 eV

Volume:                              0.966733E+04 au^3   0.143255E+04 A^3
Pressure:                            0.101309E-03 au     0.298061E+10 Pa
>> Charges saved for restart in charges.bin

total energy  -1.9232924E+02 H       energy change -2.2783719E-02 H
gradient norm  9.6525793E-02 H/a0    max. gradient  1.5823187E-02 H/a0
step length    3.1019086E-01 a0      max. step      5.9954140E-02 a0

--------------------------------------------------------------------------------

***  Geometry step: 6

 iSCC Total electronic   Diff electronic      SCC error    
    1   -0.19447174E+03    0.00000000E+00    0.25659496E-01
    2   -0.19438952E+03    0.82216814E-01    0.85821949E-02
    3   -0.19438978E+03   -0.25633098E-03    0.19145221E-02
    4   -0.19438983E+03   -0.51972773E-04    0.52516081E-03
    5   -0.19438983E+03   -0.10429003E-05    0.57046771E-04
    6   -0.19438983E+03   -0.12036492E-06    0.14980509E-04
    7   -0.19438983E+03   -0.32417802E-08    0.48289495E-05
    8   -0.19438983E+03   -0.18252422E-09    0.77329568E-06
    9   -0.19438983E+03   -0.70201622E-11    0.10277199E-06
   10   -0.19438983E+03   -0.65369932E-12    0.28249086E-07
   11   -0.19438983E+03    0.00000000E+00    0.10676617E-07
   12   -0.19438983E+03    0.28421709E-13    0.14829213E-08

Total Energy:                     -192.3416276858 H        -5233.8820 eV
Extrapolated to 0K:               -192.3416276858 H        -5233.8820 eV
Total Mermin free energy:         -192.3416276858 H        -5233.8820 eV
Force related energy:             -192.3416276858 H        -5233.8820 eV

Volume:                              0.969845E+04 au^3   0.143716E+04 A^3
Pressure:                            0.624992E-04 au     0.183879E+10 Pa
>> Charges saved for restart in charges.bin

total energy  -1.9234163E+02 H       energy change -1.2389367E-02 H
gradient norm  7.7545169E-02 H/a0    max. gradient  2.6268389E-02 H/a0
step length    2.6939141E-01 a0      max. step      5.6630140E-02 a0

--------------------------------------------------------------------------------

***  Geometry step: 7

 iSCC Total electronic   Diff electronic      SCC error    
    1   -0.19438983E+03    0.00000000E+00    0.14465078E-01
    2   -0.19434213E+03    0.47698468E-01    0.86843888E-02
    3   -0.19434231E+03   -0.17423361E-03    0.23620707E-02
    4   -0.19434234E+03   -0.38265618E-04    0.31104108E-03
    5   -0.19434234E+03   -0.73128859E-06    0.81265034E-04
    6   -0.19434234E+03   -0.61274818E-07    0.20319998E-04
    7   -0.19434234E+03   -0.16570709E-08    0.42980088E-05
    8   -0.19434234E+03   -0.68325789E-10    0.55857243E-06
    9   -0.19434234E+03   -0.15205615E-10    0.16802210E-06
   10   -0.19434234E+03   -0.25579538E-12    0.17339916E-07
   11   -0.19434234E+03    0.00000000E+00    0.16679973E-08

Total Energy:                     -192.3498027222 H        -5234.1044 eV
Extrapolated to 0K:               -192.3498027222 H        -5234.1044 eV
Total Mermin free energy:         -192.3498027222 H        -5234.1044 eV
Force related energy:             -192.3498027222 H        -5234.1044 eV

Volume:                              0.972768E+04 au^3   0.144149E+04 A^3
Pressure:                            0.398960E-04 au     0.117378E+10 Pa
>> Charges saved for restart in charges.bin

total energy  -1.9234980E+02 H       energy change -8.1750364E-03 H
gradient norm  6.1997138E-02 H/a0    max. gradient  2.5963483E-02 H/a0
step length    2.2126756E-01 a0      max. step      4.4276743E-02 a0

--------------------------------------------------------------------------------

***  Geometry step: 8

 iSCC Total electronic   Diff electronic      SCC error    
    1   -0.19434234E+03    0.00000000E+00    0.18343015E-01
    2   -0.19434776E+03   -0.54185208E-02    0.11153991E-01
    3   -0.19434789E+03   -0.13095685E-03    0.21544671E-02
    4   -0.19434793E+03   -0.34563353E-04    0.26700172E-03
    5   -0.19434793E+03   -0.11196568E-05    0.67512459E-04
    6   -0.19434793E+03   -0.90857441E-07    0.14590853E-04
    7   -0.19434793E+03   -0.16085835E-08    0.38223259E-05
    8   -0.19434793E+03   -0.91660013E-10    0.52890141E-06
    9   -0.19434793E+03   -0.14864554E-10    0.14830310E-06
   10   -0.19434793E+03   -0.39790393E-12    0.19086313E-07
   11   -0.19434793E+03    0.00000000E+00    0.43776920E-08

Total Energy:                     -192.3542697885 H        -5234.2260 eV
Extrapolated to 0K:               -192.3542697885 H        -5234.2260 eV
Total Mermin free energy:         -192.3542697885 H        -5234.2260 eV
Force related energy:             -192.3542697885 H        -5234.2260 eV

Volume:                              0.972313E+04 au^3   0.144082E+04 A^3
Pressure:                            0.408512E-04 au     0.120188E+10 Pa
>> Charges saved for restart in charges.bin

total energy  -1.9235427E+02 H       energy change -4.4670663E-03 H
gradient norm  5.1104437E-02 H/a0    max. gradient  1.2942315E-02 H/a0
step length    1.8507630E-01 a0      max. step      3.2419324E-02 a0

--------------------------------------------------------------------------------

***  Geometry step: 9

 iSCC Total electronic   Diff electronic      SCC error    
    1   -0.19434793E+03    0.00000000E+00    0.11273466E-01
    2   -0.19435034E+03   -0.24149976E-02    0.68371151E-02
    3   -0.19435041E+03   -0.69160857E-04    0.12032883E-02
    4   -0.19435043E+03   -0.19134039E-04    0.15861171E-03
    5   -0.19435043E+03   -0.58507132E-06    0.44596658E-04
    6   -0.19435043E+03   -0.16895882E-07    0.12861578E-04
    7   -0.19435043E+03   -0.44576609E-09    0.25196878E-05
    8   -0.19435043E+03   -0.49936943E-10    0.31326163E-06
    9   -0.19435043E+03   -0.41779913E-11    0.79868831E-07
   10   -0.19435043E+03   -0.14210855E-12    0.10571492E-07
   11   -0.19435043E+03   -0.56843419E-13    0.24105109E-08

Total Energy:                     -192.3571617524 H        -5234.3047 eV
Extrapolated to 0K:               -192.3571617524 H        -5234.3047 eV
Total Mermin free energy:         -192.3571617524 H        -5234.3047 eV
Force related energy:             -192.3571617524 H        -5234.3047 eV

Volume:                              0.972815E+04 au^3   0.144156E+04 A^3
Pressure:                            0.389315E-04 au     0.114540E+10 Pa
>> Charges saved for restart in charges.bin

total energy  -1.9235716E+02 H       energy change -2.8919639E-03 H
gradient norm  4.6420346E-02 H/a0    max. gradient  9.9908883E-03 H/a0
step length    1.4432026E-01 a0      max. step      2.3200960E-02 a0

--------------------------------------------------------------------------------

***  Geometry step: 10

 iSCC Total electronic   Diff electronic      SCC error    
    1   -0.19435043E+03    0.00000000E+00    0.10544920E-01
    2   -0.19436069E+03   -0.10259767E-01    0.44037245E-02
    3   -0.19436076E+03   -0.62669272E-04    0.13606262E-02
    4   -0.19436077E+03   -0.14198698E-04    0.14247976E-03
    5   -0.19436077E+03   -0.54179176E-06    0.40399029E-04
    6   -0.19436077E+03   -0.20759131E-07    0.13704619E-04
    7   -0.19436077E+03   -0.64699179E-09    0.23631665E-05
    8   -0.19436077E+03   -0.46242121E-10    0.36400452E-06
    9   -0.19436077E+03   -0.28990144E-11    0.96294961E-07
   10   -0.19436077E+03   -0.17053026E-12    0.13870324E-07
   11   -0.19436077E+03    0.28421709E-13    0.23992985E-08

Total Energy:                     -192.3600357960 H        -5234.3829 eV
Extrapolated to 0K:               -192.3600357960 H        -5234.3829 eV
Total Mermin free energy:         -192.3600357960 H        -5234.3829 eV
Force related energy:             -192.3600357960 H        -5234.3829 eV

Volume:                              0.972705E+04 au^3   0.144140E+04 A^3
Pressure:                            0.395948E-04 au     0.116492E+10 Pa
>> Charges saved for restart in charges.bin

total energy  -1.9236004E+02 H       energy change -2.8740436E-03 H
gradient norm  3.8608164E-02 H/a0    max. gradient  1.1828428E-02 H/a0
step length    1.5325192E-01 a0      max. step      2.8412633E-02 a0

--------------------------------------------------------------------------------

***  Geometry step: 11

 iSCC Total electronic   Diff electronic      SCC error    
    1   -0.19436077E+03    0.00000000E+00    0.96897632E-02
    2   -0.19436519E+03   -0.44213286E-02    0.49218940E-02
    3   -0.19436528E+03   -0.84631622E-04    0.15421634E-02
    4   -0.19436530E+03   -0.18338645E-04    0.16094430E-03
    5   -0.19436530E+03   -0.44665546E-06    0.20419747E-04
    6   -0.19436530E+03   -0.23262857E-07    0.57087427E-05
    7   -0.19436530E+03   -0.50144422E-09    0.19059506E-05
    8   -0.19436530E+03   -0.45190518E-10    0.35598292E-06
    9   -0.19436530E+03   -0.22168933E-11    0.40706215E-07
   10   -0.19436530E+03   -0.56843419E-13    0.97238364E-08

Total Energy:                     -192.3626304452 H        -5234.4535 eV
Extrapolated to 0K:               -192.3626304452 H        -5234.4535 eV
Total Mermin free energy:         -192.3626304452 H        -5234.4535 eV
Force related energy:             -192.3626304452 H        -5234.4535 eV

Volume:                              0.973493E+04 au^3   0.144257E+04 A^3
Pressure:                            0.381653E-04 au     0.112286E+10 Pa
>> Charges saved for restart in charges.bin

total energy  -1.9236263E+02 H       energy change -2.5946492E-03 H
gradient norm  3.5892233E-02 H/a0    max. gradient  1.1325536E-02 H/a0
step length    1.5468991E-01 a0      max. step      2.9374281E-02 a0

--------------------------------------------------------------------------------

***  Geometry step: 12

 iSCC Total electronic   Diff electronic      SCC error    
    1   -0.19436530E+03    0.00000000E+00    0.56790939E-02
    2   -0.19435818E+03    0.71110988E-02    0.35121649E-02
    3   -0.19435823E+03   -0.42068434E-04    0.10662471E-02
    4   -0.19435824E+03   -0.93412901E-05    0.12468404E-03
    5   -0.19435824E+03   -0.26287779E-06    0.28880674E-04
    6   -0.19435824E+03   -0.13372699E-07    0.11961256E-04
    7   -0.19435824E+03   -0.25335112E-09    0.25405081E-05
    8   -0.19435824E+03   -0.16967761E-10    0.20263534E-06
    9   -0.19435824E+03   -0.16200374E-11    0.54796915E-07
   10   -0.19435824E+03   -0.56843419E-13    0.98288586E-08

Total Energy:                     -192.3644805022 H        -5234.5038 eV
Extrapolated to 0K:               -192.3644805022 H        -5234.5038 eV
Total Mermin free energy:         -192.3644805022 H        -5234.5038 eV
Force related energy:             -192.3644805022 H        -5234.5038 eV

Volume:                              0.975122E+04 au^3   0.144498E+04 A^3
Pressure:                            0.333637E-04 au     0.981595E+09 Pa
>> Charges saved for restart in charges.bin

total energy  -1.9236448E+02 H       energy change -1.8500571E-03 H
gradient norm  3.5323572E-02 H/a0    max. gradient  1.3489697E-02 H/a0
step length    1.4517529E-01 a0      max. step      2.6306536E-02 a0

--------------------------------------------------------------------------------

***  Geometry step: 13

 iSCC Total electronic   Diff electronic      SCC error    
    1   -0.19435824E+03    0.00000000E+00    0.56756667E-02
    2   -0.19434323E+03    0.15006342E-01    0.35379371E-02
    3   -0.19434325E+03   -0.16093059E-04    0.10222498E-02
    4   -0.19434325E+03   -0.34435248E-05    0.94102098E-04
    5   -0.19434325E+03   -0.15112747E-06    0.15231406E-04
    6   -0.19434325E+03   -0.82056602E-08    0.65649952E-05
    7   -0.19434325E+03   -0.10496137E-09    0.12918965E-05
    8   -0.19434325E+03   -0.76454398E-11    0.12853272E-06
    9   -0.19434325E+03   -0.36948222E-12    0.35479824E-07
   10   -0.19434325E+03   -0.28421709E-13    0.63322667E-08

Total Energy:                     -192.3660562224 H        -5234.5467 eV
Extrapolated to 0K:               -192.3660562224 H        -5234.5467 eV
Total Mermin free energy:         -192.3660562224 H        -5234.5467 eV
Force related energy:             -192.3660562224 H        -5234.5467 eV

Volume:                              0.977556E+04 au^3   0.144859E+04 A^3
Pressure:                            0.249148E-04 au     0.733017E+09 Pa
>> Charges saved for restart in charges.bin

total energy  -1.9236606E+02 H       energy change -1.5757202E-03 H
gradient norm  2.9234955E-02 H/a0    max. gradient  8.5556328E-03 H/a0
step length    1.3943645E-01 a0      max. step      2.5263214E-02 a0

--------------------------------------------------------------------------------

***  Geometry step: 14

 iSCC Total electronic   Diff electronic      SCC error    
    1   -0.19434325E+03    0.00000000E+00    0.69279531E-02
    2   -0.19433137E+03    0.11880034E-01    0.42463277E-02
    3   -0.19433140E+03   -0.26955727E-04    0.12950545E-02
    4   -0.19433140E+03   -0.56223431E-05    0.18592150E-03
    5   -0.19433140E+03   -0.15741708E-06    0.19249041E-04
    6   -0.19433140E+03   -0.12485486E-07    0.71175092E-05
    7   -0.19433140E+03   -0.17547563E-09    0.11428148E-05
    8   -0.19433140E+03   -0.18417268E-10    0.27044409E-06
    9   -0.19433140E+03   -0.62527761E-12    0.34443064E-07
   10   -0.19433140E+03    0.00000000E+00    0.81207485E-08

Total Energy:                     -192.3674892853 H        -5234.5857 eV
Extrapolated to 0K:               -192.3674892853 H        -5234.5857 eV
Total Mermin free energy:         -192.3674892853 H        -5234.5857 eV
Force related energy:             -192.3674892853 H        -5234.5857 eV

Volume:                              0.980268E+04 au^3   0.145261E+04 A^3
Pressure:                            0.177279E-04 au     0.521574E+09 Pa
>> Charges saved for restart in charges.bin

total energy  -1.9236749E+02 H       energy change -1.4330629E-03 H
gradient norm  2.4383427E-02 H/a0    max. gradient  5.2771505E-03 H/a0
step length    1.4497767E-01 a0      max. step      2.5202051E-02 a0

--------------------------------------------------------------------------------

***  Geometry step: 15

 iSCC Total electronic   Diff electronic      SCC error    
    1   -0.19433140E+03    0.00000000E+00    0.56820338E-02
    2   -0.19432819E+03    0.32138474E-02    0.29807861E-02
    3   -0.19432821E+03   -0.20181752E-04    0.80445402E-03
    4   -0.19432821E+03   -0.46002851E-05    0.13734401E-03
    5   -0.19432821E+03   -0.94352117E-07    0.27656997E-04
    6   -0.19432821E+03   -0.62727565E-08    0.72984725E-05
    7   -0.19432821E+03   -0.17064394E-09    0.16541638E-05
    8   -0.19432821E+03   -0.87538865E-11    0.27570661E-06
    9   -0.19432821E+03   -0.11937118E-11    0.76357448E-07
   10   -0.19432821E+03   -0.28421709E-13    0.78142826E-08

Total Energy:                     -192.3684480940 H        -5234.6118 eV
Extrapolated to 0K:               -192.3684480940 H        -5234.6118 eV
Total Mermin free energy:         -192.3684480940 H        -5234.6118 eV
Force related energy:             -192.3684480940 H        -5234.6118 eV

Volume:                              0.982232E+04 au^3   0.145552E+04 A^3
Pressure:                            0.149890E-04 au     0.440991E+09 Pa
>> Charges saved for restart in charges.bin

total energy  -1.9236845E+02 H       energy change -9.5880868E-04 H
gradient norm  2.3651372E-02 H/a0    max. gradient  5.2740579E-03 H/a0
step length    1.0880743E-01 a0      max. step      1.9053605E-02 a0

--------------------------------------------------------------------------------

***  Geometry step: 16

 iSCC Total electronic   Diff electronic      SCC error    
    1   -0.19432821E+03    0.00000000E+00    0.64955107E-02
    2   -0.19433061E+03   -0.23937104E-02    0.36712282E-02
    3   -0.19433062E+03   -0.13990859E-04    0.67925000E-03
    4   -0.19433062E+03   -0.31549652E-05    0.86552797E-04
    5   -0.19433062E+03   -0.86378122E-07    0.22662493E-04
    6   -0.19433062E+03   -0.57540603E-08    0.50187443E-05
    7   -0.19433062E+03   -0.12033752E-09    0.10643081E-05
    8   -0.19433062E+03   -0.58264504E-11    0.20578575E-06
    9   -0.19433062E+03   -0.11652901E-11    0.50826561E-07
   10   -0.19433062E+03   -0.85265128E-13    0.68808355E-08

Total Energy:                     -192.3692419150 H        -5234.6334 eV
Extrapolated to 0K:               -192.3692419150 H        -5234.6334 eV
Total Mermin free energy:         -192.3692419150 H        -5234.6334 eV
Force related energy:             -192.3692419150 H        -5234.6334 eV

Volume:                              0.983701E+04 au^3   0.145770E+04 A^3
Pressure:                            0.147758E-04 au     0.434718E+09 Pa
>> Charges saved for restart in charges.bin

total energy  -1.9236924E+02 H       energy change -7.9382101E-04 H
gradient norm  2.2621191E-02 H/a0    max. gradient  4.9691902E-03 H/a0
step length    9.9567157E-02 a0      max. step      1.7586957E-02 a0

--------------------------------------------------------------------------------

***  Geometry step: 17

 iSCC Total electronic   Diff electronic      SCC error    
    1   -0.19433062E+03    0.00000000E+00    0.56282700E-02
    2   -0.19433381E+03   -0.31842566E-02    0.32459599E-02
    3   -0.19433382E+03   -0.92306920E-05    0.66278423E-03
    4   -0.19433382E+03   -0.18987080E-05    0.79341887E-04
    5   -0.19433382E+03   -0.79972978E-07    0.25505679E-04
    6   -0.19433382E+03   -0.49149946E-08    0.36183801E-05
    7   -0.19433382E+03   -0.10851409E-09    0.12144879E-05
    8   -0.19433382E+03   -0.42632564E-11    0.19108173E-06
    9   -0.19433382E+03   -0.73896445E-12    0.53484325E-07
   10   -0.19433382E+03   -0.11368684E-12    0.54536216E-08

Total Energy:                     -192.3700230572 H        -5234.6547 eV
Extrapolated to 0K:               -192.3700230572 H        -5234.6547 eV
Total Mermin free energy:         -192.3700230572 H        -5234.6547 eV
Force related energy:             -192.3700230572 H        -5234.6547 eV

Volume:                              0.985170E+04 au^3   0.145987E+04 A^3
Pressure:                            0.151848E-04 au     0.446752E+09 Pa
>> Charges saved for restart in charges.bin

total energy  -1.9237002E+02 H       energy change -7.8114225E-04 H
gradient norm  2.1786309E-02 H/a0    max. gradient  3.6838370E-03 H/a0
step length    1.0486258E-01 a0      max. step      1.7790836E-02 a0

--------------------------------------------------------------------------------

***  Geometry step: 18

 iSCC Total electronic   Diff electronic      SCC error    
    1   -0.19433382E+03    0.00000000E+00    0.53124762E-02
    2   -0.19433519E+03   -0.13692866E-02    0.18920862E-02
    3   -0.19433520E+03   -0.11807918E-04    0.74323691E-03
    4   -0.19433520E+03   -0.18690196E-05    0.99815527E-04
    5   -0.19433520E+03   -0.84623252E-07    0.27492538E-04
    6   -0.19433520E+03   -0.69721864E-08    0.54560309E-05
    7   -0.19433520E+03   -0.10280132E-09    0.10069088E-05
    8   -0.19433520E+03   -0.34390268E-11    0.22284725E-06
    9   -0.19433520E+03   -0.73896445E-12    0.63389384E-07
   10   -0.19433520E+03   -0.28421709E-13    0.52199582E-08

Total Energy:                     -192.3709223539 H        -5234.6791 eV
Extrapolated to 0K:               -192.3709223539 H        -5234.6791 eV
Total Mermin free energy:         -192.3709223539 H        -5234.6791 eV
Force related energy:             -192.3709223539 H        -5234.6791 eV

Volume:                              0.986988E+04 au^3   0.146257E+04 A^3
Pressure:                            0.147037E-04 au     0.432596E+09 Pa
>> Charges saved for restart in charges.bin

total energy  -1.9237092E+02 H       energy change -8.9929666E-04 H
gradient norm  2.2037512E-02 H/a0    max. gradient  4.0355191E-03 H/a0
step length    1.3000045E-01 a0      max. step      2.2871488E-02 a0

--------------------------------------------------------------------------------

***  Geometry step: 19

 iSCC Total electronic   Diff electronic      SCC error    
    1   -0.19433520E+03    0.00000000E+00    0.54183400E-02
    2   -0.19433056E+03    0.46406915E-02    0.20915788E-02
    3   -0.19433058E+03   -0.20860776E-04    0.80344128E-03
    4   -0.19433059E+03   -0.36416417E-05    0.11912578E-03
    5   -0.19433059E+03   -0.10047407E-06    0.13092470E-04
    6   -0.19433059E+03   -0.10776461E-07    0.44411589E-05
    7   -0.19433059E+03   -0.16098056E-09    0.14400791E-05
    8   -0.19433059E+03   -0.47748472E-11    0.21312865E-06
    9   -0.19433059E+03   -0.90949470E-12    0.67508340E-07
   10   -0.19433059E+03    0.00000000E+00    0.68592194E-08

Total Energy:                     -192.3718215670 H        -5234.7036 eV
Extrapolated to 0K:               -192.3718215670 H        -5234.7036 eV
Total Mermin free energy:         -192.3718215670 H        -5234.7036 eV
Force related energy:             -192.3718215670 H        -5234.7036 eV

Volume:                              0.989518E+04 au^3   0.146632E+04 A^3
Pressure:                            0.110706E-04 au     0.325707E+09 Pa
>> Charges saved for restart in charges.bin

total energy  -1.9237182E+02 H       energy change -8.9921314E-04 H
gradient norm  2.2976530E-02 H/a0    max. gradient  6.8565714E-03 H/a0
step length    1.5697934E-01 a0      max. step      2.7796158E-02 a0

--------------------------------------------------------------------------------

***  Geometry step: 20

 iSCC Total electronic   Diff electronic      SCC error    
    1   -0.19433059E+03    0.00000000E+00    0.30854601E-02
    2   -0.19432646E+03    0.41290022E-02    0.17285838E-02
    3   -0.19432647E+03   -0.10390163E-04    0.49254915E-03
    4   -0.19432647E+03   -0.22561299E-05    0.88947123E-04
    5   -0.19432647E+03   -0.68471081E-07    0.22647143E-04
    6   -0.19432647E+03   -0.55696034E-08    0.49655686E-05
    7   -0.19432647E+03   -0.11957013E-09    0.11023079E-05
    8   -0.19432647E+03   -0.35242920E-11    0.18637740E-06
    9   -0.19432647E+03   -0.76738615E-12    0.39028003E-07
   10   -0.19432647E+03   -0.56843419E-13    0.54183955E-08

Total Energy:                     -192.3724519883 H        -5234.7208 eV
Extrapolated to 0K:               -192.3724519883 H        -5234.7208 eV
Total Mermin free energy:         -192.3724519883 H        -5234.7208 eV
Force related energy:             -192.3724519883 H        -5234.7208 eV

Volume:                              0.991368E+04 au^3   0.146906E+04 A^3
Pressure:                            0.817779E-05 au     0.240599E+09 Pa
>> Charges saved for restart in charges.bin

total energy  -1.9237245E+02 H       energy change -6.3042127E-04 H
gradient norm  2.0185052E-02 H/a0    max. gradient  6.4037538E-03 H/a0
step length    1.1612921E-01 a0      max. step      2.0253872E-02 a0

--------------------------------------------------------------------------------

***  Geometry step: 21

 iSCC Total electronic   Diff electronic      SCC error    
    1   -0.19432647E+03    0.00000000E+00    0.34150417E-02
    2   -0.19432107E+03    0.53983914E-02    0.19074372E-02
    3   -0.19432108E+03   -0.65434963E-05    0.42007540E-03
    4   -0.19432108E+03   -0.16568021E-05    0.60250318E-04
    5   -0.19432108E+03   -0.46590259E-07    0.18162874E-04
    6   -0.19432108E+03   -0.19235813E-08    0.36512569E-05
    7   -0.19432108E+03   -0.57838179E-10    0.73095471E-06
    8   -0.19432108E+03   -0.28990144E-11    0.16658496E-06
    9   -0.19432108E+03   -0.42632564E-12    0.27238217E-07
   10   -0.19432108E+03   -0.28421709E-13    0.45314863E-08

Total Energy:                     -192.3729085213 H        -5234.7332 eV
Extrapolated to 0K:               -192.3729085213 H        -5234.7332 eV
Total Mermin free energy:         -192.3729085213 H        -5234.7332 eV
Force related energy:             -192.3729085213 H        -5234.7332 eV

Volume:                              0.993032E+04 au^3   0.147152E+04 A^3
Pressure:                            0.487064E-05 au     0.143299E+09 Pa
>> Charges saved for restart in charges.bin

total energy  -1.9237291E+02 H       energy change -4.5653305E-04 H
gradient norm  1.4395251E-02 H/a0    max. gradient  3.1916134E-03 H/a0
step length    9.1052007E-02 a0      max. step      1.6658719E-02 a0

--------------------------------------------------------------------------------

***  Geometry step: 22

 iSCC Total electronic   Diff electronic      SCC error    
    1   -0.19432108E+03    0.00000000E+00    0.20052902E-02
    2   -0.19432016E+03    0.91609996E-03    0.91737878E-03
    3   -0.19432017E+03   -0.33082123E-05    0.27755798E-03
    4   -0.19432017E+03   -0.79179040E-06    0.29377973E-04
    5   -0.19432017E+03   -0.14106774E-07    0.88045895E-05
    6   -0.19432017E+03   -0.72367357E-09    0.19232504E-05
    7   -0.19432017E+03   -0.13699264E-10    0.39459297E-06
    8   -0.19432017E+03   -0.42632564E-12    0.80626930E-07
    9   -0.19432017E+03   -0.19895197E-12    0.20648199E-07
   10   -0.19432017E+03    0.17053026E-12    0.34215413E-08

Total Energy:                     -192.3731802861 H        -5234.7406 eV
Extrapolated to 0K:               -192.3731802861 H        -5234.7406 eV
Total Mermin free energy:         -192.3731802861 H        -5234.7406 eV
Force related energy:             -192.3731802861 H        -5234.7406 eV

Volume:                              0.993853E+04 au^3   0.147274E+04 A^3
Pressure:                            0.333878E-05 au     0.982304E+08 Pa
>> Charges saved for restart in charges.bin

total energy  -1.9237318E+02 H       energy change -2.7176475E-04 H
gradient norm  1.1900041E-02 H/a0    max. gradient  2.6240319E-03 H/a0
step length    5.3159664E-02 a0      max. step      1.0486541E-02 a0

--------------------------------------------------------------------------------

***  Geometry step: 23

 iSCC Total electronic   Diff electronic      SCC error    
    1   -0.19432017E+03    0.00000000E+00    0.20005746E-02
    2   -0.19432257E+03   -0.24013986E-02    0.11355318E-02
    3   -0.19432257E+03   -0.50885359E-05    0.35609878E-03
    4   -0.19432258E+03   -0.11818193E-05    0.40715479E-04
    5   -0.19432258E+03   -0.16160328E-07    0.57951832E-05
    6   -0.19432258E+03   -0.12693704E-08    0.19622414E-05
    7   -0.19432258E+03   -0.24556357E-10    0.60264112E-06
    8   -0.19432258E+03   -0.56843419E-12    0.12198442E-06
    9   -0.19432258E+03    0.28421709E-13    0.33762887E-07
   10   -0.19432258E+03    0.00000000E+00    0.68461685E-08

Total Energy:                     -192.3734283901 H        -5234.7473 eV
Extrapolated to 0K:               -192.3734283901 H        -5234.7473 eV
Total Mermin free energy:         -192.3734283901 H        -5234.7473 eV
Force related energy:             -192.3734283901 H        -5234.7473 eV

Volume:                              0.994564E+04 au^3   0.147379E+04 A^3
Pressure:                            0.311313E-05 au     0.915915E+08 Pa
>> Charges saved for restart in charges.bin

total energy  -1.9237343E+02 H       energy change -2.4810400E-04 H
gradient norm  1.2678380E-02 H/a0    max. gradient  2.8996883E-03 H/a0
step length    5.4021465E-02 a0      max. step      1.2573685E-02 a0

--------------------------------------------------------------------------------

***  Geometry step: 24

 iSCC Total electronic   Diff electronic      SCC error    
    1   -0.19432258E+03    0.00000000E+00    0.21614398E-02
    2   -0.19432700E+03   -0.44281482E-02    0.93301916E-03
    3   -0.19432701E+03   -0.33215199E-05    0.25306996E-03
    4   -0.19432701E+03   -0.75012929E-06    0.28642652E-04
    5   -0.19432701E+03   -0.16954630E-07    0.11859741E-04
    6   -0.19432701E+03   -0.94365760E-09    0.20902128E-05
    7   -0.19432701E+03   -0.22197355E-10    0.40233771E-06
    8   -0.19432701E+03   -0.62527761E-12    0.11560612E-06
    9   -0.19432701E+03   -0.14210855E-12    0.25416573E-07
   10   -0.19432701E+03    0.00000000E+00    0.36518579E-08

Total Energy:                     -192.3736293201 H        -5234.7528 eV
Extrapolated to 0K:               -192.3736293201 H        -5234.7528 eV
Total Mermin free energy:         -192.3736293201 H        -5234.7528 eV
Force related energy:             -192.3736293201 H        -5234.7528 eV

Volume:                              0.995095E+04 au^3   0.147458E+04 A^3
Pressure:                            0.396670E-05 au     0.116704E+09 Pa
>> Charges saved for restart in charges.bin

total energy  -1.9237363E+02 H       energy change -2.0093002E-04 H
gradient norm  1.2594632E-02 H/a0    max. gradient  2.8810017E-03 H/a0
step length    4.9980937E-02 a0      max. step      1.1195115E-02 a0

--------------------------------------------------------------------------------

***  Geometry step: 25

 iSCC Total electronic   Diff electronic      SCC error    
    1   -0.19432701E+03    0.00000000E+00    0.27470927E-02
    2   -0.19433175E+03   -0.47443216E-02    0.14526762E-02
    3   -0.19433176E+03   -0.49234623E-05    0.43946101E-03
    4   -0.19433176E+03   -0.11230313E-05    0.57979923E-04
    5   -0.19433176E+03   -0.32032801E-07    0.14700122E-04
    6   -0.19433176E+03   -0.22217250E-08    0.24955899E-05
    7   -0.19433176E+03   -0.63693051E-10    0.56945075E-06
    8   -0.19433176E+03   -0.12221335E-11    0.16698533E-06
    9   -0.19433176E+03   -0.19895197E-12    0.28349421E-07
   10   -0.19433176E+03    0.28421709E-13    0.63635559E-08

Total Energy:                     -192.3738494593 H        -5234.7588 eV
Extrapolated to 0K:               -192.3738494593 H        -5234.7588 eV
Total Mermin free energy:         -192.3738494593 H        -5234.7588 eV
Force related energy:             -192.3738494593 H        -5234.7588 eV

Volume:                              0.995861E+04 au^3   0.147571E+04 A^3
Pressure:                            0.488869E-05 au     0.143830E+09 Pa
>> Charges saved for restart in charges.bin

total energy  -1.9237385E+02 H       energy change -2.2013914E-04 H
gradient norm  1.1031144E-02 H/a0    max. gradient  2.9249975E-03 H/a0
step length    6.5600685E-02 a0      max. step      1.3285655E-02 a0

--------------------------------------------------------------------------------

***  Geometry step: 26

 iSCC Total electronic   Diff electronic      SCC error    
    1   -0.19433176E+03    0.00000000E+00    0.20070734E-02
    2   -0.19433433E+03   -0.25676668E-02    0.12491624E-02
    3   -0.19433433E+03   -0.33205931E-05    0.40378861E-03
    4   -0.19433433E+03   -0.74599612E-06    0.47951694E-04
    5   -0.19433433E+03   -0.21310200E-07    0.80913383E-05
    6   -0.19433433E+03   -0.18937953E-08    0.13362652E-05
    7   -0.19433433E+03   -0.45105253E-10    0.38199160E-06
    8   -0.19433433E+03   -0.68212103E-12    0.99460706E-07
    9   -0.19433433E+03   -0.85265128E-13    0.18348824E-07
   10   -0.19433433E+03   -0.56843419E-13    0.41321497E-08

Total Energy:                     -192.3740341905 H        -5234.7638 eV
Extrapolated to 0K:               -192.3740341905 H        -5234.7638 eV
Total Mermin free energy:         -192.3740341905 H        -5234.7638 eV
Force related energy:             -192.3740341905 H        -5234.7638 eV

Volume:                              0.996614E+04 au^3   0.147683E+04 A^3
Pressure:                            0.517405E-05 au     0.152226E+09 Pa
>> Charges saved for restart in charges.bin

total energy  -1.9237403E+02 H       energy change -1.8473123E-04 H
gradient norm  1.0692448E-02 H/a0    max. gradient  2.0674716E-03 H/a0
step length    6.0576614E-02 a0      max. step      1.0660231E-02 a0

--------------------------------------------------------------------------------

***  Geometry step: 27

 iSCC Total electronic   Diff electronic      SCC error    
    1   -0.19433433E+03    0.00000000E+00    0.21842778E-02
    2   -0.19433441E+03   -0.76629812E-04    0.13624942E-02
    3   -0.19433441E+03   -0.36121164E-05    0.41866719E-03
    4   -0.19433441E+03   -0.80696390E-06    0.42080184E-04
    5   -0.19433441E+03   -0.23656611E-07    0.53281661E-05
    6   -0.19433441E+03   -0.21469475E-08    0.99206091E-06
    7   -0.19433441E+03   -0.48913762E-10    0.39598581E-06
    8   -0.19433441E+03   -0.99475983E-12    0.10813191E-06
    9   -0.19433441E+03   -0.11368684E-12    0.15170459E-07
   10   -0.19433441E+03    0.28421709E-13    0.32889851E-08

Total Energy:                     -192.3742527733 H        -5234.7698 eV
Extrapolated to 0K:               -192.3742527733 H        -5234.7698 eV
Total Mermin free energy:         -192.3742527733 H        -5234.7698 eV
Force related energy:             -192.3742527733 H        -5234.7698 eV

Volume:                              0.997649E+04 au^3   0.147836E+04 A^3
Pressure:                            0.433242E-05 au     0.127464E+09 Pa
>> Charges saved for restart in charges.bin

total energy  -1.9237425E+02 H       energy change -2.1858285E-04 H
gradient norm  1.2407540E-02 H/a0    max. gradient  4.3078201E-03 H/a0
step length    7.5871085E-02 a0      max. step      1.2755442E-02 a0

--------------------------------------------------------------------------------

***  Geometry step: 28

 iSCC Total electronic   Diff electronic      SCC error    
    1   -0.19433441E+03    0.00000000E+00    0.21492999E-02
    2   -0.19433276E+03    0.16526683E-02    0.12154025E-02
    3   -0.19433276E+03   -0.35027257E-05    0.36705060E-03
    4   -0.19433276E+03   -0.76951758E-06    0.46551928E-04
    5   -0.19433276E+03   -0.21315145E-07    0.59500535E-05
    6   -0.19433276E+03   -0.20085338E-08    0.15944705E-05
    7   -0.19433276E+03   -0.22623681E-10    0.41667921E-06
    8   -0.19433276E+03   -0.54001248E-12    0.89680395E-07
    9   -0.19433276E+03   -0.56843419E-13    0.25910996E-07
   10   -0.19433276E+03   -0.85265128E-13    0.45593551E-08

Total Energy:                     -192.3744900223 H        -5234.7762 eV
Extrapolated to 0K:               -192.3744900223 H        -5234.7762 eV
Total Mermin free energy:         -192.3744900223 H        -5234.7762 eV
Force related energy:             -192.3744900223 H        -5234.7762 eV

Volume:                              0.998794E+04 au^3   0.148006E+04 A^3
Pressure:                            0.285133E-05 au     0.838889E+08 Pa
>> Charges saved for restart in charges.bin

total energy  -1.9237449E+02 H       energy change -2.3724895E-04 H
gradient norm  1.3398676E-02 H/a0    max. gradient  4.7060360E-03 H/a0
step length    8.6225338E-02 a0      max. step      1.6055489E-02 a0

--------------------------------------------------------------------------------

***  Geometry step: 29

 iSCC Total electronic   Diff electronic      SCC error    
    1   -0.19433276E+03    0.00000000E+00    0.17620061E-02
    2   -0.19433006E+03    0.27003263E-02    0.83626942E-03
    3   -0.19433007E+03   -0.31555462E-05    0.25693795E-03
    4   -0.19433007E+03   -0.65823011E-06    0.41798740E-04
    5   -0.19433007E+03   -0.15952082E-07    0.66009326E-05
    6   -0.19433007E+03   -0.14662476E-08    0.16300094E-05
    7   -0.19433007E+03   -0.12391865E-10    0.43292011E-06
    8   -0.19433007E+03   -0.34106051E-12    0.92219537E-07
    9   -0.19433007E+03   -0.11368684E-12    0.25020592E-07
   10   -0.19433007E+03    0.56843419E-13    0.37749341E-08

Total Energy:                     -192.3747173401 H        -5234.7824 eV
Extrapolated to 0K:               -192.3747173401 H        -5234.7824 eV
Total Mermin free energy:         -192.3747173401 H        -5234.7824 eV
Force related energy:             -192.3747173401 H        -5234.7824 eV

Volume:                              0.999889E+04 au^3   0.148168E+04 A^3
Pressure:                            0.902391E-06 au     0.265492E+08 Pa
>> Charges saved for restart in charges.bin

total energy  -1.9237472E+02 H       energy change -2.2731781E-04 H
gradient norm  1.1579541E-02 H/a0    max. gradient  2.1982259E-03 H/a0
step length    8.9101744E-02 a0      max. step      1.7174497E-02 a0

--------------------------------------------------------------------------------

***  Geometry step: 30

 iSCC Total electronic   Diff electronic      SCC error    
    1   -0.19433007E+03    0.00000000E+00    0.13077280E-02
    2   -0.19432880E+03    0.12661180E-02    0.65611536E-03
    3   -0.19432880E+03   -0.26342303E-05    0.25104739E-03
    4   -0.19432880E+03   -0.58085317E-06    0.38081261E-04
    5   -0.19432880E+03   -0.13674423E-07    0.48915723E-05
    6   -0.19432880E+03   -0.12718715E-08    0.14391122E-05
    7   -0.19432880E+03   -0.25636382E-10    0.47734311E-06
    8   -0.19432880E+03   -0.45474735E-12    0.78434780E-07
    9   -0.19432880E+03    0.00000000E+00    0.19545889E-07
   10   -0.19432880E+03    0.28421709E-13    0.32470533E-08

Total Energy:                     -192.3749020312 H        -5234.7874 eV
Extrapolated to 0K:               -192.3749020312 H        -5234.7874 eV
Total Mermin free energy:         -192.3749020312 H        -5234.7874 eV
Force related energy:             -192.3749020312 H        -5234.7874 eV

Volume:                              0.100052E+05 au^3   0.148262E+04 A^3
Pressure:                           -0.149258E-06 au    -0.439131E+07 Pa
>> Charges saved for restart in charges.bin

total energy  -1.9237490E+02 H       energy change -1.8469113E-04 H
gradient norm  9.9629416E-03 H/a0    max. gradient  1.7937142E-03 H/a0
step length    7.1988709E-02 a0      max. step      1.3840338E-02 a0

--------------------------------------------------------------------------------

***  Geometry step: 31

 iSCC Total electronic   Diff electronic      SCC error    
    1   -0.19432880E+03    0.00000000E+00    0.16949111E-02
    2   -0.19432911E+03   -0.30209882E-03    0.98862280E-03
    3   -0.19432911E+03   -0.33446481E-05    0.30805879E-03
    4   -0.19432911E+03   -0.78332332E-06    0.44708138E-04
    5   -0.19432911E+03   -0.18322794E-07    0.10253874E-04
    6   -0.19432911E+03   -0.15484432E-08    0.23711233E-05
    7   -0.19432911E+03   -0.43712589E-10    0.55990813E-06
    8   -0.19432911E+03   -0.79580786E-12    0.11469142E-06
    9   -0.19432911E+03    0.28421709E-13    0.21099858E-07
   10   -0.19432911E+03    0.00000000E+00    0.41827075E-08

Total Energy:                     -192.3750811918 H        -5234.7923 eV
Extrapolated to 0K:               -192.3750811918 H        -5234.7923 eV
Total Mermin free energy:         -192.3750811918 H        -5234.7923 eV
Force related energy:             -192.3750811918 H        -5234.7923 eV

Volume:                              0.100091E+05 au^3   0.148319E+04 A^3
Pressure:                           -0.380458E-06 au    -0.111935E+08 Pa
>> Charges saved for restart in charges.bin

total energy  -1.9237508E+02 H       energy change -1.7916060E-04 H
gradient norm  1.0383619E-02 H/a0    max. gradient  2.7514745E-03 H/a0
step length    6.9666338E-02 a0      max. step      1.2863753E-02 a0

--------------------------------------------------------------------------------

***  Geometry step: 32

 iSCC Total electronic   Diff electronic      SCC error    
    1   -0.19432911E+03    0.00000000E+00    0.20642727E-02
    2   -0.19433079E+03   -0.16805450E-02    0.12132817E-02
    3   -0.19433079E+03   -0.36132372E-05    0.33790252E-03
    4   -0.19433079E+03   -0.84703694E-06    0.43390200E-04
    5   -0.19433079E+03   -0.17472246E-07    0.12579849E-04
    6   -0.19433079E+03   -0.14948682E-08    0.21620966E-05
    7   -0.19433079E+03   -0.30070169E-10    0.39656561E-06
    8   -0.19433079E+03   -0.56843419E-12    0.94130414E-07
    9   -0.19433079E+03   -0.56843419E-13    0.24017405E-07
   10   -0.19433079E+03    0.00000000E+00    0.31470835E-08

Total Energy:                     -192.3752588007 H        -5234.7971 eV
Extrapolated to 0K:               -192.3752588007 H        -5234.7971 eV
Total Mermin free energy:         -192.3752588007 H        -5234.7971 eV
Force related energy:             -192.3752588007 H        -5234.7971 eV

Volume:                              0.100109E+05 au^3   0.148346E+04 A^3
Pressure:                            0.114466E-06 au     0.336770E+07 Pa
>> Charges saved for restart in charges.bin

total energy  -1.9237526E+02 H       energy change -1.7760889E-04 H
gradient norm  1.1286482E-02 H/a0    max. gradient  3.8763154E-03 H/a0
step length    7.1390557E-02 a0      max. step      1.3737063E-02 a0

--------------------------------------------------------------------------------

***  Geometry step: 33

 iSCC Total electronic   Diff electronic      SCC error    
    1   -0.19433079E+03    0.00000000E+00    0.21713423E-02
    2   -0.19433310E+03   -0.23101463E-02    0.10055260E-02
    3   -0.19433311E+03   -0.38366206E-05    0.28145086E-03
    4   -0.19433311E+03   -0.86156416E-06    0.35927992E-04
    5   -0.19433311E+03   -0.17970450E-07    0.10183076E-04
    6   -0.19433311E+03   -0.12119301E-08    0.20328356E-05
    7   -0.19433311E+03   -0.14722445E-10    0.27519315E-06
    8   -0.19433311E+03   -0.36948222E-12    0.76195231E-07
    9   -0.19433311E+03   -0.85265128E-13    0.15825388E-07
   10   -0.19433311E+03    0.56843419E-13    0.20408226E-08

Total Energy:                     -192.3754350333 H        -5234.8019 eV
Extrapolated to 0K:               -192.3754350333 H        -5234.8019 eV
Total Mermin free energy:         -192.3754350333 H        -5234.8019 eV
Force related energy:             -192.3754350333 H        -5234.8019 eV

Volume:                              0.100120E+05 au^3   0.148362E+04 A^3
Pressure:                            0.884656E-06 au     0.260275E+08 Pa
>> Charges saved for restart in charges.bin

total energy  -1.9237544E+02 H       energy change -1.7623256E-04 H
gradient norm  1.1053856E-02 H/a0    max. gradient  3.4955100E-03 H/a0
step length    8.1055206E-02 a0      max. step      1.5815201E-02 a0

--------------------------------------------------------------------------------

***  Geometry step: 34

 iSCC Total electronic   Diff electronic      SCC error    
    1   -0.19433311E+03    0.00000000E+00    0.15393190E-02
    2   -0.19433551E+03   -0.24017839E-02    0.79119546E-03
    3   -0.19433551E+03   -0.21708107E-05    0.24077265E-03
    4   -0.19433551E+03   -0.46485468E-06    0.36094213E-04
    5   -0.19433551E+03   -0.13859420E-07    0.31477984E-05
    6   -0.19433551E+03   -0.69246653E-09    0.78045166E-06
    7   -0.19433551E+03   -0.83559826E-11    0.29004814E-06
    8   -0.19433551E+03   -0.22737368E-12    0.49067185E-07
    9   -0.19433551E+03   -0.56843419E-13    0.62262200E-08

Total Energy:                     -192.3755931552 H        -5234.8062 eV
Extrapolated to 0K:               -192.3755931552 H        -5234.8062 eV
Total Mermin free energy:         -192.3755931552 H        -5234.8062 eV
Force related energy:             -192.3755931552 H        -5234.8062 eV

Volume:                              0.100119E+05 au^3   0.148361E+04 A^3
Pressure:                            0.179566E-05 au     0.528302E+08 Pa
>> Charges saved for restart in charges.bin

total energy  -1.9237559E+02 H       energy change -1.5812195E-04 H
gradient norm  9.7877205E-03 H/a0    max. gradient  1.9647444E-03 H/a0
step length    7.2716344E-02 a0      max. step      1.4355488E-02 a0

--------------------------------------------------------------------------------

***  Geometry step: 35

 iSCC Total electronic   Diff electronic      SCC error    
    1   -0.19433551E+03    0.00000000E+00    0.19505208E-02
    2   -0.19433750E+03   -0.19866753E-02    0.10893148E-02
    3   -0.19433750E+03   -0.36693353E-05    0.30135909E-03
    4   -0.19433751E+03   -0.86786301E-06    0.49827165E-04
    5   -0.19433751E+03   -0.23978885E-07    0.76883918E-05
    6   -0.19433751E+03   -0.14751436E-08    0.24461162E-05
    7   -0.19433751E+03   -0.37374548E-10    0.71083825E-06
    8   -0.19433751E+03   -0.93791641E-12    0.11304661E-06
    9   -0.19433751E+03    0.28421709E-13    0.26587874E-07
   10   -0.19433751E+03   -0.85265128E-13    0.52888445E-08

Total Energy:                     -192.3757828365 H        -5234.8114 eV
Extrapolated to 0K:               -192.3757828365 H        -5234.8114 eV
Total Mermin free energy:         -192.3757828365 H        -5234.8114 eV
Force related energy:             -192.3757828365 H        -5234.8114 eV

Volume:                              0.100122E+05 au^3   0.148366E+04 A^3
Pressure:                            0.249099E-05 au     0.732875E+08 Pa
>> Charges saved for restart in charges.bin

total energy  -1.9237578E+02 H       energy change -1.8968123E-04 H
gradient norm  1.0098492E-02 H/a0    max. gradient  1.8682467E-03 H/a0
step length    9.4689987E-02 a0      max. step      1.9045280E-02 a0

--------------------------------------------------------------------------------

***  Geometry step: 36

 iSCC Total electronic   Diff electronic      SCC error    
    1   -0.19433751E+03    0.00000000E+00    0.21013253E-02
    2   -0.19433884E+03   -0.13385051E-02    0.12192150E-02
    3   -0.19433885E+03   -0.35037639E-05    0.26799589E-03
    4   -0.19433885E+03   -0.86106488E-06    0.39647145E-04
    5   -0.19433885E+03   -0.21215214E-07    0.11023490E-04
    6   -0.19433885E+03   -0.15759554E-08    0.29616671E-05
    7   -0.19433885E+03   -0.47322146E-10    0.75754664E-06
    8   -0.19433885E+03   -0.93791641E-12    0.10727433E-06
    9   -0.19433885E+03   -0.28421709E-13    0.28781750E-07
   10   -0.19433885E+03   -0.11368684E-12    0.42567279E-08

Total Energy:                     -192.3759460220 H        -5234.8158 eV
Extrapolated to 0K:               -192.3759460220 H        -5234.8158 eV
Total Mermin free energy:         -192.3759460220 H        -5234.8158 eV
Force related energy:             -192.3759460220 H        -5234.8158 eV

Volume:                              0.100122E+05 au^3   0.148365E+04 A^3
Pressure:                            0.267661E-05 au     0.787486E+08 Pa
>> Charges saved for restart in charges.bin

total energy  -1.9237595E+02 H       energy change -1.6318557E-04 H
gradient norm  1.0682089E-02 H/a0    max. gradient  3.3140572E-03 H/a0
step length    8.4081810E-02 a0      max. step      1.6891768E-02 a0

--------------------------------------------------------------------------------

***  Geometry step: 37

 iSCC Total electronic   Diff electronic      SCC error    
    1   -0.19433885E+03    0.00000000E+00    0.22615952E-02
    2   -0.19434004E+03   -0.11868985E-02    0.11820433E-02
    3   -0.19434004E+03   -0.34377188E-05    0.29565435E-03
    4   -0.19434004E+03   -0.74174483E-06    0.41597695E-04
    5   -0.19434004E+03   -0.15379328E-07    0.10803821E-04
    6   -0.19434004E+03   -0.15045316E-08    0.24911926E-05
    7   -0.19434004E+03   -0.30837555E-10    0.52134385E-06
    8   -0.19434004E+03   -0.56843419E-12    0.96260899E-07
    9   -0.19434004E+03   -0.85265128E-13    0.27212563E-07
   10   -0.19434004E+03   -0.28421709E-13    0.34898471E-08

Total Energy:                     -192.3760842088 H        -5234.8196 eV
Extrapolated to 0K:               -192.3760842088 H        -5234.8196 eV
Total Mermin free energy:         -192.3760842088 H        -5234.8196 eV
Force related energy:             -192.3760842088 H        -5234.8196 eV

Volume:                              0.100123E+05 au^3   0.148368E+04 A^3
Pressure:                            0.283898E-05 au     0.835257E+08 Pa
>> Charges saved for restart in charges.bin

total energy  -1.9237608E+02 H       energy change -1.3818675E-04 H
gradient norm  9.2125791E-03 H/a0    max. gradient  3.1958654E-03 H/a0
step length    7.5307107E-02 a0      max. step      1.5129607E-02 a0

--------------------------------------------------------------------------------

***  Geometry step: 38

 iSCC Total electronic   Diff electronic      SCC error    
    1   -0.19434004E+03    0.00000000E+00    0.14649974E-02
    2   -0.19434091E+03   -0.87538092E-03    0.61674414E-03
    3   -0.19434092E+03   -0.19740356E-05    0.15701704E-03
    4   -0.19434092E+03   -0.36709770E-06    0.41285968E-04
    5   -0.19434092E+03   -0.50480651E-08    0.44220002E-05
    6   -0.19434092E+03   -0.46088644E-09    0.13135551E-05
    7   -0.19434092E+03   -0.89528385E-11    0.30201915E-06
    8   -0.19434092E+03   -0.19895197E-12    0.48119198E-07
    9   -0.19434092E+03   -0.56843419E-13    0.10042894E-07
   10   -0.19434092E+03    0.00000000E+00    0.16028792E-08

Total Energy:                     -192.3761766474 H        -5234.8221 eV
Extrapolated to 0K:               -192.3761766474 H        -5234.8221 eV
Total Mermin free energy:         -192.3761766474 H        -5234.8221 eV
Force related energy:             -192.3761766474 H        -5234.8221 eV

Volume:                              0.100135E+05 au^3   0.148385E+04 A^3
Pressure:                            0.278643E-05 au     0.819796E+08 Pa
>> Charges saved for restart in charges.bin

total energy  -1.9237618E+02 H       energy change -9.2438580E-05 H
gradient norm  6.8558757E-03 H/a0    max. gradient  1.5450452E-03 H/a0
step length    4.9270901E-02 a0      max. step      1.0193208E-02 a0

--------------------------------------------------------------------------------

***  Geometry step: 39

 iSCC Total electronic   Diff electronic      SCC error    
    1   -0.19434092E+03    0.00000000E+00    0.12773884E-02
    2   -0.19434187E+03   -0.95268078E-03    0.58092409E-03
    3   -0.19434187E+03   -0.17324712E-05    0.13683017E-03
    4   -0.19434187E+03   -0.33031120E-06    0.33139996E-04
    5   -0.19434187E+03   -0.64623293E-08    0.44053104E-05
    6   -0.19434187E+03   -0.43823434E-09    0.79036146E-06
    7   -0.19434187E+03   -0.17251978E-10    0.25680904E-06
    8   -0.19434187E+03   -0.25579538E-12    0.56348232E-07
    9   -0.19434187E+03   -0.14210855E-12    0.72082962E-08

Total Energy:                     -192.3762534292 H        -5234.8242 eV
Extrapolated to 0K:               -192.3762534292 H        -5234.8242 eV
Total Mermin free energy:         -192.3762534292 H        -5234.8242 eV
Force related energy:             -192.3762534292 H        -5234.8242 eV

Volume:                              0.100157E+05 au^3   0.148418E+04 A^3
Pressure:                            0.277001E-05 au     0.814964E+08 Pa
>> Charges saved for restart in charges.bin

total energy  -1.9237625E+02 H       energy change -7.6781826E-05 H
gradient norm  6.6672230E-03 H/a0    max. gradient  1.1201921E-03 H/a0
step length    4.2642554E-02 a0      max. step      9.0151923E-03 a0

--------------------------------------------------------------------------------

***  Geometry step: 40

 iSCC Total electronic   Diff electronic      SCC error    
    1   -0.19434187E+03    0.00000000E+00    0.10435234E-02
    2   -0.19434300E+03   -0.11250982E-02    0.52745257E-03
    3   -0.19434300E+03   -0.12964467E-05    0.18519701E-03
    4   -0.19434300E+03   -0.27659638E-06    0.31219342E-04
    5   -0.19434300E+03   -0.70387216E-08    0.54626297E-05
    6   -0.19434300E+03   -0.54095040E-09    0.12995460E-05
    7   -0.19434300E+03   -0.17593038E-10    0.26278738E-06
    8   -0.19434300E+03   -0.25579538E-12    0.70039841E-07
    9   -0.19434300E+03   -0.11368684E-12    0.13521094E-07
   10   -0.19434300E+03   -0.28421709E-13    0.22580680E-08

Total Energy:                     -192.3763277464 H        -5234.8262 eV
Extrapolated to 0K:               -192.3763277464 H        -5234.8262 eV
Total Mermin free energy:         -192.3763277464 H        -5234.8262 eV
Force related energy:             -192.3763277464 H        -5234.8262 eV

Volume:                              0.100184E+05 au^3   0.148458E+04 A^3
Pressure:                            0.275140E-05 au     0.809490E+08 Pa
>> Charges saved for restart in charges.bin

total energy  -1.9237633E+02 H       energy change -7.4317254E-05 H
gradient norm  8.0322388E-03 H/a0    max. gradient  2.0508940E-03 H/a0
step length    4.1784193E-02 a0      max. step      9.0689677E-03 a0

--------------------------------------------------------------------------------

***  Geometry step: 41

 iSCC Total electronic   Diff electronic      SCC error    
    1   -0.19434300E+03    0.00000000E+00    0.14632772E-02
    2   -0.19434451E+03   -0.15099430E-02    0.81142488E-03
    3   -0.19434451E+03   -0.16621103E-05    0.23288835E-03
    4   -0.19434451E+03   -0.37036773E-06    0.36537064E-04
    5   -0.19434451E+03   -0.10878097E-07    0.82931972E-05
    6   -0.19434451E+03   -0.77784534E-09    0.15474982E-05
    7   -0.19434451E+03   -0.20264679E-10    0.28594654E-06
    8   -0.19434451E+03   -0.45474735E-12    0.91510123E-07
    9   -0.19434451E+03   -0.56843419E-13    0.19528067E-07
   10   -0.19434451E+03    0.56843419E-13    0.24575604E-08

Total Energy:                     -192.3764260928 H        -5234.8289 eV
Extrapolated to 0K:               -192.3764260928 H        -5234.8289 eV
Total Mermin free energy:         -192.3764260928 H        -5234.8289 eV
Force related energy:             -192.3764260928 H        -5234.8289 eV

Volume:                              0.100229E+05 au^3   0.148525E+04 A^3
Pressure:                            0.284113E-05 au     0.835888E+08 Pa
>> Charges saved for restart in charges.bin

total energy  -1.9237643E+02 H       energy change -9.8346358E-05 H
gradient norm  8.9152420E-03 H/a0    max. gradient  2.9255814E-03 H/a0
step length    6.4258302E-02 a0      max. step      1.4061617E-02 a0

--------------------------------------------------------------------------------

***  Geometry step: 42

 iSCC Total electronic   Diff electronic      SCC error    
    1   -0.19434451E+03    0.00000000E+00    0.11329736E-02
    2   -0.19434512E+03   -0.61284760E-03    0.65335534E-03
    3   -0.19434512E+03   -0.11532232E-05    0.17473642E-03
    4   -0.19434512E+03   -0.26611878E-06    0.26681993E-04
    5   -0.19434512E+03   -0.63543837E-08    0.62660526E-05
    6   -0.19434512E+03   -0.37329073E-09    0.10875242E-05
    7   -0.19434512E+03   -0.68212103E-11    0.18276666E-06
    8   -0.19434512E+03   -0.11368684E-12    0.69683973E-07
    9   -0.19434512E+03   -0.14210855E-12    0.16208634E-07
   10   -0.19434512E+03   -0.28421709E-13    0.19016611E-08

Total Energy:                     -192.3765191114 H        -5234.8314 eV
Extrapolated to 0K:               -192.3765191114 H        -5234.8314 eV
Total Mermin free energy:         -192.3765191114 H        -5234.8314 eV
Force related energy:             -192.3765191114 H        -5234.8314 eV

Volume:                              0.100286E+05 au^3   0.148608E+04 A^3
Pressure:                            0.259240E-05 au     0.762711E+08 Pa
>> Charges saved for restart in charges.bin

total energy  -1.9237652E+02 H       energy change -9.3018641E-05 H
gradient norm  7.6224411E-03 H/a0    max. gradient  2.1681676E-03 H/a0
step length    6.8372498E-02 a0      max. step      1.4719668E-02 a0

--------------------------------------------------------------------------------

***  Geometry step: 43

 iSCC Total electronic   Diff electronic      SCC error    
    1   -0.19434512E+03    0.00000000E+00    0.12523455E-02
    2   -0.19434516E+03   -0.33476221E-04    0.50928429E-03
    3   -0.19434516E+03   -0.15495116E-05    0.12113004E-03
    4   -0.19434516E+03   -0.36388039E-06    0.15491357E-04
    5   -0.19434516E+03   -0.35245478E-08    0.20663261E-05
    6   -0.19434516E+03   -0.26935254E-09    0.42835079E-06
    7   -0.19434516E+03   -0.59401373E-11    0.18680600E-06
    8   -0.19434516E+03    0.28421709E-13    0.39957951E-07
    9   -0.19434516E+03   -0.56843419E-13    0.69233281E-08

Total Energy:                     -192.3766043274 H        -5234.8337 eV
Extrapolated to 0K:               -192.3766043274 H        -5234.8337 eV
Total Mermin free energy:         -192.3766043274 H        -5234.8337 eV
Force related energy:             -192.3766043274 H        -5234.8337 eV

Volume:                              0.100344E+05 au^3   0.148694E+04 A^3
Pressure:                            0.224856E-05 au     0.661549E+08 Pa
>> Charges saved for restart in charges.bin

total energy  -1.9237660E+02 H       energy change -8.5216003E-05 H
gradient norm  6.3919896E-03 H/a0    max. gradient  2.3802145E-03 H/a0
step length    6.9024374E-02 a0      max. step      1.4890530E-02 a0

--------------------------------------------------------------------------------

***  Geometry step: 44

 iSCC Total electronic   Diff electronic      SCC error    
    1   -0.19434516E+03    0.00000000E+00    0.11822997E-02
    2   -0.19434469E+03    0.46548170E-03    0.46207573E-03
    3   -0.19434470E+03   -0.10964255E-05    0.14264198E-03
    4   -0.19434470E+03   -0.26684617E-06    0.13680159E-04
    5   -0.19434470E+03   -0.29076830E-08    0.28361886E-05
    6   -0.19434470E+03   -0.19639401E-09    0.74523929E-06
    7   -0.19434470E+03   -0.31263880E-11    0.19240951E-06
    8   -0.19434470E+03   -0.19895197E-12    0.23394881E-07
    9   -0.19434470E+03    0.56843419E-13    0.73490347E-08

Total Energy:                     -192.3766763160 H        -5234.8357 eV
Extrapolated to 0K:               -192.3766763160 H        -5234.8357 eV
Total Mermin free energy:         -192.3766763160 H        -5234.8357 eV
Force related energy:             -192.3766763160 H        -5234.8357 eV

Volume:                              0.100394E+05 au^3   0.148768E+04 A^3
Pressure:                            0.171200E-05 au     0.503689E+08 Pa
>> Charges saved for restart in charges.bin

total energy  -1.9237668E+02 H       energy change -7.1988529E-05 H
gradient norm  7.1251081E-03 H/a0    max. gradient  2.2535219E-03 H/a0
step length    5.8241722E-02 a0      max. step      1.2555818E-02 a0

--------------------------------------------------------------------------------

***  Geometry step: 45

 iSCC Total electronic   Diff electronic      SCC error    
    1   -0.19434470E+03    0.00000000E+00    0.10594568E-02
    2   -0.19434424E+03    0.46072402E-03    0.64947273E-03
    3   -0.19434424E+03   -0.12116954E-05    0.19317954E-03
    4   -0.19434424E+03   -0.29961558E-06    0.20059230E-04
    5   -0.19434424E+03   -0.49516302E-08    0.48092730E-05
    6   -0.19434424E+03   -0.30897240E-09    0.11723445E-05
    7   -0.19434424E+03   -0.48316906E-11    0.22008194E-06
    8   -0.19434424E+03   -0.25579538E-12    0.44800351E-07
    9   -0.19434424E+03    0.85265128E-13    0.16225102E-07
   10   -0.19434424E+03   -0.28421709E-13    0.15680834E-08

Total Energy:                     -192.3767647484 H        -5234.8381 eV
Extrapolated to 0K:               -192.3767647484 H        -5234.8381 eV
Total Mermin free energy:         -192.3767647484 H        -5234.8381 eV
Force related energy:             -192.3767647484 H        -5234.8381 eV

Volume:                              0.100446E+05 au^3   0.148845E+04 A^3
Pressure:                            0.116674E-05 au     0.343266E+08 Pa
>> Charges saved for restart in charges.bin

total energy  -1.9237676E+02 H       energy change -8.8432405E-05 H
gradient norm  8.3587225E-03 H/a0    max. gradient  1.8841387E-03 H/a0
step length    6.9936637E-02 a0      max. step      1.5392472E-02 a0

--------------------------------------------------------------------------------

***  Geometry step: 46

 iSCC Total electronic   Diff electronic      SCC error    
    1   -0.19434424E+03    0.00000000E+00    0.14417263E-02
    2   -0.19434411E+03    0.12444719E-03    0.72145857E-03
    3   -0.19434411E+03   -0.11070140E-05    0.21233432E-03
    4   -0.19434411E+03   -0.25695570E-06    0.25134702E-04
    5   -0.19434411E+03   -0.56890883E-08    0.74703330E-05
    6   -0.19434411E+03   -0.46256332E-09    0.10742536E-05
    7   -0.19434411E+03   -0.10714984E-10    0.17656405E-06
    8   -0.19434411E+03   -0.28421709E-12    0.59078428E-07
    9   -0.19434411E+03   -0.11368684E-12    0.17616817E-07
   10   -0.19434411E+03    0.56843419E-13    0.13521415E-08

Total Energy:                     -192.3768613624 H        -5234.8407 eV
Extrapolated to 0K:               -192.3768613624 H        -5234.8407 eV
Total Mermin free energy:         -192.3768613624 H        -5234.8407 eV
Force related energy:             -192.3768613624 H        -5234.8407 eV

Volume:                              0.100496E+05 au^3   0.148920E+04 A^3
Pressure:                            0.707263E-06 au     0.208084E+08 Pa
>> Charges saved for restart in charges.bin

total energy  -1.9237686E+02 H       energy change -9.6614019E-05 H
gradient norm  8.1551344E-03 H/a0    max. gradient  1.9148086E-03 H/a0
step length    8.0258809E-02 a0      max. step      1.8080053E-02 a0

--------------------------------------------------------------------------------

***  Geometry step: 47

 iSCC Total electronic   Diff electronic      SCC error    
    1   -0.19434411E+03    0.00000000E+00    0.17339906E-02
    2   -0.19434485E+03   -0.73298980E-03    0.65933974E-03
    3   -0.19434485E+03   -0.15964866E-05    0.20910532E-03
    4   -0.19434485E+03   -0.34349006E-06    0.30745832E-04
    5   -0.19434485E+03   -0.51375935E-08    0.66713827E-05
    6   -0.19434485E+03   -0.51119287E-09    0.11185700E-05
    7   -0.19434485E+03   -0.15575097E-10    0.21811764E-06
    8   -0.19434485E+03   -0.22737368E-12    0.55940309E-07
    9   -0.19434485E+03    0.56843419E-13    0.13973261E-07
   10   -0.19434485E+03    0.00000000E+00    0.16429551E-08

Total Energy:                     -192.3769548276 H        -5234.8433 eV
Extrapolated to 0K:               -192.3769548276 H        -5234.8433 eV
Total Mermin free energy:         -192.3769548276 H        -5234.8433 eV
Force related energy:             -192.3769548276 H        -5234.8433 eV

Volume:                              0.100536E+05 au^3   0.148979E+04 A^3
Pressure:                            0.396188E-06 au     0.116562E+08 Pa
>> Charges saved for restart in charges.bin

total energy  -1.9237695E+02 H       energy change -9.3465179E-05 H
gradient norm  7.1492854E-03 H/a0    max. gradient  1.8009016E-03 H/a0
step length    8.1879970E-02 a0      max. step      1.8802193E-02 a0

--------------------------------------------------------------------------------

***  Geometry step: 48

 iSCC Total electronic   Diff electronic      SCC error    
    1   -0.19434485E+03    0.00000000E+00    0.16233544E-02
    2   -0.19434708E+03   -0.22271967E-02    0.63266584E-03
    3   -0.19434708E+03   -0.25684359E-05    0.13198145E-03
    4   -0.19434708E+03   -0.55520567E-06    0.34131952E-04
    5   -0.19434708E+03   -0.69827024E-08    0.50832817E-05
    6   -0.19434708E+03   -0.35458925E-09    0.50109715E-06
    7   -0.19434708E+03   -0.34845016E-10    0.19752524E-06
    8   -0.19434708E+03   -0.51159077E-12    0.72655510E-07
    9   -0.19434708E+03    0.28421709E-13    0.90161443E-08

Total Energy:                     -192.3770414758 H        -5234.8456 eV
Extrapolated to 0K:               -192.3770414758 H        -5234.8456 eV
Total Mermin free energy:         -192.3770414758 H        -5234.8456 eV
Force related energy:             -192.3770414758 H        -5234.8456 eV

Volume:                              0.100554E+05 au^3   0.149005E+04 A^3
Pressure:                            0.739031E-06 au     0.217430E+08 Pa
>> Charges saved for restart in charges.bin

total energy  -1.9237704E+02 H       energy change -8.6648188E-05 H
gradient norm  6.7527942E-03 H/a0    max. gradient  2.0089167E-03 H/a0
step length    7.7222723E-02 a0      max. step      1.7816584E-02 a0

--------------------------------------------------------------------------------

***  Geometry step: 49

 iSCC Total electronic   Diff electronic      SCC error    
    1   -0.19434708E+03    0.00000000E+00    0.14697720E-02
    2   -0.19434924E+03   -0.21658980E-02    0.55592552E-03
    3   -0.19434925E+03   -0.13268760E-05    0.10380541E-03
    4   -0.19434925E+03   -0.28658337E-06    0.22098157E-04
    5   -0.19434925E+03   -0.34474965E-08    0.30131256E-05
    6   -0.19434925E+03   -0.16731860E-09    0.39907923E-06
    7   -0.19434925E+03   -0.16399326E-10    0.16844516E-06
    8   -0.19434925E+03   -0.31263880E-12    0.63764904E-07
    9   -0.19434925E+03    0.28421709E-13    0.80663334E-08

Total Energy:                     -192.3771107491 H        -5234.8475 eV
Extrapolated to 0K:               -192.3771107491 H        -5234.8475 eV
Total Mermin free energy:         -192.3771107491 H        -5234.8475 eV
Force related energy:             -192.3771107491 H        -5234.8475 eV

Volume:                              0.100559E+05 au^3   0.149013E+04 A^3
Pressure:                            0.123078E-05 au     0.362107E+08 Pa
>> Charges saved for restart in charges.bin

total energy  -1.9237711E+02 H       energy change -6.9273374E-05 H
gradient norm  7.3781899E-03 H/a0    max. gradient  2.1199259E-03 H/a0
step length    5.4030619E-02 a0      max. step      1.1908329E-02 a0

--------------------------------------------------------------------------------

***  Geometry step: 50

 iSCC Total electronic   Diff electronic      SCC error    
    1   -0.19434925E+03    0.00000000E+00    0.17262823E-02
    2   -0.19435185E+03   -0.26018154E-02    0.65424499E-03
    3   -0.19435185E+03   -0.18288075E-05    0.18735496E-03
    4   -0.19435185E+03   -0.38509660E-06    0.16478451E-04
    5   -0.19435185E+03   -0.50538347E-08    0.32471129E-05
    6   -0.19435185E+03   -0.40813575E-09    0.68368969E-06
    7   -0.19435185E+03   -0.11254997E-10    0.24623055E-06
    8   -0.19435185E+03   -0.36948222E-12    0.68988792E-07
    9   -0.19435185E+03    0.28421709E-13    0.82910097E-08

Total Energy:                     -192.3772123180 H        -5234.8503 eV
Extrapolated to 0K:               -192.3772123180 H        -5234.8503 eV
Total Mermin free energy:         -192.3772123180 H        -5234.8503 eV
Force related energy:             -192.3772123180 H        -5234.8503 eV

Volume:                              0.100567E+05 au^3   0.149025E+04 A^3
Pressure:                            0.199134E-05 au     0.585873E+08 Pa
>> Charges saved for restart in charges.bin

total energy  -1.9237721E+02 H       energy change -1.0156889E-04 H
gradient norm  8.4162085E-03 H/a0    max. gradient  2.0163367E-03 H/a0
step length    8.1062659E-02 a0      max. step      1.7539323E-02 a0

--------------------------------------------------------------------------------

***  Geometry step: 51

 iSCC Total electronic   Diff electronic      SCC error    
    1   -0.19435185E+03    0.00000000E+00    0.12225329E-02
    2   -0.19435275E+03   -0.89768231E-03    0.72480072E-03
    3   -0.19435275E+03   -0.19200797E-05    0.20941749E-03
    4   -0.19435275E+03   -0.41257545E-06    0.22859452E-04
    5   -0.19435275E+03   -0.69163377E-08    0.49698153E-05
    6   -0.19435275E+03   -0.52077098E-09    0.11411220E-05
    7   -0.19435275E+03   -0.38937742E-11    0.18207988E-06
    8   -0.19435275E+03   -0.11368684E-12    0.36892234E-07
    9   -0.19435275E+03   -0.85265128E-13    0.10053500E-07
   10   -0.19435275E+03    0.14210855E-12    0.10127970E-08

Total Energy:                     -192.3773242099 H        -5234.8533 eV
Extrapolated to 0K:               -192.3773242099 H        -5234.8533 eV
Total Mermin free energy:         -192.3773242099 H        -5234.8533 eV
Force related energy:             -192.3773242099 H        -5234.8533 eV

Volume:                              0.100590E+05 au^3   0.149059E+04 A^3
Pressure:                            0.214304E-05 au     0.630503E+08 Pa
>> Charges saved for restart in charges.bin

total energy  -1.9237732E+02 H       energy change -1.1189188E-04 H
gradient norm  8.3439642E-03 H/a0    max. gradient  2.2191113E-03 H/a0
step length    9.7369749E-02 a0      max. step      2.1100116E-02 a0

--------------------------------------------------------------------------------

***  Geometry step: 52

 iSCC Total electronic   Diff electronic      SCC error    
    1   -0.19435275E+03    0.00000000E+00    0.17827814E-02
    2   -0.19435179E+03    0.95806568E-03    0.10075635E-02
    3   -0.19435179E+03   -0.24182062E-05    0.24194286E-03
    4   -0.19435180E+03   -0.55504677E-06    0.28401282E-04
    5   -0.19435180E+03   -0.10547353E-07    0.69555125E-05
    6   -0.19435180E+03   -0.61203309E-09    0.16593182E-05
    7   -0.19435180E+03   -0.89528385E-11    0.41533281E-06
    8   -0.19435180E+03   -0.48316906E-12    0.58005937E-07
    9   -0.19435180E+03   -0.28421709E-13    0.16628534E-07
[...]
    7   -0.19434500E+03   -0.28421709E-13    0.12777190E-07
    8   -0.19434500E+03    0.28421709E-13    0.43419734E-08

Total Energy:                     -192.3795748806 H        -5234.9146 eV
Extrapolated to 0K:               -192.3795748806 H        -5234.9146 eV
Total Mermin free energy:         -192.3795748806 H        -5234.9146 eV
Force related energy:             -192.3795748806 H        -5234.9146 eV

Volume:                              0.996676E+04 au^3   0.147692E+04 A^3
Pressure:                            0.100194E-06 au     0.294781E+07 Pa
>> Charges saved for restart in charges.bin

total energy  -1.9237957E+02 H       energy change -1.0309256E-06 H
gradient norm  7.0703458E-04 H/a0    max. gradient  1.7882989E-04 H/a0
step length    3.4768106E-03 a0      max. step      8.5813822E-04 a0

--------------------------------------------------------------------------------

***  Geometry step: 168

 iSCC Total electronic   Diff electronic      SCC error    
    1   -0.19434500E+03    0.00000000E+00    0.15148475E-03
    2   -0.19434480E+03    0.20448006E-03    0.90594168E-04
    3   -0.19434480E+03   -0.25193856E-07    0.31054835E-04
    4   -0.19434480E+03   -0.60597927E-08    0.23147824E-05
    5   -0.19434480E+03   -0.79467100E-10    0.23335334E-06
    6   -0.19434480E+03   -0.44337867E-11    0.57592544E-07
    7   -0.19434480E+03   -0.14210855E-12    0.13448291E-07
    8   -0.19434480E+03    0.28421709E-13    0.36449177E-08

Total Energy:                     -192.3795762891 H        -5234.9146 eV
Extrapolated to 0K:               -192.3795762891 H        -5234.9146 eV
Total Mermin free energy:         -192.3795762891 H        -5234.9146 eV
Force related energy:             -192.3795762891 H        -5234.9146 eV

Volume:                              0.996493E+04 au^3   0.147665E+04 A^3
Pressure:                            0.832731E-07 au     0.244998E+07 Pa
>> Charges saved for restart in charges.bin

total energy  -1.9237958E+02 H       energy change -1.4084940E-06 H
gradient norm  8.3792999E-04 H/a0    max. gradient  2.5625424E-04 H/a0
step length    2.8822394E-02 a0      max. step      6.4927700E-03 a0

--------------------------------------------------------------------------------

***  Geometry step: 169

 iSCC Total electronic   Diff electronic      SCC error    
    1   -0.19434480E+03    0.00000000E+00    0.88733110E-04
    2   -0.19434484E+03   -0.48048156E-04    0.57231045E-04
    3   -0.19434484E+03   -0.80011660E-08    0.18830481E-04
    4   -0.19434484E+03   -0.21655922E-08    0.19855813E-05
    5   -0.19434484E+03   -0.27768010E-10    0.41157169E-06
    6   -0.19434484E+03   -0.24442670E-11    0.79490013E-07
    7   -0.19434484E+03   -0.56843419E-13    0.80409626E-08

Total Energy:                     -192.3795770173 H        -5234.9146 eV
Extrapolated to 0K:               -192.3795770173 H        -5234.9146 eV
Total Mermin free energy:         -192.3795770173 H        -5234.9146 eV
Force related energy:             -192.3795770173 H        -5234.9146 eV

Volume:                              0.996481E+04 au^3   0.147663E+04 A^3
Pressure:                            0.122972E-06 au     0.361796E+07 Pa
>> Charges saved for restart in charges.bin

total energy  -1.9237958E+02 H       energy change -7.2819091E-07 H
gradient norm  6.7915715E-04 H/a0    max. gradient  1.6086634E-04 H/a0
step length    1.9926816E-03 a0      max. step      5.3457708E-04 a0

--------------------------------------------------------------------------------

***  Geometry step: 170

 iSCC Total electronic   Diff electronic      SCC error    
    1   -0.19434484E+03    0.00000000E+00    0.19025537E-03
    2   -0.19434481E+03    0.38076619E-04    0.97687984E-04
    3   -0.19434481E+03   -0.39142890E-07    0.32865920E-04
    4   -0.19434481E+03   -0.10115741E-07    0.45409166E-05
    5   -0.19434481E+03   -0.12784085E-09    0.65779694E-06
    6   -0.19434481E+03   -0.10970780E-10    0.14125805E-06
    7   -0.19434481E+03   -0.34106051E-12    0.18206486E-07
    8   -0.19434481E+03    0.85265128E-13    0.51003002E-08

Total Energy:                     -192.3795781857 H        -5234.9147 eV
Extrapolated to 0K:               -192.3795781857 H        -5234.9147 eV
Total Mermin free energy:         -192.3795781857 H        -5234.9147 eV
Force related energy:             -192.3795781857 H        -5234.9147 eV

Volume:                              0.996448E+04 au^3   0.147658E+04 A^3
Pressure:                            0.103400E-06 au     0.304212E+07 Pa
>> Charges saved for restart in charges.bin

total energy  -1.9237958E+02 H       energy change -1.1684085E-06 H
gradient norm  7.0246370E-04 H/a0    max. gradient  1.3675564E-04 H/a0
step length    5.5543118E-03 a0      max. step      1.2206299E-03 a0

--------------------------------------------------------------------------------

***  Geometry step: 171

 iSCC Total electronic   Diff electronic      SCC error    
    1   -0.19434481E+03    0.00000000E+00    0.90958945E-04
    2   -0.19434479E+03    0.17679441E-04    0.40674657E-04
    3   -0.19434479E+03   -0.66240773E-08    0.92313857E-05
    4   -0.19434479E+03   -0.14301804E-08    0.18420495E-05
    5   -0.19434479E+03   -0.20378366E-10    0.22572318E-06
    6   -0.19434479E+03   -0.17053026E-11    0.26570699E-07
    7   -0.19434479E+03   -0.85265128E-13    0.75067570E-08

Total Energy:                     -192.3795788821 H        -5234.9147 eV
Extrapolated to 0K:               -192.3795788821 H        -5234.9147 eV
Total Mermin free energy:         -192.3795788821 H        -5234.9147 eV
Force related energy:             -192.3795788821 H        -5234.9147 eV

Volume:                              0.996435E+04 au^3   0.147656E+04 A^3
Pressure:                            0.131492E-06 au     0.386863E+07 Pa
>> Charges saved for restart in charges.bin

total energy  -1.9237958E+02 H       energy change -6.9640839E-07 H
gradient norm  7.6302949E-04 H/a0    max. gradient  2.3575723E-04 H/a0
step length    3.9947431E-03 a0      max. step      8.8565014E-04 a0

--------------------------------------------------------------------------------

***  Geometry step: 172

 iSCC Total electronic   Diff electronic      SCC error    
    1   -0.19434479E+03    0.00000000E+00    0.13891951E-03
    2   -0.19434484E+03   -0.50957515E-04    0.57330435E-04
    3   -0.19434484E+03   -0.18935765E-07    0.19113769E-04
    4   -0.19434484E+03   -0.38250789E-08    0.30588025E-05
    5   -0.19434484E+03   -0.73697493E-10    0.67352339E-06
    6   -0.19434484E+03   -0.62243544E-11    0.13844327E-06
    7   -0.19434484E+03   -0.11368684E-12    0.14337843E-07
    8   -0.19434484E+03    0.56843419E-13    0.26945837E-08

Total Energy:                     -192.3795800151 H        -5234.9147 eV
Extrapolated to 0K:               -192.3795800151 H        -5234.9147 eV
Total Mermin free energy:         -192.3795800151 H        -5234.9147 eV
Force related energy:             -192.3795800151 H        -5234.9147 eV

Volume:                              0.996417E+04 au^3   0.147654E+04 A^3
Pressure:                            0.163944E-06 au     0.482339E+07 Pa
>> Charges saved for restart in charges.bin

total energy  -1.9237958E+02 H       energy change -1.1330104E-06 H
gradient norm  6.9971680E-04 H/a0    max. gradient  1.6370449E-04 H/a0
step length    8.2897408E-03 a0      max. step      1.8097098E-03 a0

--------------------------------------------------------------------------------

***  Geometry step: 173

 iSCC Total electronic   Diff electronic      SCC error    
    1   -0.19434484E+03    0.00000000E+00    0.14780432E-03
    2   -0.19434478E+03    0.60547660E-04    0.84454993E-04
    3   -0.19434478E+03   -0.19797199E-07    0.19750120E-04
    4   -0.19434478E+03   -0.42918771E-08    0.27090763E-05
    5   -0.19434478E+03   -0.66194161E-10    0.78940967E-06
    6   -0.19434478E+03   -0.48032689E-11    0.10521357E-06
    7   -0.19434478E+03   -0.11368684E-12    0.16013416E-07
    8   -0.19434478E+03   -0.11368684E-12    0.40424735E-08

Total Energy:                     -192.3795808913 H        -5234.9147 eV
Extrapolated to 0K:               -192.3795808913 H        -5234.9147 eV
Total Mermin free energy:         -192.3795808913 H        -5234.9147 eV
Force related energy:             -192.3795808913 H        -5234.9147 eV

Volume:                              0.996412E+04 au^3   0.147653E+04 A^3
Pressure:                            0.139332E-06 au     0.409927E+07 Pa
>> Charges saved for restart in charges.bin

total energy  -1.9237958E+02 H       energy change -8.7616607E-07 H
gradient norm  6.7846612E-04 H/a0    max. gradient  1.6132777E-04 H/a0
step length    7.2561288E-03 a0      max. step      1.4030683E-03 a0

--------------------------------------------------------------------------------

***  Geometry step: 174

 iSCC Total electronic   Diff electronic      SCC error    
    1   -0.19434478E+03    0.00000000E+00    0.10347429E-03
    2   -0.19434485E+03   -0.69618221E-04    0.56018068E-04
    3   -0.19434485E+03   -0.11234420E-07    0.13857877E-04
    4   -0.19434485E+03   -0.28860541E-08    0.21044541E-05
    5   -0.19434485E+03   -0.30468073E-10    0.41348812E-06
    6   -0.19434485E+03   -0.20179414E-11    0.76914517E-07
    7   -0.19434485E+03    0.00000000E+00    0.94450661E-08

Total Energy:                     -192.3795814910 H        -5234.9148 eV
Extrapolated to 0K:               -192.3795814910 H        -5234.9148 eV
Total Mermin free energy:         -192.3795814910 H        -5234.9148 eV
Force related energy:             -192.3795814910 H        -5234.9148 eV

Volume:                              0.996418E+04 au^3   0.147654E+04 A^3
Pressure:                            0.163211E-06 au     0.480184E+07 Pa
>> Charges saved for restart in charges.bin

total energy  -1.9237958E+02 H       energy change -5.9973965E-07 H
gradient norm  5.5326658E-04 H/a0    max. gradient  1.3712169E-04 H/a0
step length    2.7681680E-03 a0      max. step      5.7311886E-04 a0

--------------------------------------------------------------------------------

***  Geometry step: 175

 iSCC Total electronic   Diff electronic      SCC error    
    1   -0.19434485E+03    0.00000000E+00    0.10272264E-03
    2   -0.19434489E+03   -0.36448397E-04    0.44199005E-04
    3   -0.19434489E+03   -0.11432292E-07    0.11197627E-04
    4   -0.19434489E+03   -0.28118166E-08    0.23247933E-05
    5   -0.19434489E+03   -0.32684966E-10    0.34060105E-06
    6   -0.19434489E+03   -0.20747848E-11    0.81650236E-07
    7   -0.19434489E+03   -0.56843419E-13    0.10502426E-07
    8   -0.19434489E+03   -0.85265128E-13    0.18382709E-08

Total Energy:                     -192.3795819582 H        -5234.9148 eV
Extrapolated to 0K:               -192.3795819582 H        -5234.9148 eV
Total Mermin free energy:         -192.3795819582 H        -5234.9148 eV
Force related energy:             -192.3795819582 H        -5234.9148 eV

Volume:                              0.996421E+04 au^3   0.147654E+04 A^3
Pressure:                            0.151799E-06 au     0.446608E+07 Pa
>> Charges saved for restart in charges.bin

total energy  -1.9237958E+02 H       energy change -4.6713038E-07 H
gradient norm  5.7717307E-04 H/a0    max. gradient  1.5052165E-04 H/a0
step length    3.4206263E-03 a0      max. step      6.9218052E-04 a0

--------------------------------------------------------------------------------

***  Geometry step: 176

 iSCC Total electronic   Diff electronic      SCC error    
    1   -0.19434489E+03    0.00000000E+00    0.61770587E-04
    2   -0.19434491E+03   -0.19282904E-04    0.27683281E-04
    3   -0.19434491E+03   -0.44720707E-08    0.74076316E-05
    4   -0.19434491E+03   -0.10749375E-08    0.96232428E-06
    5   -0.19434491E+03   -0.76738615E-11    0.12873688E-06
    6   -0.19434491E+03   -0.68212103E-12    0.26660865E-07
    7   -0.19434491E+03   -0.14210855E-12    0.62883458E-08

Total Energy:                     -192.3795823126 H        -5234.9148 eV
Extrapolated to 0K:               -192.3795823126 H        -5234.9148 eV
Total Mermin free energy:         -192.3795823126 H        -5234.9148 eV
Force related energy:             -192.3795823126 H        -5234.9148 eV

Volume:                              0.996419E+04 au^3   0.147654E+04 A^3
Pressure:                            0.155691E-06 au     0.458058E+07 Pa
>> Charges saved for restart in charges.bin

total energy  -1.9237958E+02 H       energy change -3.5445657E-07 H
gradient norm  5.0447615E-04 H/a0    max. gradient  1.1962683E-04 H/a0
step length    1.1060456E-03 a0      max. step      2.0836900E-04 a0

--------------------------------------------------------------------------------

***  Geometry step: 177

 iSCC Total electronic   Diff electronic      SCC error    
    1   -0.19434491E+03    0.00000000E+00    0.13946722E-03
    2   -0.19434484E+03    0.69077954E-04    0.67127575E-04
    3   -0.19434484E+03   -0.24345553E-07    0.24739673E-04
    4   -0.19434484E+03   -0.46873083E-08    0.36454808E-05
    5   -0.19434484E+03   -0.80575546E-10    0.41375042E-06
    6   -0.19434484E+03   -0.79296569E-11    0.11712252E-06
    7   -0.19434484E+03   -0.19895197E-12    0.13986914E-07
    8   -0.19434484E+03   -0.56843419E-13    0.31327079E-08

Total Energy:                     -192.3795834532 H        -5234.9148 eV
Extrapolated to 0K:               -192.3795834532 H        -5234.9148 eV
Total Mermin free energy:         -192.3795834532 H        -5234.9148 eV
Force related energy:             -192.3795834532 H        -5234.9148 eV

Volume:                              0.996384E+04 au^3   0.147649E+04 A^3
Pressure:                            0.138477E-06 au     0.407413E+07 Pa
>> Charges saved for restart in charges.bin

total energy  -1.9237958E+02 H       energy change -1.1405442E-06 H
gradient norm  7.2919685E-04 H/a0    max. gradient  2.2383186E-04 H/a0
step length    2.1775528E-02 a0      max. step      4.9967188E-03 a0

--------------------------------------------------------------------------------

***  Geometry step: 178

 iSCC Total electronic   Diff electronic      SCC error    
    1   -0.19434484E+03    0.00000000E+00    0.90090836E-04
    2   -0.19434479E+03    0.42656753E-04    0.49442416E-04
    3   -0.19434479E+03   -0.60681771E-08    0.16568130E-04
    4   -0.19434479E+03   -0.13609736E-08    0.17573308E-05
    5   -0.19434479E+03   -0.18616220E-10    0.35987107E-06
    6   -0.19434479E+03   -0.15347723E-11    0.54300624E-07
    7   -0.19434479E+03   -0.56843419E-13    0.59942069E-08

Total Energy:                     -192.3795839174 H        -5234.9148 eV
Extrapolated to 0K:               -192.3795839174 H        -5234.9148 eV
Total Mermin free energy:         -192.3795839174 H        -5234.9148 eV
Force related energy:             -192.3795839174 H        -5234.9148 eV

Volume:                              0.996380E+04 au^3   0.147648E+04 A^3
Pressure:                            0.128272E-06 au     0.377388E+07 Pa
>> Charges saved for restart in charges.bin

total energy  -1.9237958E+02 H       energy change -4.6424699E-07 H
gradient norm  5.2990722E-04 H/a0    max. gradient  1.3656743E-04 H/a0
step length    1.8628702E-03 a0      max. step      4.1179856E-04 a0

--------------------------------------------------------------------------------

***  Geometry step: 179

 iSCC Total electronic   Diff electronic      SCC error    
    1   -0.19434479E+03    0.00000000E+00    0.14068994E-03
    2   -0.19434473E+03    0.64513714E-04    0.69037259E-04
    3   -0.19434473E+03   -0.16578298E-07    0.24658870E-04
    4   -0.19434473E+03   -0.34110599E-08    0.28220418E-05
    5   -0.19434473E+03   -0.47151616E-10    0.46882153E-06
    6   -0.19434473E+03   -0.46895821E-11    0.91641389E-07
    7   -0.19434473E+03   -0.85265128E-13    0.74322859E-08

Total Energy:                     -192.3795845546 H        -5234.9148 eV
Extrapolated to 0K:               -192.3795845546 H        -5234.9148 eV
Total Mermin free energy:         -192.3795845546 H        -5234.9148 eV
Force related energy:             -192.3795845546 H        -5234.9148 eV

Volume:                              0.996366E+04 au^3   0.147646E+04 A^3
Pressure:                            0.107788E-06 au     0.317123E+07 Pa
>> Charges saved for restart in charges.bin

total energy  -1.9237958E+02 H       energy change -6.3722658E-07 H
gradient norm  4.9582202E-04 H/a0    max. gradient  1.3304268E-04 H/a0
step length    5.1536292E-03 a0      max. step      1.1739827E-03 a0

--------------------------------------------------------------------------------

***  Geometry step: 180

 iSCC Total electronic   Diff electronic      SCC error    
    1   -0.19434473E+03    0.00000000E+00    0.10533781E-03
    2   -0.19434468E+03    0.51656416E-04    0.50288184E-04
    3   -0.19434468E+03   -0.87114813E-08    0.17584192E-04
    4   -0.19434468E+03   -0.17351738E-08    0.20524095E-05
    5   -0.19434468E+03   -0.28137492E-10    0.35950619E-06
    6   -0.19434468E+03   -0.26432190E-11    0.80661415E-07
    7   -0.19434468E+03    0.56843419E-13    0.63425256E-08

Total Energy:                     -192.3795850240 H        -5234.9149 eV
Extrapolated to 0K:               -192.3795850240 H        -5234.9149 eV
Total Mermin free energy:         -192.3795850240 H        -5234.9149 eV
Force related energy:             -192.3795850240 H        -5234.9149 eV

Volume:                              0.996338E+04 au^3   0.147642E+04 A^3
Pressure:                            0.851587E-07 au     0.250545E+07 Pa
>> Charges saved for restart in charges.bin

total energy  -1.9237959E+02 H       energy change -4.6937106E-07 H
gradient norm  5.6884453E-04 H/a0    max. gradient  1.6596268E-04 H/a0
step length    6.7307151E-03 a0      max. step      1.6657736E-03 a0

--------------------------------------------------------------------------------

***  Geometry step: 181

 iSCC Total electronic   Diff electronic      SCC error    
    1   -0.19434468E+03    0.00000000E+00    0.97522134E-04
    2   -0.19434458E+03    0.99835035E-04    0.38804598E-04
    3   -0.19434458E+03   -0.74041964E-08    0.12548679E-04
    4   -0.19434458E+03   -0.13733654E-08    0.19248631E-05
    5   -0.19434458E+03   -0.28961722E-10    0.24417495E-06
    6   -0.19434458E+03   -0.28705927E-11    0.70163010E-07
    7   -0.19434458E+03   -0.85265128E-13    0.71671717E-08

Total Energy:                     -192.3795855482 H        -5234.9149 eV
Extrapolated to 0K:               -192.3795855482 H        -5234.9149 eV
Total Mermin free energy:         -192.3795855482 H        -5234.9149 eV
Force related energy:             -192.3795855482 H        -5234.9149 eV

Volume:                              0.996317E+04 au^3   0.147639E+04 A^3
Pressure:                            0.685581E-07 au     0.201705E+07 Pa
>> Charges saved for restart in charges.bin

total energy  -1.9237959E+02 H       energy change -5.2424986E-07 H
gradient norm  5.7213582E-04 H/a0    max. gradient  9.9360576E-05 H/a0
step length    7.8599060E-03 a0      max. step      1.8913795E-03 a0

Geometry converged

--------------------------------------------------------------------------------
DFTB+ running times                          cpu [s]             wall clock [s]
--------------------------------------------------------------------------------
Pre-SCC initialisation                 +       6.60 (  0.3%)       3.02 (  0.9%)
SCC                                    +    2415.71 ( 92.1%)     317.33 ( 89.8%)
Post-SCC processing                    +     201.55 (  7.7%)      33.18 (  9.4%)
--------------------------------------------------------------------------------
Missing                                +       0.09 (  0.0%)       0.01 (  0.0%)
Total                                  =    2623.95 (100.0%)     353.54 (100.0%)
--------------------------------------------------------------------------------
