|===============================================================================
|
|  DFTB+ release 24.1
|
|  Copyright (C) 2006 - 2024  DFTB+ developers group
|
|===============================================================================
|
|  When publishing results obtained with DFTB+, please cite the following
|  reference:
|
|  * DFTB+, a software package for efficient approximate density functional
|    theory based atomistic simulations, J. Chem. Phys. 152, 124101 (2020).
|    [doi: 10.1063/1.5143190]
|
|  You should also cite additional publications crediting the parametrization
|  data you use. Please consult the documentation of the SK-files for the
|  references.
|
|===============================================================================

Reading input file 'dftb_in.hsd'
Parser version: 14

--------------------------------------------------------------------------------
Reading SK-files:
./SKFiles/Ge-Ge.skf
./SKFiles/Ge-Si.skf
./SKFiles/Ge-O.skf
./SKFiles/Si-Si.skf
./SKFiles/Si-O.skf
./SKFiles/O-O.skf
Done.


Processed input in HSD format written to 'dftb_pin.hsd'

Starting initialization...
--------------------------------------------------------------------------------
WARNING!
-> Dipole printed for extended system : value printed is not well defined
MPI processes:               1
OpenMP threads:              8
BLACS orbital grid size:     1 x 1
BLACS atom grid size:        1 x 1
Chosen random seed:          145301944
Current stacksize:           unlimited
Mode:                        Static calculation
Self consistent charges:     Yes
SCC-tolerance:                 0.100000E-07
Max. scc iterations:                    500
Shell resolved Hubbard:      No
Spin polarisation:           No
Nr. of up electrons:           192.000000
Nr. of down electrons:         192.000000
Periodic boundaries:         Yes
Electronic solver:           Relatively robust
Mixer:                       Broyden mixer
Mixing parameter:                  0.200000
Maximal SCC-cycles:                     500
Nr. of chrg. vec. in memory:            500
Electronic temperature:              0.100000E-07 H      0.272114E-06 eV
Initial charges:             Set automatically (system chrg:   0.000E+00)
Included shells:            Ge:  s, p, d
                            Si:  s, p, d
                             O:  s, p
K-points and weights:           1:  0.500000  0.500000  0.500000     1.000000

K-points in absolute space:     1:  0.025319  0.017606  0.037774

Extra options:
                             Mulliken analysis
Force type                   original

--------------------------------------------------------------------------------

***  Geometry step: 0

 iSCC Total electronic   Diff electronic      SCC error    
    1    0.00000000E+00    0.00000000E+00    0.14597374E+01
    2   -0.19480277E+03   -0.19480277E+03    0.99387353E+00
    3   -0.19516918E+03   -0.36640885E+00    0.61752954E-01
    4   -0.19548500E+03   -0.31581231E+00    0.28097953E-01
    5   -0.19548702E+03   -0.20208301E-02    0.78742550E-02
    6   -0.19548716E+03   -0.14603081E-03    0.17017714E-02
    7   -0.19548717E+03   -0.39254886E-05    0.47746866E-03
    8   -0.19548717E+03   -0.11050730E-05    0.65297019E-04
    9   -0.19548717E+03   -0.63117028E-07    0.34272132E-04
   10   -0.19548717E+03   -0.68155259E-10    0.16230011E-05
   11   -0.19548717E+03   -0.22208724E-09    0.35351134E-06
   12   -0.19548717E+03   -0.30411229E-11    0.23053886E-06
   13   -0.19548717E+03    0.85265128E-13    0.20767305E-07
   14   -0.19548717E+03   -0.28421709E-13    0.55127654E-08

Total Energy:                     -191.8772522802 H        -5221.2457 eV
Extrapolated to 0K:               -191.8772522802 H        -5221.2457 eV
Total Mermin free energy:         -191.8772522802 H        -5221.2457 eV
Force related energy:             -191.8772522802 H        -5221.2457 eV

Volume:                              0.913789E+04 au^3   0.135410E+04 A^3
Pressure:                            0.716003E-03 au     0.210655E+11 Pa
>> Charges saved for restart in charges.bin

total energy  -1.9187725E+02 H       energy change -1.9187725E+02 H
gradient norm  9.5128985E-01 H/a0    max. gradient  4.8788369E-01 H/a0
step length    0.0000000E+00 a0      max. step      0.0000000E+00 a0

--------------------------------------------------------------------------------

***  Geometry step: 1

 iSCC Total electronic   Diff electronic      SCC error    
    1   -0.19548717E+03    0.00000000E+00    0.11904430E+00
    2   -0.19509082E+03    0.39634946E+00    0.53356761E-01
    3   -0.19509973E+03   -0.89158096E-02    0.15250849E-01
    4   -0.19510160E+03   -0.18683701E-02    0.14012976E-02
    5   -0.19510163E+03   -0.24926490E-04    0.52970600E-03
    6   -0.19510163E+03   -0.11156004E-05    0.18396625E-03
    7   -0.19510163E+03   -0.68510019E-07    0.22030899E-04
    8   -0.19510163E+03   -0.63649281E-08    0.37949276E-05
    9   -0.19510163E+03   -0.35893777E-09    0.13903935E-05
   10   -0.19510163E+03   -0.58548721E-11    0.42373863E-06
   11   -0.19510163E+03   -0.34106051E-12    0.30980608E-07
   12   -0.19510163E+03    0.11368684E-12    0.72654904E-08

Total Energy:                     -192.0266263986 H        -5225.3104 eV
Extrapolated to 0K:               -192.0266263986 H        -5225.3104 eV
Total Mermin free energy:         -192.0266263986 H        -5225.3104 eV
Force related energy:             -192.0266263986 H        -5225.3104 eV

Volume:                              0.949529E+04 au^3   0.140706E+04 A^3
Pressure:                            0.453346E-03 au     0.133379E+11 Pa
>> Charges saved for restart in charges.bin

total energy  -1.9202663E+02 H       energy change -1.4937412E-01 H
gradient norm  6.3031206E-01 H/a0    max. gradient  2.4685044E-01 H/a0
step length    6.0411357E-01 a0      max. step      3.0982897E-01 a0

--------------------------------------------------------------------------------

***  Geometry step: 2

 iSCC Total electronic   Diff electronic      SCC error    
    1   -0.19510163E+03    0.00000000E+00    0.48383890E-01
    2   -0.19502933E+03    0.72299206E-01    0.22609989E-01
    3   -0.19503217E+03   -0.28369350E-02    0.70879946E-02
    4   -0.19503278E+03   -0.61098168E-03    0.83444787E-03
    5   -0.19503278E+03   -0.65436107E-05    0.16309175E-03
    6   -0.19503278E+03   -0.34941837E-06    0.11843403E-03
    7   -0.19503278E+03   -0.20265219E-07    0.21095859E-04
    8   -0.19503278E+03   -0.23024143E-08    0.14737216E-05
    9   -0.19503278E+03   -0.10388135E-09    0.52293879E-06
   10   -0.19503278E+03   -0.22453150E-11    0.22678362E-06
   11   -0.19503278E+03    0.11368684E-12    0.20614847E-07
   12   -0.19503278E+03   -0.17053026E-12    0.47672408E-08

Total Energy:                     -192.1795801928 H        -5229.4724 eV
Extrapolated to 0K:               -192.1795801928 H        -5229.4724 eV
Total Mermin free energy:         -192.1795801928 H        -5229.4724 eV
Force related energy:             -192.1795801928 H        -5229.4724 eV

Volume:                              0.949006E+04 au^3   0.140628E+04 A^3
Pressure:                            0.374142E-03 au     0.110076E+11 Pa
>> Charges saved for restart in charges.bin

total energy  -1.9217958E+02 H       energy change -1.5295379E-01 H
gradient norm  3.2124181E-01 H/a0    max. gradient  8.3064983E-02 H/a0
step length    3.8224502E-01 a0      max. step      8.5311875E-02 a0

--------------------------------------------------------------------------------

***  Geometry step: 3

 iSCC Total electronic   Diff electronic      SCC error    
    1   -0.19503278E+03    0.00000000E+00    0.66341421E-01
    2   -0.19489618E+03    0.13659977E+00    0.27592088E-01
    3   -0.19489886E+03   -0.26732413E-02    0.92379038E-02
    4   -0.19489945E+03   -0.59099397E-03    0.12403919E-02
    5   -0.19489946E+03   -0.73956166E-05    0.25299127E-03
    6   -0.19489946E+03   -0.58043977E-06    0.16651058E-03
    7   -0.19489946E+03   -0.16401117E-07    0.18818615E-04
    8   -0.19489946E+03   -0.29524472E-08    0.23800063E-05
    9   -0.19489946E+03   -0.12860824E-09    0.69603445E-06
   10   -0.19489946E+03   -0.32400749E-11    0.21641439E-06
   11   -0.19489946E+03   -0.28421709E-13    0.28023669E-07
   12   -0.19489946E+03   -0.28421709E-13    0.42635149E-08

Total Energy:                     -192.2588073284 H        -5231.6283 eV
Extrapolated to 0K:               -192.2588073284 H        -5231.6283 eV
Total Mermin free energy:         -192.2588073284 H        -5231.6283 eV
Force related energy:             -192.2588073284 H        -5231.6283 eV

Volume:                              0.951795E+04 au^3   0.141041E+04 A^3
Pressure:                            0.297861E-03 au     0.876336E+10 Pa
>> Charges saved for restart in charges.bin

total energy  -1.9225881E+02 H       energy change -7.9227136E-02 H
gradient norm  2.9720983E-01 H/a0    max. gradient  2.1338768E-01 H/a0
step length    4.7042844E-01 a0      max. step      1.1615026E-01 a0

--------------------------------------------------------------------------------

***  Geometry step: 4

 iSCC Total electronic   Diff electronic      SCC error    
    1   -0.19489946E+03    0.00000000E+00    0.51214619E-01
    2   -0.19469045E+03    0.20900790E+00    0.27769233E-01
    3   -0.19469184E+03   -0.13931213E-02    0.53931527E-02
    4   -0.19469216E+03   -0.31417789E-03    0.79547580E-03
    5   -0.19469216E+03   -0.49570394E-05    0.19322430E-03
    6   -0.19469216E+03   -0.41605037E-06    0.12651747E-03
    7   -0.19469216E+03   -0.74399509E-08    0.15652118E-04
    8   -0.19469216E+03   -0.13364456E-08    0.17403469E-05
    9   -0.19469216E+03   -0.58747673E-10    0.42948530E-06
   10   -0.19469216E+03   -0.17621460E-11    0.14115223E-06
   11   -0.19469216E+03   -0.17053026E-12    0.23171094E-07
   12   -0.19469216E+03    0.00000000E+00    0.41308907E-08

Total Energy:                     -192.2963166186 H        -5232.6490 eV
Extrapolated to 0K:               -192.2963166186 H        -5232.6490 eV
Total Mermin free energy:         -192.2963166186 H        -5232.6490 eV
Force related energy:             -192.2963166186 H        -5232.6490 eV

Volume:                              0.962916E+04 au^3   0.142689E+04 A^3
Pressure:                            0.199333E-03 au     0.586457E+10 Pa
>> Charges saved for restart in charges.bin

total energy  -1.9229632E+02 H       energy change -3.7509290E-02 H
gradient norm  2.3854609E-01 H/a0    max. gradient  1.1870187E-01 H/a0
step length    3.8428372E-01 a0      max. step      1.3548008E-01 a0

--------------------------------------------------------------------------------

***  Geometry step: 5

 iSCC Total electronic   Diff electronic      SCC error    
    1   -0.19469216E+03    0.00000000E+00    0.35001159E-01
    2   -0.19448967E+03    0.20249246E+00    0.15241216E-01
    3   -0.19449043E+03   -0.75861096E-03    0.32205731E-02
    4   -0.19449060E+03   -0.16898486E-03    0.34311205E-03
    5   -0.19449060E+03   -0.25451825E-05    0.16502116E-03
    6   -0.19449060E+03   -0.14553794E-06    0.83722524E-04
    7   -0.19449060E+03   -0.26307703E-08    0.58790893E-05
    8   -0.19449060E+03   -0.51585403E-09    0.13383428E-05
    9   -0.19449060E+03   -0.26460611E-10    0.18510136E-06
   10   -0.19449060E+03   -0.36948222E-12    0.22059677E-07
   11   -0.19449060E+03    0.56843419E-13    0.10325415E-07
   12   -0.19449060E+03   -0.28421709E-13    0.33158636E-08

Total Energy:                     -192.3220479098 H        -5233.3492 eV
Extrapolated to 0K:               -192.3220479098 H        -5233.3492 eV
Total Mermin free energy:         -192.3220479098 H        -5233.3492 eV
Force related energy:             -192.3220479098 H        -5233.3492 eV

Volume:                              0.974729E+04 au^3   0.144440E+04 A^3
Pressure:                            0.107106E-03 au     0.315117E+10 Pa
>> Charges saved for restart in charges.bin

total energy  -1.9232205E+02 H       energy change -2.5731291E-02 H
gradient norm  1.5095426E-01 H/a0    max. gradient  7.5740144E-02 H/a0
step length    3.6305895E-01 a0      max. step      1.1588042E-01 a0

--------------------------------------------------------------------------------

***  Geometry step: 6

 iSCC Total electronic   Diff electronic      SCC error    
    1   -0.19449060E+03    0.00000000E+00    0.28815332E-01
    2   -0.19440838E+03    0.82222777E-01    0.12806717E-01
    3   -0.19440874E+03   -0.36553601E-03    0.21533207E-02
    4   -0.19440882E+03   -0.79389770E-04    0.50271024E-03
    5   -0.19440882E+03   -0.11235526E-05    0.99029825E-04
    6   -0.19440882E+03   -0.99761024E-07    0.36663019E-04
    7   -0.19440882E+03   -0.27081342E-08    0.69122461E-05
    8   -0.19440882E+03   -0.25019631E-09    0.92420972E-06
    9   -0.19440882E+03   -0.12676082E-10    0.20651853E-06
   10   -0.19440882E+03   -0.51159077E-12    0.52322446E-07
   11   -0.19440882E+03    0.11368684E-12    0.72657507E-08

Total Energy:                     -192.3358173438 H        -5233.7239 eV
Extrapolated to 0K:               -192.3358173438 H        -5233.7239 eV
Total Mermin free energy:         -192.3358173438 H        -5233.7239 eV
Force related energy:             -192.3358173438 H        -5233.7239 eV

Volume:                              0.978203E+04 au^3   0.144955E+04 A^3
Pressure:                            0.672046E-04 au     0.197723E+10 Pa
>> Charges saved for restart in charges.bin

total energy  -1.9233582E+02 H       energy change -1.3769434E-02 H
gradient norm  9.6844715E-02 H/a0    max. gradient  3.6528892E-02 H/a0
step length    2.4578655E-01 a0      max. step      4.9365337E-02 a0

--------------------------------------------------------------------------------

***  Geometry step: 7

 iSCC Total electronic   Diff electronic      SCC error    
    1   -0.19440882E+03    0.00000000E+00    0.10997964E-01
    2   -0.19439026E+03    0.18558852E-01    0.62300961E-02
    3   -0.19439043E+03   -0.16660504E-03    0.16250729E-02
    4   -0.19439047E+03   -0.39815840E-04    0.24967434E-03
    5   -0.19439047E+03   -0.34949460E-06    0.44972506E-04
    6   -0.19439047E+03   -0.22430896E-07    0.22559845E-04
    7   -0.19439047E+03   -0.37351811E-09    0.37809801E-05
    8   -0.19439047E+03   -0.59543481E-10    0.27395202E-06
    9   -0.19439047E+03   -0.29558578E-11    0.89314394E-07
   10   -0.19439047E+03   -0.19895197E-12    0.12217808E-07
   11   -0.19439047E+03    0.00000000E+00    0.20439366E-08

Total Energy:                     -192.3447979246 H        -5233.9683 eV
Extrapolated to 0K:               -192.3447979246 H        -5233.9683 eV
Total Mermin free energy:         -192.3447979246 H        -5233.9683 eV
Force related energy:             -192.3447979246 H        -5233.9683 eV

Volume:                              0.977828E+04 au^3   0.144899E+04 A^3
Pressure:                            0.569136E-04 au     0.167446E+10 Pa
>> Charges saved for restart in charges.bin

total energy  -1.9234480E+02 H       energy change -8.9805808E-03 H
gradient norm  7.2658204E-02 H/a0    max. gradient  1.4119102E-02 H/a0
step length    1.8025724E-01 a0      max. step      3.8640427E-02 a0

--------------------------------------------------------------------------------

***  Geometry step: 8

 iSCC Total electronic   Diff electronic      SCC error    
    1   -0.19439047E+03    0.00000000E+00    0.26351383E-01
    2   -0.19436768E+03    0.22787458E-01    0.15496558E-01
    3   -0.19436790E+03   -0.21755636E-03    0.32719238E-02
    4   -0.19436795E+03   -0.52552040E-04    0.42419640E-03
    5   -0.19436795E+03   -0.11470949E-05    0.11164243E-03
    6   -0.19436795E+03   -0.60125700E-07    0.33010734E-04
    7   -0.19436795E+03   -0.17108732E-08    0.55293032E-05
    8   -0.19436795E+03   -0.13403678E-09    0.89640667E-06
    9   -0.19436795E+03   -0.11823431E-10    0.22015907E-06
   10   -0.19436795E+03   -0.45474735E-12    0.22017779E-07
   11   -0.19436795E+03   -0.28421709E-13    0.51979279E-08

Total Energy:                     -192.3535107315 H        -5234.2053 eV
Extrapolated to 0K:               -192.3535107315 H        -5234.2053 eV
Total Mermin free energy:         -192.3535107315 H        -5234.2053 eV
Force related energy:             -192.3535107315 H        -5234.2053 eV

Volume:                              0.978575E+04 au^3   0.145010E+04 A^3
Pressure:                            0.438025E-04 au     0.128871E+10 Pa
>> Charges saved for restart in charges.bin

total energy  -1.9235351E+02 H       energy change -8.7128070E-03 H
gradient norm  5.5500657E-02 H/a0    max. gradient  1.4473215E-02 H/a0
step length    2.5916759E-01 a0      max. step      5.5865016E-02 a0

--------------------------------------------------------------------------------

***  Geometry step: 9

 iSCC Total electronic   Diff electronic      SCC error    
    1   -0.19436795E+03    0.00000000E+00    0.12317043E-01
    2   -0.19436210E+03    0.58565306E-02    0.71548200E-02
    3   -0.19436216E+03   -0.58143562E-04    0.11846170E-02
    4   -0.19436217E+03   -0.14921324E-04    0.14815663E-03
    5   -0.19436217E+03   -0.44399184E-06    0.64646257E-04
    6   -0.19436217E+03   -0.25623450E-07    0.17074975E-04
    7   -0.19436217E+03   -0.84980911E-09    0.35037197E-05
    8   -0.19436217E+03   -0.36465053E-10    0.42159413E-06
    9   -0.19436217E+03   -0.24158453E-11    0.69035527E-07
   10   -0.19436217E+03   -0.19895197E-12    0.15279721E-07
   11   -0.19436217E+03   -0.28421709E-13    0.19213928E-08

Total Energy:                     -192.3570929167 H        -5234.3028 eV
Extrapolated to 0K:               -192.3570929167 H        -5234.3028 eV
Total Mermin free energy:         -192.3570929167 H        -5234.3028 eV
Force related energy:             -192.3570929167 H        -5234.3028 eV

Volume:                              0.978705E+04 au^3   0.145029E+04 A^3
Pressure:                            0.400867E-04 au     0.117939E+10 Pa
>> Charges saved for restart in charges.bin

total energy  -1.9235709E+02 H       energy change -3.5821852E-03 H
gradient norm  4.2590123E-02 H/a0    max. gradient  1.3565896E-02 H/a0
step length    1.6230333E-01 a0      max. step      3.2064439E-02 a0

--------------------------------------------------------------------------------

***  Geometry step: 10

 iSCC Total electronic   Diff electronic      SCC error    
    1   -0.19436217E+03    0.00000000E+00    0.89589321E-02
    2   -0.19435578E+03    0.63922225E-02    0.38315413E-02
    3   -0.19435583E+03   -0.49292558E-04    0.10687160E-02
    4   -0.19435584E+03   -0.10315384E-04    0.14814351E-03
    5   -0.19435584E+03   -0.37659964E-06    0.51033707E-04
    6   -0.19435584E+03   -0.22353760E-07    0.15716693E-04
    7   -0.19435584E+03   -0.64324013E-09    0.40209024E-05
    8   -0.19435584E+03   -0.35356607E-10    0.32447462E-06
    9   -0.19435584E+03   -0.19042545E-11    0.69802351E-07
   10   -0.19435584E+03   -0.11368684E-12    0.14580378E-07
   11   -0.19435584E+03    0.28421709E-13    0.19629995E-08

Total Energy:                     -192.3597551353 H        -5234.3753 eV
Extrapolated to 0K:               -192.3597551353 H        -5234.3753 eV
Total Mermin free energy:         -192.3597551353 H        -5234.3753 eV
Force related energy:             -192.3597551353 H        -5234.3753 eV

Volume:                              0.979315E+04 au^3   0.145120E+04 A^3
Pressure:                            0.363476E-04 au     0.106938E+10 Pa
>> Charges saved for restart in charges.bin

total energy  -1.9235976E+02 H       energy change -2.6622186E-03 H
gradient norm  3.5542537E-02 H/a0    max. gradient  8.5256838E-03 H/a0
step length    1.5462484E-01 a0      max. step      3.0198017E-02 a0

--------------------------------------------------------------------------------

***  Geometry step: 11

 iSCC Total electronic   Diff electronic      SCC error    
    1   -0.19435584E+03    0.00000000E+00    0.87376552E-02
    2   -0.19434864E+03    0.71993890E-02    0.41489497E-02
    3   -0.19434869E+03   -0.47135147E-04    0.11564684E-02
    4   -0.19434870E+03   -0.96149903E-05    0.15552420E-03
    5   -0.19434870E+03   -0.29195002E-06    0.21410831E-04
    6   -0.19434870E+03   -0.20003341E-07    0.75767926E-05
    7   -0.19434870E+03   -0.34802383E-09    0.21412060E-05
    8   -0.19434870E+03   -0.28336444E-10    0.33936970E-06
    9   -0.19434870E+03   -0.14210855E-11    0.66540768E-07
   10   -0.19434870E+03   -0.28421709E-13    0.12775600E-07
   11   -0.19434870E+03   -0.85265128E-13    0.18115829E-08

Total Energy:                     -192.3619260717 H        -5234.4343 eV
Extrapolated to 0K:               -192.3619260717 H        -5234.4343 eV
Total Mermin free energy:         -192.3619260717 H        -5234.4343 eV
Force related energy:             -192.3619260717 H        -5234.4343 eV

Volume:                              0.980395E+04 au^3   0.145280E+04 A^3
Pressure:                            0.308823E-04 au     0.908589E+09 Pa
>> Charges saved for restart in charges.bin

total energy  -1.9236193E+02 H       energy change -2.1709364E-03 H
gradient norm  3.4497194E-02 H/a0    max. gradient  8.3998703E-03 H/a0
step length    1.4126642E-01 a0      max. step      2.7576684E-02 a0

--------------------------------------------------------------------------------

***  Geometry step: 12

 iSCC Total electronic   Diff electronic      SCC error    
    1   -0.19434870E+03    0.00000000E+00    0.81273290E-02
    2   -0.19434480E+03    0.38998267E-02    0.46018344E-02
    3   -0.19434484E+03   -0.44782369E-04    0.11040217E-02
    4   -0.19434485E+03   -0.10037413E-04    0.14780991E-03
    5   -0.19434485E+03   -0.36341561E-06    0.43132987E-04
    6   -0.19434485E+03   -0.18972770E-07    0.17089783E-04
    7   -0.19434485E+03   -0.14765078E-09    0.17951426E-05
    8   -0.19434485E+03   -0.21088908E-10    0.29599148E-06
    9   -0.19434485E+03   -0.15631940E-11    0.56064246E-07
   10   -0.19434485E+03   -0.56843419E-13    0.67085999E-08

Total Energy:                     -192.3639140975 H        -5234.4884 eV
Extrapolated to 0K:               -192.3639140975 H        -5234.4884 eV
Total Mermin free energy:         -192.3639140975 H        -5234.4884 eV
Force related energy:             -192.3639140975 H        -5234.4884 eV

Volume:                              0.981874E+04 au^3   0.145499E+04 A^3
Pressure:                            0.270521E-04 au     0.795901E+09 Pa
>> Charges saved for restart in charges.bin

total energy  -1.9236391E+02 H       energy change -1.9880257E-03 H
gradient norm  3.3871005E-02 H/a0    max. gradient  1.2304283E-02 H/a0
step length    1.4691276E-01 a0      max. step      3.1966019E-02 a0

--------------------------------------------------------------------------------

***  Geometry step: 13

 iSCC Total electronic   Diff electronic      SCC error    
    1   -0.19434485E+03    0.00000000E+00    0.56947383E-02
    2   -0.19434060E+03    0.42525547E-02    0.32537352E-02
    3   -0.19434062E+03   -0.21058937E-04    0.79761376E-03
    4   -0.19434063E+03   -0.48409262E-05    0.10437075E-03
    5   -0.19434063E+03   -0.21673807E-06    0.42838927E-04
    6   -0.19434063E+03   -0.10920388E-07    0.12618297E-04
    7   -0.19434063E+03   -0.18852120E-09    0.14703851E-05
    8   -0.19434063E+03   -0.11453949E-10    0.27120697E-06
    9   -0.19434063E+03   -0.14779289E-11    0.56318817E-07
   10   -0.19434063E+03    0.56843419E-13    0.63509749E-08

Total Energy:                     -192.3653909161 H        -5234.5286 eV
Extrapolated to 0K:               -192.3653909161 H        -5234.5286 eV
Total Mermin free energy:         -192.3653909161 H        -5234.5286 eV
Force related energy:             -192.3653909161 H        -5234.5286 eV

Volume:                              0.983552E+04 au^3   0.145747E+04 A^3
Pressure:                            0.233920E-04 au     0.688215E+09 Pa
>> Charges saved for restart in charges.bin

total energy  -1.9236539E+02 H       energy change -1.4768187E-03 H
gradient norm  2.8663292E-02 H/a0    max. gradient  8.7765408E-03 H/a0
step length    1.2466441E-01 a0      max. step      2.5703015E-02 a0

--------------------------------------------------------------------------------

***  Geometry step: 14

 iSCC Total electronic   Diff electronic      SCC error    
    1   -0.19434063E+03    0.00000000E+00    0.64628133E-02
    2   -0.19433725E+03    0.33770512E-02    0.27989055E-02
    3   -0.19433727E+03   -0.25666984E-04    0.82778865E-03
    4   -0.19433728E+03   -0.50743847E-05    0.11584457E-03
    5   -0.19433728E+03   -0.14496698E-06    0.23295595E-04
    6   -0.19433728E+03   -0.11753428E-07    0.79944437E-05
    7   -0.19433728E+03   -0.23371172E-09    0.21462381E-05
    8   -0.19433728E+03   -0.10601298E-10    0.20171799E-06
    9   -0.19433728E+03   -0.90949470E-12    0.50731686E-07
   10   -0.19433728E+03   -0.85265128E-13    0.89487147E-08

Total Energy:                     -192.3666755358 H        -5234.5636 eV
Extrapolated to 0K:               -192.3666755358 H        -5234.5636 eV
Total Mermin free energy:         -192.3666755358 H        -5234.5636 eV
Force related energy:             -192.3666755358 H        -5234.5636 eV

Volume:                              0.985337E+04 au^3   0.146012E+04 A^3
Pressure:                            0.200507E-04 au     0.589911E+09 Pa
>> Charges saved for restart in charges.bin

total energy  -1.9236668E+02 H       energy change -1.2846197E-03 H
gradient norm  2.4667728E-02 H/a0    max. gradient  6.0273666E-03 H/a0
step length    1.2379700E-01 a0      max. step      2.8638751E-02 a0

--------------------------------------------------------------------------------

***  Geometry step: 15

 iSCC Total electronic   Diff electronic      SCC error    
    1   -0.19433728E+03    0.00000000E+00    0.56259117E-02
    2   -0.19433591E+03    0.13679535E-02    0.21992430E-02
    3   -0.19433594E+03   -0.27028966E-04    0.70529294E-03
    4   -0.19433594E+03   -0.53213923E-05    0.97286175E-04
    5   -0.19433594E+03   -0.97610183E-07    0.14222151E-04
    6   -0.19433594E+03   -0.98762314E-08    0.47579071E-05
    7   -0.19433594E+03   -0.30684078E-09    0.17044532E-05
    8   -0.19433594E+03   -0.12988721E-10    0.30724631E-06
    9   -0.19433594E+03   -0.10516032E-11    0.58124715E-07
   10   -0.19433594E+03   -0.28421709E-13    0.85201601E-08

Total Energy:                     -192.3677301525 H        -5234.5923 eV
Extrapolated to 0K:               -192.3677301525 H        -5234.5923 eV
Total Mermin free energy:         -192.3677301525 H        -5234.5923 eV
Force related energy:             -192.3677301525 H        -5234.5923 eV

Volume:                              0.986960E+04 au^3   0.146252E+04 A^3
Pressure:                            0.172310E-04 au     0.506954E+09 Pa
>> Charges saved for restart in charges.bin

total energy  -1.9236773E+02 H       energy change -1.0546166E-03 H
gradient norm  2.4551503E-02 H/a0    max. gradient  9.5438355E-03 H/a0
step length    1.1411723E-01 a0      max. step      2.4897973E-02 a0

--------------------------------------------------------------------------------

***  Geometry step: 16

 iSCC Total electronic   Diff electronic      SCC error    
    1   -0.19433594E+03    0.00000000E+00    0.52269926E-02
    2   -0.19433732E+03   -0.13764567E-02    0.29384798E-02
    3   -0.19433735E+03   -0.26992194E-04    0.74499742E-03
    4   -0.19433735E+03   -0.54154331E-05    0.11033915E-03
    5   -0.19433735E+03   -0.10200131E-06    0.35756762E-04
    6   -0.19433735E+03   -0.98202122E-08    0.10454540E-04
    7   -0.19433735E+03   -0.25360691E-09    0.27206295E-05
    8   -0.19433735E+03   -0.84412477E-11    0.37821494E-06
    9   -0.19433735E+03   -0.12221335E-11    0.79216169E-07
   10   -0.19433735E+03   -0.85265128E-13    0.68077632E-08

Total Energy:                     -192.3687276824 H        -5234.6194 eV
Extrapolated to 0K:               -192.3687276824 H        -5234.6194 eV
Total Mermin free energy:         -192.3687276824 H        -5234.6194 eV
Force related energy:             -192.3687276824 H        -5234.6194 eV

Volume:                              0.988614E+04 au^3   0.146497E+04 A^3
Pressure:                            0.160397E-04 au     0.471905E+09 Pa
>> Charges saved for restart in charges.bin

total energy  -1.9236873E+02 H       energy change -9.9752997E-04 H
gradient norm  2.4227672E-02 H/a0    max. gradient  8.5606719E-03 H/a0
step length    1.2593842E-01 a0      max. step      2.4452583E-02 a0

--------------------------------------------------------------------------------

***  Geometry step: 17

 iSCC Total electronic   Diff electronic      SCC error    
    1   -0.19433735E+03    0.00000000E+00    0.58220784E-02
    2   -0.19433695E+03    0.40120915E-03    0.33378902E-02
    3   -0.19433696E+03   -0.95579807E-05    0.65265284E-03
    4   -0.19433696E+03   -0.20336030E-05    0.77288103E-04
    5   -0.19433696E+03   -0.62264434E-07    0.29771472E-04
    6   -0.19433696E+03   -0.40782879E-08    0.54471533E-05
    7   -0.19433696E+03   -0.88249408E-10    0.97121495E-06
    8   -0.19433696E+03   -0.42064130E-11    0.25136962E-06
    9   -0.19433696E+03   -0.68212103E-12    0.50975260E-07
   10   -0.19433696E+03    0.28421709E-13    0.44260648E-08

Total Energy:                     -192.3695128248 H        -5234.6408 eV
Extrapolated to 0K:               -192.3695128248 H        -5234.6408 eV
Total Mermin free energy:         -192.3695128248 H        -5234.6408 eV
Force related energy:             -192.3695128248 H        -5234.6408 eV

Volume:                              0.990082E+04 au^3   0.146715E+04 A^3
Pressure:                            0.146705E-04 au     0.431620E+09 Pa
>> Charges saved for restart in charges.bin

total energy  -1.9236951E+02 H       energy change -7.8514235E-04 H
gradient norm  2.1807570E-02 H/a0    max. gradient  5.7632154E-03 H/a0
step length    1.0936646E-01 a0      max. step      2.0320179E-02 a0

--------------------------------------------------------------------------------

***  Geometry step: 18

 iSCC Total electronic   Diff electronic      SCC error    
    1   -0.19433696E+03    0.00000000E+00    0.50026030E-02
    2   -0.19433544E+03    0.15275460E-02    0.29105212E-02
    3   -0.19433545E+03   -0.99663718E-05    0.61423724E-03
    4   -0.19433545E+03   -0.21406210E-05    0.73767240E-04
    5   -0.19433545E+03   -0.61939943E-07    0.29323280E-04
    6   -0.19433545E+03   -0.37489656E-08    0.61044138E-05
    7   -0.19433545E+03   -0.64233063E-10    0.97163459E-06
    8   -0.19433545E+03   -0.33821834E-11    0.26109249E-06
    9   -0.19433545E+03   -0.68212103E-12    0.53812160E-07
   10   -0.19433545E+03    0.28421709E-13    0.44741455E-08

Total Energy:                     -192.3702707042 H        -5234.6614 eV
Extrapolated to 0K:               -192.3702707042 H        -5234.6614 eV
Total Mermin free energy:         -192.3702707042 H        -5234.6614 eV
Force related energy:             -192.3702707042 H        -5234.6614 eV

Volume:                              0.991601E+04 au^3   0.146940E+04 A^3
Pressure:                            0.129052E-04 au     0.379685E+09 Pa
>> Charges saved for restart in charges.bin

total energy  -1.9237027E+02 H       energy change -7.5787944E-04 H
gradient norm  1.9924972E-02 H/a0    max. gradient  5.7588617E-03 H/a0
step length    1.1372788E-01 a0      max. step      2.1481163E-02 a0

--------------------------------------------------------------------------------

***  Geometry step: 19

 iSCC Total electronic   Diff electronic      SCC error    
    1   -0.19433545E+03    0.00000000E+00    0.41137262E-02
    2   -0.19433429E+03    0.11557058E-02    0.15948188E-02
    3   -0.19433430E+03   -0.11353183E-04    0.51050453E-03
    4   -0.19433431E+03   -0.23589774E-05    0.58776182E-04
    5   -0.19433431E+03   -0.42779988E-07    0.14996949E-04
    6   -0.19433431E+03   -0.38104702E-08    0.51299656E-05
    7   -0.19433431E+03   -0.60026650E-10    0.11744215E-05
    8   -0.19433431E+03   -0.25295321E-11    0.16160463E-06
    9   -0.19433431E+03   -0.39790393E-12    0.55370362E-07
   10   -0.19433431E+03    0.28421709E-13    0.56474310E-08

Total Energy:                     -192.3709291093 H        -5234.6793 eV
Extrapolated to 0K:               -192.3709291093 H        -5234.6793 eV
Total Mermin free energy:         -192.3709291093 H        -5234.6793 eV
Force related energy:             -192.3709291093 H        -5234.6793 eV

Volume:                              0.992960E+04 au^3   0.147142E+04 A^3
Pressure:                            0.116256E-04 au     0.342038E+09 Pa
>> Charges saved for restart in charges.bin

total energy  -1.9237093E+02 H       energy change -6.5840504E-04 H
gradient norm  2.0009029E-02 H/a0    max. gradient  7.3030594E-03 H/a0
step length    1.0354266E-01 a0      max. step      1.8108330E-02 a0

--------------------------------------------------------------------------------

***  Geometry step: 20

 iSCC Total electronic   Diff electronic      SCC error    
    1   -0.19433431E+03    0.00000000E+00    0.46553621E-02
    2   -0.19433096E+03    0.33491759E-02    0.20763366E-02
    3   -0.19433097E+03   -0.13007297E-04    0.62880312E-03
    4   -0.19433097E+03   -0.26299548E-05    0.68128251E-04
    5   -0.19433097E+03   -0.53128758E-07    0.14424875E-04
    6   -0.19433097E+03   -0.41187604E-08    0.46479285E-05
    7   -0.19433097E+03   -0.58378191E-10    0.11031542E-05
    8   -0.19433097E+03   -0.25863756E-11    0.18004196E-06
    9   -0.19433097E+03   -0.48316906E-12    0.53275938E-07
   10   -0.19433097E+03   -0.28421709E-13    0.68760442E-08

Total Energy:                     -192.3715677605 H        -5234.6967 eV
Extrapolated to 0K:               -192.3715677605 H        -5234.6967 eV
Total Mermin free energy:         -192.3715677605 H        -5234.6967 eV
Force related energy:             -192.3715677605 H        -5234.6967 eV

Volume:                              0.994692E+04 au^3   0.147398E+04 A^3
Pressure:                            0.953538E-05 au     0.280540E+09 Pa
>> Charges saved for restart in charges.bin

total energy  -1.9237157E+02 H       energy change -6.3865120E-04 H
gradient norm  1.9779658E-02 H/a0    max. gradient  6.0358554E-03 H/a0
step length    1.1491624E-01 a0      max. step      1.8302693E-02 a0

--------------------------------------------------------------------------------

***  Geometry step: 21

 iSCC Total electronic   Diff electronic      SCC error    
    1   -0.19433097E+03    0.00000000E+00    0.46065083E-02
    2   -0.19432761E+03    0.33583669E-02    0.26535804E-02
    3   -0.19432762E+03   -0.83836479E-05    0.51518835E-03
    4   -0.19432762E+03   -0.17789739E-05    0.56988460E-04
    5   -0.19432762E+03   -0.62724808E-07    0.26561499E-04
    6   -0.19432762E+03   -0.27458498E-08    0.52888280E-05
    7   -0.19432762E+03   -0.67387873E-10    0.73201656E-06
    8   -0.19432762E+03   -0.22453150E-11    0.22874411E-06
    9   -0.19432762E+03   -0.54001248E-12    0.39330182E-07
   10   -0.19432762E+03    0.00000000E+00    0.41801056E-08

Total Energy:                     -192.3721175009 H        -5234.7117 eV
Extrapolated to 0K:               -192.3721175009 H        -5234.7117 eV
Total Mermin free energy:         -192.3721175009 H        -5234.7117 eV
Force related energy:             -192.3721175009 H        -5234.7117 eV

Volume:                              0.996341E+04 au^3   0.147643E+04 A^3
Pressure:                            0.710961E-05 au     0.209172E+09 Pa
>> Charges saved for restart in charges.bin

total energy  -1.9237212E+02 H       energy change -5.4974048E-04 H
gradient norm  1.6926421E-02 H/a0    max. gradient  3.9626783E-03 H/a0
step length    1.0679849E-01 a0      max. step      2.0528355E-02 a0

--------------------------------------------------------------------------------

***  Geometry step: 22

 iSCC Total electronic   Diff electronic      SCC error    
    1   -0.19432762E+03    0.00000000E+00    0.50645893E-02
    2   -0.19432576E+03    0.18603096E-02    0.29260306E-02
    3   -0.19432577E+03   -0.10109374E-04    0.59390567E-03
    4   -0.19432578E+03   -0.22870318E-05    0.60890059E-04
    5   -0.19432578E+03   -0.61785954E-07    0.25516222E-04
    6   -0.19432578E+03   -0.25094096E-08    0.51390933E-05
    7   -0.19432578E+03   -0.64346750E-10    0.81703156E-06
    8   -0.19432578E+03   -0.32400749E-11    0.19091203E-06
    9   -0.19432578E+03   -0.59685590E-12    0.28618435E-07
   10   -0.19432578E+03    0.00000000E+00    0.47294675E-08

Total Energy:                     -192.3725642152 H        -5234.7238 eV
Extrapolated to 0K:               -192.3725642152 H        -5234.7238 eV
Total Mermin free energy:         -192.3725642152 H        -5234.7238 eV
Force related energy:             -192.3725642152 H        -5234.7238 eV

Volume:                              0.997816E+04 au^3   0.147861E+04 A^3
Pressure:                            0.521086E-05 au     0.153309E+09 Pa
>> Charges saved for restart in charges.bin

total energy  -1.9237256E+02 H       energy change -4.4671423E-04 H
gradient norm  1.4283452E-02 H/a0    max. gradient  3.0224172E-03 H/a0
step length    9.9430006E-02 a0      max. step      2.1501905E-02 a0

--------------------------------------------------------------------------------

***  Geometry step: 23

 iSCC Total electronic   Diff electronic      SCC error    
    1   -0.19432578E+03    0.00000000E+00    0.32980454E-02
    2   -0.19432734E+03   -0.15616252E-02    0.15510620E-02
    3   -0.19432735E+03   -0.72788233E-05    0.32984118E-03
    4   -0.19432735E+03   -0.15900225E-05    0.41951460E-04
    5   -0.19432735E+03   -0.23424434E-07    0.12006260E-04
    6   -0.19432735E+03   -0.14117347E-08    0.27836264E-05
    7   -0.19432735E+03   -0.32798653E-10    0.61808631E-06
    8   -0.19432735E+03   -0.10231815E-11    0.12645637E-06
    9   -0.19432735E+03   -0.11368684E-12    0.25361952E-07
   10   -0.19432735E+03   -0.56843419E-13    0.32556260E-08

Total Energy:                     -192.3728418606 H        -5234.7314 eV
Extrapolated to 0K:               -192.3728418606 H        -5234.7314 eV
Total Mermin free energy:         -192.3728418606 H        -5234.7314 eV
Force related energy:             -192.3728418606 H        -5234.7314 eV

Volume:                              0.998637E+04 au^3   0.147983E+04 A^3
Pressure:                            0.480179E-05 au     0.141273E+09 Pa
>> Charges saved for restart in charges.bin

total energy  -1.9237284E+02 H       energy change -2.7764542E-04 H
gradient norm  1.2743974E-02 H/a0    max. gradient  4.5429154E-03 H/a0
step length    6.5682616E-02 a0      max. step      1.3657946E-02 a0

--------------------------------------------------------------------------------

***  Geometry step: 24

 iSCC Total electronic   Diff electronic      SCC error    
    1   -0.19432735E+03    0.00000000E+00    0.28713158E-02
    2   -0.19432905E+03   -0.17017726E-02    0.13670117E-02
    3   -0.19432905E+03   -0.56112326E-05    0.28515500E-03
    4   -0.19432906E+03   -0.12450954E-05    0.44677165E-04
    5   -0.19432906E+03   -0.15565718E-07    0.10712575E-04
    6   -0.19432906E+03   -0.10678320E-08    0.27804732E-05
    7   -0.19432906E+03   -0.20321522E-10    0.59249898E-06
    8   -0.19432906E+03   -0.76738615E-12    0.12293967E-06
    9   -0.19432906E+03   -0.14210855E-12    0.28047349E-07
   10   -0.19432906E+03    0.56843419E-13    0.29583149E-08

Total Energy:                     -192.3730496300 H        -5234.7370 eV
Extrapolated to 0K:               -192.3730496300 H        -5234.7370 eV
Total Mermin free energy:         -192.3730496300 H        -5234.7370 eV
Force related energy:             -192.3730496300 H        -5234.7370 eV

Volume:                              0.999241E+04 au^3   0.148072E+04 A^3
Pressure:                            0.486797E-05 au     0.143221E+09 Pa
>> Charges saved for restart in charges.bin

total energy  -1.9237305E+02 H       energy change -2.0776938E-04 H
gradient norm  1.0820530E-02 H/a0    max. gradient  4.1804305E-03 H/a0
step length    4.8844173E-02 a0      max. step      9.0471659E-03 a0

--------------------------------------------------------------------------------

***  Geometry step: 25

 iSCC Total electronic   Diff electronic      SCC error    
    1   -0.19432906E+03    0.00000000E+00    0.26928334E-02
    2   -0.19433041E+03   -0.13514478E-02    0.14886737E-02
    3   -0.19433041E+03   -0.29042842E-05    0.26996966E-03
    4   -0.19433041E+03   -0.68067854E-06    0.31945013E-04
    5   -0.19433041E+03   -0.14254880E-07    0.11417827E-04
    6   -0.19433041E+03   -0.54217253E-09    0.15900185E-05
    7   -0.19433041E+03   -0.12022383E-10    0.26594472E-06
    8   -0.19433041E+03   -0.34106051E-12    0.81783716E-07
    9   -0.19433041E+03   -0.19895197E-12    0.12405362E-07
   10   -0.19433041E+03    0.28421709E-13    0.13354535E-08

Total Energy:                     -192.3732118670 H        -5234.7414 eV
Extrapolated to 0K:               -192.3732118670 H        -5234.7414 eV
Total Mermin free energy:         -192.3732118670 H        -5234.7414 eV
Force related energy:             -192.3732118670 H        -5234.7414 eV

Volume:                              0.999749E+04 au^3   0.148148E+04 A^3
Pressure:                            0.508498E-05 au     0.149605E+09 Pa
>> Charges saved for restart in charges.bin

total energy  -1.9237321E+02 H       energy change -1.6223703E-04 H
gradient norm  9.8670630E-03 H/a0    max. gradient  1.6767636E-03 H/a0
step length    4.0823780E-02 a0      max. step      7.9730148E-03 a0

--------------------------------------------------------------------------------

***  Geometry step: 26

 iSCC Total electronic   Diff electronic      SCC error    
    1   -0.19433041E+03    0.00000000E+00    0.31826987E-02
    2   -0.19432953E+03    0.88426196E-03    0.17839360E-02
    3   -0.19432953E+03   -0.25522717E-05    0.28315271E-03
    4   -0.19432953E+03   -0.61044537E-06    0.41374118E-04
    5   -0.19432953E+03   -0.20021872E-07    0.13262034E-04
    6   -0.19432953E+03   -0.65804784E-09    0.19052712E-05
    7   -0.19432953E+03   -0.16655122E-10    0.37082985E-06
    8   -0.19432953E+03   -0.85265128E-12    0.10688910E-06
    9   -0.19432953E+03    0.00000000E+00    0.19778155E-07
   10   -0.19432953E+03   -0.56843419E-13    0.27301681E-08

Total Energy:                     -192.3733858102 H        -5234.7462 eV
Extrapolated to 0K:               -192.3733858102 H        -5234.7462 eV
Total Mermin free energy:         -192.3733858102 H        -5234.7462 eV
Force related energy:             -192.3733858102 H        -5234.7462 eV

Volume:                              0.100057E+05 au^3   0.148269E+04 A^3
Pressure:                            0.418187E-05 au     0.123035E+09 Pa
>> Charges saved for restart in charges.bin

total energy  -1.9237339E+02 H       energy change -1.7394317E-04 H
gradient norm  1.0132559E-02 H/a0    max. gradient  1.8028547E-03 H/a0
step length    5.0948271E-02 a0      max. step      1.0113129E-02 a0

--------------------------------------------------------------------------------

***  Geometry step: 27

 iSCC Total electronic   Diff electronic      SCC error    
    1   -0.19432953E+03    0.00000000E+00    0.28433132E-02
    2   -0.19432845E+03    0.10769275E-02    0.15967978E-02
    3   -0.19432846E+03   -0.33472918E-05    0.32822436E-03
    4   -0.19432846E+03   -0.77071061E-06    0.45152294E-04
    5   -0.19432846E+03   -0.22270086E-07    0.13470379E-04
    6   -0.19432846E+03   -0.79194251E-09    0.22534649E-05
    7   -0.19432846E+03   -0.13443469E-10    0.40151346E-06
    8   -0.19432846E+03   -0.73896445E-12    0.12072787E-06
    9   -0.19432846E+03   -0.56843419E-13    0.15713276E-07
   10   -0.19432846E+03   -0.56843419E-13    0.24197719E-08

Total Energy:                     -192.3735734127 H        -5234.7513 eV
Extrapolated to 0K:               -192.3735734127 H        -5234.7513 eV
Total Mermin free energy:         -192.3735734127 H        -5234.7513 eV
Force related energy:             -192.3735734127 H        -5234.7513 eV

Volume:                              0.100160E+05 au^3   0.148421E+04 A^3
Pressure:                            0.305111E-05 au     0.897666E+08 Pa
>> Charges saved for restart in charges.bin

total energy  -1.9237357E+02 H       energy change -1.8760256E-04 H
gradient norm  1.1171445E-02 H/a0    max. gradient  3.0911198E-03 H/a0
step length    6.3684311E-02 a0      max. step      1.1370309E-02 a0

--------------------------------------------------------------------------------

***  Geometry step: 28

 iSCC Total electronic   Diff electronic      SCC error    
    1   -0.19432846E+03    0.00000000E+00    0.21024597E-02
    2   -0.19432702E+03    0.14381722E-02    0.10403304E-02
    3   -0.19432702E+03   -0.40616533E-05    0.31816281E-03
    4   -0.19432702E+03   -0.82594593E-06    0.30466901E-04
    5   -0.19432702E+03   -0.20382600E-07    0.11439323E-04
    6   -0.19432702E+03   -0.93376684E-09    0.24403138E-05
    7   -0.19432702E+03   -0.11510792E-10    0.40548903E-06
    8   -0.19432702E+03   -0.65369932E-12    0.14106628E-06
    9   -0.19432702E+03   -0.14210855E-12    0.28769657E-07
   10   -0.19432702E+03    0.00000000E+00    0.24368512E-08

Total Energy:                     -192.3737699204 H        -5234.7566 eV
Extrapolated to 0K:               -192.3737699204 H        -5234.7566 eV
Total Mermin free energy:         -192.3737699204 H        -5234.7566 eV
Force related energy:             -192.3737699204 H        -5234.7566 eV

Volume:                              0.100276E+05 au^3   0.148594E+04 A^3
Pressure:                            0.156208E-05 au     0.459581E+08 Pa
>> Charges saved for restart in charges.bin

total energy  -1.9237377E+02 H       energy change -1.9650764E-04 H
gradient norm  1.1172342E-02 H/a0    max. gradient  3.2673640E-03 H/a0
step length    7.3617576E-02 a0      max. step      1.3735804E-02 a0

--------------------------------------------------------------------------------

***  Geometry step: 29

 iSCC Total electronic   Diff electronic      SCC error    
    1   -0.19432702E+03    0.00000000E+00    0.21749353E-02
    2   -0.19432687E+03    0.15539932E-03    0.97255515E-03
    3   -0.19432687E+03   -0.43029858E-05    0.34198750E-03
    4   -0.19432687E+03   -0.83205475E-06    0.34730288E-04
    5   -0.19432687E+03   -0.16683600E-07    0.11014432E-04
    6   -0.19432687E+03   -0.12153691E-08    0.26016109E-05
    7   -0.19432687E+03   -0.21486812E-10    0.55054712E-06
    8   -0.19432687E+03   -0.51159077E-12    0.14464685E-06
    9   -0.19432687E+03   -0.19895197E-12    0.30453709E-07
   10   -0.19432687E+03    0.56843419E-13    0.28611726E-08

Total Energy:                     -192.3739723442 H        -5234.7621 eV
Extrapolated to 0K:               -192.3739723442 H        -5234.7621 eV
Total Mermin free energy:         -192.3739723442 H        -5234.7621 eV
Force related energy:             -192.3739723442 H        -5234.7621 eV

Volume:                              0.100383E+05 au^3   0.148752E+04 A^3
Pressure:                            0.640334E-06 au     0.188393E+08 Pa
>> Charges saved for restart in charges.bin

total energy  -1.9237397E+02 H       energy change -2.0242380E-04 H
gradient norm  1.0667593E-02 H/a0    max. gradient  2.3456655E-03 H/a0
step length    8.1015353E-02 a0      max. step      1.5702158E-02 a0

--------------------------------------------------------------------------------

***  Geometry step: 30

 iSCC Total electronic   Diff electronic      SCC error    
    1   -0.19432687E+03    0.00000000E+00    0.21588829E-02
    2   -0.19432749E+03   -0.62079487E-03    0.80616551E-03
    3   -0.19432750E+03   -0.38097762E-05    0.26888951E-03
    4   -0.19432750E+03   -0.74809500E-06    0.31242492E-04
    5   -0.19432750E+03   -0.14698998E-07    0.99891612E-05
    6   -0.19432750E+03   -0.11426664E-08    0.23424018E-05
    7   -0.19432750E+03   -0.20719426E-10    0.60844601E-06
    8   -0.19432750E+03   -0.51159077E-12    0.11948480E-06
    9   -0.19432750E+03   -0.56843419E-13    0.23868918E-07
   10   -0.19432750E+03   -0.56843419E-13    0.29086555E-08

Total Energy:                     -192.3741711635 H        -5234.7675 eV
Extrapolated to 0K:               -192.3741711635 H        -5234.7675 eV
Total Mermin free energy:         -192.3741711635 H        -5234.7675 eV
Force related energy:             -192.3741711635 H        -5234.7675 eV

Volume:                              0.100473E+05 au^3   0.148886E+04 A^3
Pressure:                           -0.569619E-07 au    -0.167588E+07 Pa
>> Charges saved for restart in charges.bin

total energy  -1.9237417E+02 H       energy change -1.9881932E-04 H
gradient norm  1.0327842E-02 H/a0    max. gradient  2.9242887E-03 H/a0
step length    8.3666470E-02 a0      max. step      1.6068738E-02 a0

--------------------------------------------------------------------------------

***  Geometry step: 31

 iSCC Total electronic   Diff electronic      SCC error    
    1   -0.19432750E+03    0.00000000E+00    0.16614730E-02
    2   -0.19432963E+03   -0.21339339E-02    0.71029971E-03
    3   -0.19432964E+03   -0.33795024E-05    0.25550762E-03
    4   -0.19432964E+03   -0.68683940E-06    0.38338113E-04
    5   -0.19432964E+03   -0.10335924E-07    0.75394736E-05
    6   -0.19432964E+03   -0.97981001E-09    0.16757288E-05
    7   -0.19432964E+03   -0.18360424E-10    0.42770611E-06
    8   -0.19432964E+03   -0.34106051E-12    0.97999729E-07
    9   -0.19432964E+03   -0.11368684E-12    0.20553253E-07
   10   -0.19432964E+03    0.28421709E-13    0.34854284E-08

Total Energy:                     -192.3743628807 H        -5234.7728 eV
Extrapolated to 0K:               -192.3743628807 H        -5234.7728 eV
Total Mermin free energy:         -192.3743628807 H        -5234.7728 eV
Force related energy:             -192.3743628807 H        -5234.7728 eV

Volume:                              0.100528E+05 au^3   0.148967E+04 A^3
Pressure:                           -0.191529E-06 au    -0.563498E+07 Pa
>> Charges saved for restart in charges.bin

total energy  -1.9237436E+02 H       energy change -1.9171725E-04 H
gradient norm  1.0630035E-02 H/a0    max. gradient  2.9240392E-03 H/a0
step length    7.9536726E-02 a0      max. step      1.4969663E-02 a0

--------------------------------------------------------------------------------

***  Geometry step: 32

 iSCC Total electronic   Diff electronic      SCC error    
    1   -0.19432964E+03    0.00000000E+00    0.17756793E-02
    2   -0.19433340E+03   -0.37602292E-02    0.78324425E-03
    3   -0.19433340E+03   -0.44184789E-05    0.24215848E-03
    4   -0.19433340E+03   -0.91007189E-06    0.35806199E-04
    5   -0.19433340E+03   -0.94688346E-08    0.63511833E-05
    6   -0.19433340E+03   -0.10000463E-08    0.18476010E-05
    7   -0.19433340E+03   -0.16569857E-10    0.56694667E-06
    8   -0.19433340E+03   -0.31263880E-12    0.87140726E-07
    9   -0.19433340E+03   -0.56843419E-13    0.23813605E-07
   10   -0.19433340E+03    0.00000000E+00    0.28937244E-08

Total Energy:                     -192.3745595774 H        -5234.7781 eV
Extrapolated to 0K:               -192.3745595774 H        -5234.7781 eV
Total Mermin free energy:         -192.3745595774 H        -5234.7781 eV
Force related energy:             -192.3745595774 H        -5234.7781 eV

Volume:                              0.100554E+05 au^3   0.149006E+04 A^3
Pressure:                            0.521970E-06 au     0.153569E+08 Pa
>> Charges saved for restart in charges.bin

total energy  -1.9237456E+02 H       energy change -1.9669663E-04 H
gradient norm  1.1014112E-02 H/a0    max. gradient  2.6638031E-03 H/a0
step length    8.5400693E-02 a0      max. step      1.5955738E-02 a0

--------------------------------------------------------------------------------

***  Geometry step: 33

 iSCC Total electronic   Diff electronic      SCC error    
    1   -0.19433340E+03    0.00000000E+00    0.18725509E-02
    2   -0.19433651E+03   -0.31084764E-02    0.78332808E-03
    3   -0.19433651E+03   -0.30483888E-05    0.24967729E-03
    4   -0.19433651E+03   -0.64394069E-06    0.31111388E-04
    5   -0.19433651E+03   -0.81055020E-08    0.51747827E-05
    6   -0.19433651E+03   -0.80041218E-09    0.15004578E-05
    7   -0.19433651E+03   -0.15404567E-10    0.48356829E-06
    8   -0.19433651E+03   -0.34106051E-12    0.59561293E-07
    9   -0.19433651E+03    0.00000000E+00    0.16203760E-07
   10   -0.19433651E+03    0.00000000E+00    0.16088717E-08

Total Energy:                     -192.3747439238 H        -5234.7831 eV
Extrapolated to 0K:               -192.3747439238 H        -5234.7831 eV
Total Mermin free energy:         -192.3747439238 H        -5234.7831 eV
Force related energy:             -192.3747439238 H        -5234.7831 eV

Volume:                              0.100562E+05 au^3   0.149017E+04 A^3
Pressure:                            0.138513E-05 au     0.407519E+08 Pa
>> Charges saved for restart in charges.bin

total energy  -1.9237474E+02 H       energy change -1.8434645E-04 H
gradient norm  1.0756553E-02 H/a0    max. gradient  2.1814759E-03 H/a0
step length    7.8314838E-02 a0      max. step      1.5153252E-02 a0

--------------------------------------------------------------------------------

***  Geometry step: 34

 iSCC Total electronic   Diff electronic      SCC error    
    1   -0.19433651E+03    0.00000000E+00    0.19521001E-02
    2   -0.19433868E+03   -0.21671254E-02    0.12219652E-02
    3   -0.19433869E+03   -0.33869043E-05    0.37524024E-03
    4   -0.19433869E+03   -0.76923749E-06    0.38459494E-04
    5   -0.19433869E+03   -0.15258820E-07    0.53990900E-05
    6   -0.19433869E+03   -0.10825545E-08    0.15458459E-05
    7   -0.19433869E+03   -0.16626700E-10    0.53493504E-06
    8   -0.19433869E+03   -0.28421709E-12    0.93028011E-07
    9   -0.19433869E+03   -0.28421709E-13    0.19796806E-07
   10   -0.19433869E+03   -0.28421709E-13    0.21881656E-08

Total Energy:                     -192.3749470023 H        -5234.7887 eV
Extrapolated to 0K:               -192.3749470023 H        -5234.7887 eV
Total Mermin free energy:         -192.3749470023 H        -5234.7887 eV
Force related energy:             -192.3749470023 H        -5234.7887 eV

Volume:                              0.100565E+05 au^3   0.149023E+04 A^3
Pressure:                            0.211075E-05 au     0.621004E+08 Pa
>> Charges saved for restart in charges.bin

total energy  -1.9237495E+02 H       energy change -2.0307845E-04 H
gradient norm  1.0694492E-02 H/a0    max. gradient  2.8763785E-03 H/a0
step length    8.9883254E-02 a0      max. step      1.7727812E-02 a0

--------------------------------------------------------------------------------

***  Geometry step: 35

 iSCC Total electronic   Diff electronic      SCC error    
    1   -0.19433869E+03    0.00000000E+00    0.20137123E-02
    2   -0.19433942E+03   -0.73263185E-03    0.12557712E-02
    3   -0.19433942E+03   -0.23997421E-05    0.34268938E-03
    4   -0.19433942E+03   -0.55421629E-06    0.29716509E-04
    5   -0.19433942E+03   -0.18459019E-07    0.41346148E-05
    6   -0.19433942E+03   -0.77048412E-09    0.15572103E-05
    7   -0.19433942E+03   -0.10089707E-10    0.50141432E-06
    8   -0.19433942E+03   -0.36948222E-12    0.54260776E-07
    9   -0.19433942E+03    0.28421709E-13    0.10725731E-07
   10   -0.19433942E+03    0.00000000E+00    0.18486341E-08

Total Energy:                     -192.3751388999 H        -5234.7939 eV
Extrapolated to 0K:               -192.3751388999 H        -5234.7939 eV
Total Mermin free energy:         -192.3751388999 H        -5234.7939 eV
Force related energy:             -192.3751388999 H        -5234.7939 eV

Volume:                              0.100570E+05 au^3   0.149030E+04 A^3
Pressure:                            0.238962E-05 au     0.703050E+08 Pa
>> Charges saved for restart in charges.bin

total energy  -1.9237514E+02 H       energy change -1.9189763E-04 H
gradient norm  1.1073077E-02 H/a0    max. gradient  3.0368529E-03 H/a0
step length    8.6099406E-02 a0      max. step      1.6996021E-02 a0

--------------------------------------------------------------------------------

***  Geometry step: 36

 iSCC Total electronic   Diff electronic      SCC error    
    1   -0.19433942E+03    0.00000000E+00    0.22892200E-02
    2   -0.19433948E+03   -0.61128774E-04    0.14260335E-02
    3   -0.19433949E+03   -0.44495196E-05    0.38517580E-03
    4   -0.19433949E+03   -0.10391454E-05    0.48330265E-04
    5   -0.19433949E+03   -0.34569553E-07    0.69346447E-05
    6   -0.19433949E+03   -0.13333477E-08    0.22764782E-05
    7   -0.19433949E+03   -0.23163693E-10    0.63914783E-06
    8   -0.19433949E+03   -0.10800250E-11    0.11691499E-06
    9   -0.19433949E+03   -0.11368684E-12    0.33743796E-07
   10   -0.19433949E+03   -0.56843419E-13    0.44865280E-08

Total Energy:                     -192.3753603798 H        -5234.7999 eV
Extrapolated to 0K:               -192.3753603798 H        -5234.7999 eV
Total Mermin free energy:         -192.3753603798 H        -5234.7999 eV
Force related energy:             -192.3753603798 H        -5234.7999 eV

Volume:                              0.100583E+05 au^3   0.149048E+04 A^3
Pressure:                            0.229627E-05 au     0.675585E+08 Pa
>> Charges saved for restart in charges.bin

total energy  -1.9237536E+02 H       energy change -2.2147996E-04 H
gradient norm  1.0544134E-02 H/a0    max. gradient  3.4043368E-03 H/a0
step length    1.0951499E-01 a0      max. step      2.1515838E-02 a0

--------------------------------------------------------------------------------

***  Geometry step: 37

 iSCC Total electronic   Diff electronic      SCC error    
    1   -0.19433949E+03    0.00000000E+00    0.18109429E-02
    2   -0.19434012E+03   -0.63430084E-03    0.10078265E-02
    3   -0.19434013E+03   -0.31414079E-05    0.31584872E-03
    4   -0.19434013E+03   -0.72852703E-06    0.27491427E-04
    5   -0.19434013E+03   -0.18486617E-07    0.77609006E-05
    6   -0.19434013E+03   -0.72037665E-09    0.20690209E-05
    7   -0.19434013E+03   -0.13329782E-10    0.40439908E-06
    8   -0.19434013E+03   -0.48316906E-12    0.92244949E-07
    9   -0.19434013E+03   -0.28421709E-13    0.21022470E-07
   10   -0.19434013E+03    0.00000000E+00    0.18743478E-08

Total Energy:                     -192.3755083600 H        -5234.8039 eV
Extrapolated to 0K:               -192.3755083600 H        -5234.8039 eV
Total Mermin free energy:         -192.3755083600 H        -5234.8039 eV
Force related energy:             -192.3755083600 H        -5234.8039 eV

Volume:                              0.100593E+05 au^3   0.149064E+04 A^3
Pressure:                            0.238891E-05 au     0.702841E+08 Pa
>> Charges saved for restart in charges.bin

total energy  -1.9237551E+02 H       energy change -1.4798019E-04 H
gradient norm  8.8692300E-03 H/a0    max. gradient  2.2255860E-03 H/a0
step length    8.3929511E-02 a0      max. step      1.6347875E-02 a0

--------------------------------------------------------------------------------

***  Geometry step: 38

 iSCC Total electronic   Diff electronic      SCC error    
    1   -0.19434013E+03    0.00000000E+00    0.12567395E-02
    2   -0.19434098E+03   -0.84999541E-03    0.65787239E-03
    3   -0.19434098E+03   -0.16890098E-05    0.18961879E-03
    4   -0.19434098E+03   -0.38480334E-06    0.28405975E-04
    5   -0.19434098E+03   -0.71842976E-08    0.60549413E-05
    6   -0.19434098E+03   -0.50147264E-09    0.14139044E-05
    7   -0.19434098E+03   -0.10402346E-10    0.31747442E-06
    8   -0.19434098E+03   -0.25579538E-12    0.64576396E-07
    9   -0.19434098E+03   -0.56843419E-13    0.14084405E-07
   10   -0.19434098E+03    0.56843419E-13    0.14255566E-08

Total Energy:                     -192.3756210160 H        -5234.8070 eV
Extrapolated to 0K:               -192.3756210160 H        -5234.8070 eV
Total Mermin free energy:         -192.3756210160 H        -5234.8070 eV
Force related energy:             -192.3756210160 H        -5234.8070 eV

Volume:                              0.100605E+05 au^3   0.149082E+04 A^3
Pressure:                            0.247246E-05 au     0.727423E+08 Pa
>> Charges saved for restart in charges.bin

total energy  -1.9237562E+02 H       energy change -1.1265598E-04 H
gradient norm  7.5470530E-03 H/a0    max. gradient  1.5731028E-03 H/a0
step length    5.9704940E-02 a0      max. step      1.1421945E-02 a0

--------------------------------------------------------------------------------

***  Geometry step: 39

 iSCC Total electronic   Diff electronic      SCC error    
    1   -0.19434098E+03    0.00000000E+00    0.12578592E-02
    2   -0.19434248E+03   -0.15061357E-02    0.64020818E-03
    3   -0.19434249E+03   -0.21640251E-05    0.21608599E-03
    4   -0.19434249E+03   -0.49297478E-06    0.40916258E-04
    5   -0.19434249E+03   -0.67523160E-08    0.58849707E-05
    6   -0.19434249E+03   -0.59492322E-09    0.12206384E-05
    7   -0.19434249E+03   -0.17337243E-10    0.32418032E-06
    8   -0.19434249E+03   -0.28421709E-12    0.65496637E-07
    9   -0.19434249E+03   -0.85265128E-13    0.13029323E-07
   10   -0.19434249E+03    0.56843419E-13    0.15569102E-08

Total Energy:                     -192.3757283251 H        -5234.8099 eV
Extrapolated to 0K:               -192.3757283251 H        -5234.8099 eV
Total Mermin free energy:         -192.3757283251 H        -5234.8099 eV
Force related energy:             -192.3757283251 H        -5234.8099 eV

Volume:                              0.100621E+05 au^3   0.149104E+04 A^3
Pressure:                            0.268601E-05 au     0.790252E+08 Pa
>> Charges saved for restart in charges.bin

total energy  -1.9237573E+02 H       energy change -1.0730906E-04 H
gradient norm  7.8081949E-03 H/a0    max. gradient  1.5970768E-03 H/a0
step length    5.9925713E-02 a0      max. step      1.1729335E-02 a0

--------------------------------------------------------------------------------

***  Geometry step: 40

 iSCC Total electronic   Diff electronic      SCC error    
    1   -0.19434249E+03    0.00000000E+00    0.11510411E-02
    2   -0.19434362E+03   -0.11284368E-02    0.48145727E-03
    3   -0.19434362E+03   -0.12279082E-05    0.14209482E-03
    4   -0.19434362E+03   -0.27072596E-06    0.30648997E-04
    5   -0.19434362E+03   -0.49532503E-08    0.36114121E-05
    6   -0.19434362E+03   -0.41171688E-09    0.61996581E-06
    7   -0.19434362E+03   -0.16001422E-10    0.21169404E-06
    8   -0.19434362E+03   -0.17053026E-12    0.47496640E-07
    9   -0.19434362E+03    0.00000000E+00    0.86187311E-08

Total Energy:                     -192.3758162071 H        -5234.8123 eV
Extrapolated to 0K:               -192.3758162071 H        -5234.8123 eV
Total Mermin free energy:         -192.3758162071 H        -5234.8123 eV
Force related energy:             -192.3758162071 H        -5234.8123 eV

Volume:                              0.100641E+05 au^3   0.149134E+04 A^3
Pressure:                            0.276319E-05 au     0.812960E+08 Pa
>> Charges saved for restart in charges.bin

total energy  -1.9237582E+02 H       energy change -8.7882000E-05 H
gradient norm  8.0368769E-03 H/a0    max. gradient  2.0161232E-03 H/a0
step length    4.9188530E-02 a0      max. step      9.9295511E-03 a0

--------------------------------------------------------------------------------

***  Geometry step: 41

 iSCC Total electronic   Diff electronic      SCC error    
    1   -0.19434362E+03    0.00000000E+00    0.15814716E-02
    2   -0.19434485E+03   -0.12350045E-02    0.69663586E-03
    3   -0.19434485E+03   -0.21203387E-05    0.18514019E-03
    4   -0.19434486E+03   -0.45539173E-06    0.34102659E-04
    5   -0.19434486E+03   -0.90869037E-08    0.64460205E-05
    6   -0.19434486E+03   -0.75053208E-09    0.11675737E-05
    7   -0.19434486E+03   -0.23618441E-10    0.33748191E-06
    8   -0.19434486E+03   -0.22737368E-12    0.69890858E-07
    9   -0.19434486E+03   -0.19895197E-12    0.25283789E-07
   10   -0.19434486E+03    0.00000000E+00    0.18346609E-08

Total Energy:                     -192.3759279630 H        -5234.8153 eV
Extrapolated to 0K:               -192.3759279630 H        -5234.8153 eV
Total Mermin free energy:         -192.3759279630 H        -5234.8153 eV
Force related energy:             -192.3759279630 H        -5234.8153 eV

Volume:                              0.100677E+05 au^3   0.149187E+04 A^3
Pressure:                            0.282721E-05 au     0.831793E+08 Pa
>> Charges saved for restart in charges.bin

total energy  -1.9237593E+02 H       energy change -1.1175592E-04 H
gradient norm  7.4938869E-03 H/a0    max. gradient  1.8650093E-03 H/a0
step length    7.2042353E-02 a0      max. step      1.4771891E-02 a0

--------------------------------------------------------------------------------

***  Geometry step: 42

 iSCC Total electronic   Diff electronic      SCC error    
    1   -0.19434486E+03    0.00000000E+00    0.14135260E-02
    2   -0.19434515E+03   -0.29607547E-03    0.76383617E-03
    3   -0.19434515E+03   -0.16027902E-05    0.20374040E-03
    4   -0.19434515E+03   -0.32274812E-06    0.26501952E-04
    5   -0.19434515E+03   -0.54660916E-08    0.48287816E-05
    6   -0.19434515E+03   -0.42362558E-09    0.12179789E-05
    7   -0.19434515E+03   -0.95781161E-11    0.25665185E-06
    8   -0.19434515E+03   -0.25579538E-12    0.64116708E-07
    9   -0.19434515E+03    0.00000000E+00    0.16447752E-07
   10   -0.19434515E+03    0.28421709E-13    0.13711272E-08

Total Energy:                     -192.3760087968 H        -5234.8175 eV
Extrapolated to 0K:               -192.3760087968 H        -5234.8175 eV
Total Mermin free energy:         -192.3760087968 H        -5234.8175 eV
Force related energy:             -192.3760087968 H        -5234.8175 eV

Volume:                              0.100711E+05 au^3   0.149239E+04 A^3
Pressure:                            0.267779E-05 au     0.787832E+08 Pa
>> Charges saved for restart in charges.bin

total energy  -1.9237601E+02 H       energy change -8.0833848E-05 H
gradient norm  6.6610681E-03 H/a0    max. gradient  1.3783970E-03 H/a0
step length    5.5892617E-02 a0      max. step      1.1614776E-02 a0

--------------------------------------------------------------------------------

***  Geometry step: 43

 iSCC Total electronic   Diff electronic      SCC error    
    1   -0.19434515E+03    0.00000000E+00    0.14122234E-02
    2   -0.19434489E+03    0.26470293E-03    0.71678290E-03
    3   -0.19434489E+03   -0.16292826E-05    0.19248610E-03
    4   -0.19434489E+03   -0.34493226E-06    0.30036775E-04
    5   -0.19434489E+03   -0.45895945E-08    0.46483006E-05
    6   -0.19434489E+03   -0.35703351E-09    0.13714126E-05
    7   -0.19434489E+03   -0.88675733E-11    0.34412316E-06
    8   -0.19434489E+03   -0.28421709E-12    0.60495136E-07
    9   -0.19434489E+03    0.28421709E-13    0.16112546E-07
   10   -0.19434489E+03    0.85265128E-13    0.15623396E-08

Total Energy:                     -192.3760859943 H        -5234.8196 eV
Extrapolated to 0K:               -192.3760859943 H        -5234.8196 eV
Total Mermin free energy:         -192.3760859943 H        -5234.8196 eV
Force related energy:             -192.3760859943 H        -5234.8196 eV

Volume:                              0.100752E+05 au^3   0.149299E+04 A^3
Pressure:                            0.235105E-05 au     0.691702E+08 Pa
>> Charges saved for restart in charges.bin

total energy  -1.9237609E+02 H       energy change -7.7197440E-05 H
gradient norm  6.6153290E-03 H/a0    max. gradient  1.6997740E-03 H/a0
step length    5.3163336E-02 a0      max. step      1.0860869E-02 a0

--------------------------------------------------------------------------------

***  Geometry step: 44

 iSCC Total electronic   Diff electronic      SCC error    
    1   -0.19434489E+03    0.00000000E+00    0.14786631E-02
    2   -0.19434410E+03    0.79266425E-03    0.63872517E-03
    3   -0.19434410E+03   -0.20400565E-05    0.18666878E-03
    4   -0.19434410E+03   -0.43353768E-06    0.41499782E-04
    5   -0.19434410E+03   -0.55611622E-08    0.61412623E-05
    6   -0.19434410E+03   -0.49200821E-09    0.15779929E-05
    7   -0.19434410E+03   -0.12477130E-10    0.45393012E-06
    8   -0.19434410E+03   -0.19895197E-12    0.62584314E-07
    9   -0.19434410E+03    0.28421709E-13    0.14497332E-07
   10   -0.19434410E+03   -0.14210855E-12    0.13656862E-08

Total Energy:                     -192.3761680796 H        -5234.8219 eV
Extrapolated to 0K:               -192.3761680796 H        -5234.8219 eV
Total Mermin free energy:         -192.3761680796 H        -5234.8219 eV
Force related energy:             -192.3761680796 H        -5234.8219 eV

Volume:                              0.100804E+05 au^3   0.149376E+04 A^3
Pressure:                            0.163612E-05 au     0.481364E+08 Pa
>> Charges saved for restart in charges.bin

total energy  -1.9237617E+02 H       energy change -8.2085296E-05 H
gradient norm  7.6134853E-03 H/a0    max. gradient  1.9214689E-03 H/a0
step length    5.6956410E-02 a0      max. step      1.1672208E-02 a0

--------------------------------------------------------------------------------

***  Geometry step: 45

 iSCC Total electronic   Diff electronic      SCC error    
    1   -0.19434410E+03    0.00000000E+00    0.14850425E-02
    2   -0.19434409E+03    0.10803851E-04    0.60058251E-03
    3   -0.19434409E+03   -0.14665190E-05    0.16923860E-03
    4   -0.19434409E+03   -0.32025449E-06    0.26864020E-04
    5   -0.19434409E+03   -0.40518557E-08    0.43193288E-05
    6   -0.19434409E+03   -0.41728754E-09    0.75530726E-06
    7   -0.19434409E+03   -0.12050805E-10    0.22051637E-06
    8   -0.19434409E+03   -0.14210855E-12    0.46452940E-07
    9   -0.19434409E+03   -0.56843419E-13    0.95402424E-08

Total Energy:                     -192.3762563017 H        -5234.8243 eV
Extrapolated to 0K:               -192.3762563017 H        -5234.8243 eV
Total Mermin free energy:         -192.3762563017 H        -5234.8243 eV
Force related energy:             -192.3762563017 H        -5234.8243 eV

Volume:                              0.100853E+05 au^3   0.149449E+04 A^3
Pressure:                            0.122478E-05 au     0.360344E+08 Pa
>> Charges saved for restart in charges.bin

total energy  -1.9237626E+02 H       energy change -8.8222154E-05 H
gradient norm  7.8805634E-03 H/a0    max. gradient  2.1359159E-03 H/a0
step length    6.2596234E-02 a0      max. step      1.3110319E-02 a0

--------------------------------------------------------------------------------

***  Geometry step: 46

 iSCC Total electronic   Diff electronic      SCC error    
    1   -0.19434409E+03    0.00000000E+00    0.15186989E-02
    2   -0.19434440E+03   -0.30626447E-03    0.59495640E-03
    3   -0.19434440E+03   -0.20334035E-05    0.18023536E-03
    4   -0.19434440E+03   -0.44934595E-06    0.34558967E-04
    5   -0.19434440E+03   -0.59949627E-08    0.46451313E-05
    6   -0.19434440E+03   -0.61479000E-09    0.96161700E-06
    7   -0.19434440E+03   -0.16029844E-10    0.27303131E-06
    8   -0.19434440E+03   -0.56843419E-13    0.65227841E-07
    9   -0.19434440E+03    0.00000000E+00    0.14106613E-07
   10   -0.19434440E+03   -0.85265128E-13    0.11388162E-08

Total Energy:                     -192.3763551250 H        -5234.8270 eV
Extrapolated to 0K:               -192.3763551250 H        -5234.8270 eV
Total Mermin free energy:         -192.3763551250 H        -5234.8270 eV
Force related energy:             -192.3763551250 H        -5234.8270 eV

Volume:                              0.100917E+05 au^3   0.149543E+04 A^3
Pressure:                            0.674107E-06 au     0.198329E+08 Pa
>> Charges saved for restart in charges.bin

total energy  -1.9237636E+02 H       energy change -9.8823275E-05 H
gradient norm  7.0841310E-03 H/a0    max. gradient  1.3118058E-03 H/a0
step length    8.0271555E-02 a0      max. step      1.6736491E-02 a0

--------------------------------------------------------------------------------

***  Geometry step: 47

 iSCC Total electronic   Diff electronic      SCC error    
    1   -0.19434440E+03    0.00000000E+00    0.12371667E-02
    2   -0.19434555E+03   -0.11453424E-02    0.49906288E-03
    3   -0.19434555E+03   -0.13348648E-05    0.14206319E-03
    4   -0.19434555E+03   -0.28772519E-06    0.28459022E-04
    5   -0.19434555E+03   -0.41531791E-08    0.57915477E-05
    6   -0.19434555E+03   -0.31812419E-09    0.12448303E-05
    7   -0.19434555E+03   -0.68212103E-11    0.23686516E-06
    8   -0.19434555E+03   -0.19895197E-12    0.63306521E-07
    9   -0.19434555E+03   -0.56843419E-13    0.14447119E-07
   10   -0.19434555E+03    0.56843419E-13    0.13852688E-08

Total Energy:                     -192.3764316882 H        -5234.8291 eV
Extrapolated to 0K:               -192.3764316882 H        -5234.8291 eV
Total Mermin free energy:         -192.3764316882 H        -5234.8291 eV
Force related energy:             -192.3764316882 H        -5234.8291 eV

Volume:                              0.100961E+05 au^3   0.149609E+04 A^3
Pressure:                            0.603370E-06 au     0.177518E+08 Pa
>> Charges saved for restart in charges.bin

total energy  -1.9237643E+02 H       energy change -7.6563198E-05 H
gradient norm  6.5597820E-03 H/a0    max. gradient  1.4141750E-03 H/a0
step length    6.6235714E-02 a0      max. step      1.3926201E-02 a0

--------------------------------------------------------------------------------

***  Geometry step: 48

 iSCC Total electronic   Diff electronic      SCC error    
    1   -0.19434555E+03    0.00000000E+00    0.13628770E-02
    2   -0.19434697E+03   -0.14190588E-02    0.56393198E-03
    3   -0.19434697E+03   -0.20044224E-05    0.17400362E-03
    4   -0.19434697E+03   -0.42980602E-06    0.27426820E-04
    5   -0.19434697E+03   -0.64245569E-08    0.75834278E-05
    6   -0.19434697E+03   -0.44411763E-09    0.15554007E-05
    7   -0.19434697E+03   -0.10345502E-10    0.33183905E-06
    8   -0.19434697E+03   -0.31263880E-12    0.78358534E-07
    9   -0.19434697E+03    0.28421709E-13    0.15082186E-07
   10   -0.19434697E+03   -0.85265128E-13    0.16591928E-08

Total Energy:                     -192.3765110424 H        -5234.8312 eV
Extrapolated to 0K:               -192.3765110424 H        -5234.8312 eV
Total Mermin free energy:         -192.3765110424 H        -5234.8312 eV
Force related energy:             -192.3765110424 H        -5234.8312 eV

Volume:                              0.101003E+05 au^3   0.149671E+04 A^3
Pressure:                            0.564253E-06 au     0.166009E+08 Pa
>> Charges saved for restart in charges.bin

total energy  -1.9237651E+02 H       energy change -7.9354193E-05 H
gradient norm  6.7428551E-03 H/a0    max. gradient  1.3700745E-03 H/a0
step length    7.2182695E-02 a0      max. step      1.5495090E-02 a0

--------------------------------------------------------------------------------

***  Geometry step: 49

 iSCC Total electronic   Diff electronic      SCC error    
    1   -0.19434697E+03    0.00000000E+00    0.16888386E-02
    2   -0.19434851E+03   -0.15372785E-02    0.74686057E-03
    3   -0.19434851E+03   -0.14964654E-05    0.14515606E-03
    4   -0.19434851E+03   -0.31962526E-06    0.19625594E-04
    5   -0.19434851E+03   -0.51252300E-08    0.54531559E-05
    6   -0.19434851E+03   -0.42018655E-09    0.11042559E-05
    7   -0.19434851E+03   -0.71622708E-11    0.27384712E-06
    8   -0.19434851E+03   -0.56843419E-13    0.49300123E-07
    9   -0.19434851E+03   -0.14210855E-12    0.12490119E-07
   10   -0.19434851E+03    0.85265128E-13    0.12547718E-08

Total Energy:                     -192.3765838168 H        -5234.8332 eV
Extrapolated to 0K:               -192.3765838168 H        -5234.8332 eV
Total Mermin free energy:         -192.3765838168 H        -5234.8332 eV
Force related energy:             -192.3765838168 H        -5234.8332 eV

Volume:                              0.101029E+05 au^3   0.149710E+04 A^3
Pressure:                            0.780313E-06 au     0.229576E+08 Pa
>> Charges saved for restart in charges.bin

total energy  -1.9237658E+02 H       energy change -7.2774350E-05 H
gradient norm  7.1176199E-03 H/a0    max. gradient  1.8246984E-03 H/a0
step length    6.3091463E-02 a0      max. step      1.3721203E-02 a0

--------------------------------------------------------------------------------

***  Geometry step: 50

 iSCC Total electronic   Diff electronic      SCC error    
    1   -0.19434851E+03    0.00000000E+00    0.24187256E-02
    2   -0.19434984E+03   -0.13284405E-02    0.10654948E-02
    3   -0.19434984E+03   -0.19595580E-05    0.17504885E-03
    4   -0.19434984E+03   -0.42836027E-06    0.25817617E-04
    5   -0.19434984E+03   -0.86672856E-08    0.39347620E-05
    6   -0.19434984E+03   -0.77847062E-09    0.95354075E-06
    7   -0.19434984E+03   -0.12562396E-10    0.35383785E-06
    8   -0.19434984E+03   -0.22737368E-12    0.57563196E-07
    9   -0.19434984E+03   -0.28421709E-13    0.16079227E-07
   10   -0.19434984E+03   -0.28421709E-13    0.22411588E-08

Total Energy:                     -192.3766712173 H        -5234.8356 eV
Extrapolated to 0K:               -192.3766712173 H        -5234.8356 eV
Total Mermin free energy:         -192.3766712173 H        -5234.8356 eV
Force related energy:             -192.3766712173 H        -5234.8356 eV

Volume:                              0.101058E+05 au^3   0.149753E+04 A^3
Pressure:                            0.926275E-06 au     0.272520E+08 Pa
>> Charges saved for restart in charges.bin

total energy  -1.9237667E+02 H       energy change -8.7400596E-05 H
gradient norm  7.0932078E-03 H/a0    max. gradient  1.6234538E-03 H/a0
step length    7.7313718E-02 a0      max. step      1.6733709E-02 a0

--------------------------------------------------------------------------------

***  Geometry step: 51

 iSCC Total electronic   Diff electronic      SCC error    
    1   -0.19434984E+03    0.00000000E+00    0.18285206E-02
    2   -0.19435032E+03   -0.48411014E-03    0.78901044E-03
    3   -0.19435032E+03   -0.14263587E-05    0.18330336E-03
    4   -0.19435032E+03   -0.31364905E-06    0.23302656E-04
    5   -0.19435032E+03   -0.60697403E-08    0.28207472E-05
    6   -0.19435032E+03   -0.57309535E-09    0.88572215E-06
    7   -0.19435032E+03   -0.59117156E-11    0.32689624E-06
    8   -0.19435032E+03   -0.11368684E-12    0.40985060E-07
    9   -0.19435032E+03   -0.28421709E-13    0.91228265E-08

Total Energy:                     -192.3767503755 H        -5234.8377 eV
Extrapolated to 0K:               -192.3767503755 H        -5234.8377 eV
Total Mermin free energy:         -192.3767503755 H        -5234.8377 eV
Force related energy:             -192.3767503755 H        -5234.8377 eV

Volume:                              0.101081E+05 au^3   0.149786E+04 A^3
Pressure:                            0.101100E-05 au     0.297447E+08 Pa
>> Charges saved for restart in charges.bin

total energy  -1.9237675E+02 H       energy change -7.9158166E-05 H
gradient norm  6.7226562E-03 H/a0    max. gradient  1.3991640E-03 H/a0
step length    6.8141682E-02 a0      max. step      1.4978028E-02 a0

--------------------------------------------------------------------------------

***  Geometry step: 52

 iSCC Total electronic   Diff electronic      SCC error    
    1   -0.19435032E+03    0.00000000E+00    0.12659454E-02
    2   -0.19434964E+03    0.67958292E-03    0.62807907E-03
    3   -0.19434965E+03   -0.15434529E-05    0.19988977E-03
    4   -0.19434965E+03   -0.35066387E-06    0.23280729E-04
[...]
    8   -0.19434435E+03   -0.11368684E-12    0.35995025E-08

Total Energy:                     -192.3799288821 H        -5234.9242 eV
Extrapolated to 0K:               -192.3799288821 H        -5234.9242 eV
Total Mermin free energy:         -192.3799288821 H        -5234.9242 eV
Force related energy:             -192.3799288821 H        -5234.9242 eV

Volume:                              0.998798E+04 au^3   0.148007E+04 A^3
Pressure:                            0.156924E-06 au     0.461687E+07 Pa
>> Charges saved for restart in charges.bin

total energy  -1.9237993E+02 H       energy change -1.1798480E-06 H
gradient norm  8.2658860E-04 H/a0    max. gradient  1.9701497E-04 H/a0
step length    5.4868373E-03 a0      max. step      1.0805663E-03 a0

--------------------------------------------------------------------------------

***  Geometry step: 192

 iSCC Total electronic   Diff electronic      SCC error    
    1   -0.19434435E+03    0.00000000E+00    0.17866759E-03
    2   -0.19434429E+03    0.61463445E-04    0.10194998E-03
    3   -0.19434429E+03   -0.23853346E-07    0.24582153E-04
    4   -0.19434429E+03   -0.52436349E-08    0.42927629E-05
    5   -0.19434429E+03   -0.88277829E-10    0.98828552E-06
    6   -0.19434429E+03   -0.84128260E-11    0.15130950E-06
    7   -0.19434429E+03   -0.22737368E-12    0.13343765E-07
    8   -0.19434429E+03   -0.28421709E-13    0.43054036E-08

Total Energy:                     -192.3799303801 H        -5234.9243 eV
Extrapolated to 0K:               -192.3799303801 H        -5234.9243 eV
Total Mermin free energy:         -192.3799303801 H        -5234.9243 eV
Force related energy:             -192.3799303801 H        -5234.9243 eV

Volume:                              0.998799E+04 au^3   0.148007E+04 A^3
Pressure:                            0.132416E-06 au     0.389581E+07 Pa
>> Charges saved for restart in charges.bin

total energy  -1.9237993E+02 H       energy change -1.4980098E-06 H
gradient norm  8.7844196E-04 H/a0    max. gradient  2.3194940E-04 H/a0
step length    8.8981097E-03 a0      max. step      1.8992762E-03 a0

--------------------------------------------------------------------------------

***  Geometry step: 193

 iSCC Total electronic   Diff electronic      SCC error    
    1   -0.19434429E+03    0.00000000E+00    0.12942466E-03
    2   -0.19434427E+03    0.13686907E-04    0.65921300E-04
    3   -0.19434427E+03   -0.18118669E-07    0.18230292E-04
    4   -0.19434427E+03   -0.34483492E-08    0.25182510E-05
    5   -0.19434427E+03   -0.56672889E-10    0.58980737E-06
    6   -0.19434427E+03   -0.52295945E-11    0.13331249E-06
    7   -0.19434427E+03   -0.17053026E-12    0.90611909E-08

Total Energy:                     -192.3799317900 H        -5234.9243 eV
Extrapolated to 0K:               -192.3799317900 H        -5234.9243 eV
Total Mermin free energy:         -192.3799317900 H        -5234.9243 eV
Force related energy:             -192.3799317900 H        -5234.9243 eV

Volume:                              0.998781E+04 au^3   0.148004E+04 A^3
Pressure:                            0.121234E-06 au     0.356683E+07 Pa
>> Charges saved for restart in charges.bin

total energy  -1.9237993E+02 H       energy change -1.4099112E-06 H
gradient norm  8.9673750E-04 H/a0    max. gradient  2.1478665E-04 H/a0
step length    9.6561657E-03 a0      max. step      2.0659791E-03 a0

--------------------------------------------------------------------------------

***  Geometry step: 194

 iSCC Total electronic   Diff electronic      SCC error    
    1   -0.19434427E+03    0.00000000E+00    0.22199744E-03
    2   -0.19434426E+03    0.11431741E-04    0.91766723E-04
    3   -0.19434426E+03   -0.29962422E-07    0.23843876E-04
    4   -0.19434426E+03   -0.58696230E-08    0.37577867E-05
    5   -0.19434426E+03   -0.72219564E-10    0.44144864E-06
    6   -0.19434426E+03   -0.61959327E-11    0.11401223E-06
    7   -0.19434426E+03   -0.85265128E-13    0.16656634E-07
    8   -0.19434426E+03   -0.85265128E-13    0.32500620E-08

Total Energy:                     -192.3799333538 H        -5234.9243 eV
Extrapolated to 0K:               -192.3799333538 H        -5234.9243 eV
Total Mermin free energy:         -192.3799333538 H        -5234.9243 eV
Force related energy:             -192.3799333538 H        -5234.9243 eV

Volume:                              0.998730E+04 au^3   0.147996E+04 A^3
Pressure:                            0.136597E-06 au     0.401881E+07 Pa
>> Charges saved for restart in charges.bin

total energy  -1.9237993E+02 H       energy change -1.5638051E-06 H
gradient norm  8.5232539E-04 H/a0    max. gradient  1.7828009E-04 H/a0
step length    1.3010432E-02 a0      max. step      2.4082511E-03 a0

--------------------------------------------------------------------------------

***  Geometry step: 195

 iSCC Total electronic   Diff electronic      SCC error    
    1   -0.19434426E+03    0.00000000E+00    0.15135555E-03
    2   -0.19434416E+03    0.95841700E-04    0.66669133E-04
    3   -0.19434416E+03   -0.22162880E-07    0.15954681E-04
    4   -0.19434416E+03   -0.50729341E-08    0.27069221E-05
    5   -0.19434416E+03   -0.52835958E-10    0.62229637E-06
    6   -0.19434416E+03   -0.36664005E-11    0.79160392E-07
    7   -0.19434416E+03   -0.28421709E-13    0.81362908E-08

Total Energy:                     -192.3799344277 H        -5234.9244 eV
Extrapolated to 0K:               -192.3799344277 H        -5234.9244 eV
Total Mermin free energy:         -192.3799344277 H        -5234.9244 eV
Force related energy:             -192.3799344277 H        -5234.9244 eV

Volume:                              0.998739E+04 au^3   0.147998E+04 A^3
Pressure:                            0.851820E-07 au     0.250614E+07 Pa
>> Charges saved for restart in charges.bin

total energy  -1.9237993E+02 H       energy change -1.0739016E-06 H
gradient norm  7.1037996E-04 H/a0    max. gradient  1.2626412E-04 H/a0
step length    3.3347594E-03 a0      max. step      6.9961455E-04 a0

--------------------------------------------------------------------------------

***  Geometry step: 196

 iSCC Total electronic   Diff electronic      SCC error    
    1   -0.19434416E+03    0.00000000E+00    0.23206403E-03
    2   -0.19434409E+03    0.71210751E-04    0.98035855E-04
    3   -0.19434409E+03   -0.34155477E-07    0.19171581E-04
    4   -0.19434409E+03   -0.74180946E-08    0.29217185E-05
    5   -0.19434409E+03   -0.91546326E-10    0.88346096E-06
    6   -0.19434409E+03   -0.74464879E-11    0.17940269E-06
    7   -0.19434409E+03   -0.19895197E-12    0.14569958E-07
    8   -0.19434409E+03    0.56843419E-13    0.45006545E-08

Total Energy:                     -192.3799356534 H        -5234.9244 eV
Extrapolated to 0K:               -192.3799356534 H        -5234.9244 eV
Total Mermin free energy:         -192.3799356534 H        -5234.9244 eV
Force related energy:             -192.3799356534 H        -5234.9244 eV

Volume:                              0.998688E+04 au^3   0.147990E+04 A^3
Pressure:                            0.582948E-07 au     0.171509E+07 Pa
>> Charges saved for restart in charges.bin

total energy  -1.9237994E+02 H       energy change -1.2257230E-06 H
gradient norm  6.7374565E-04 H/a0    max. gradient  1.7265628E-04 H/a0
step length    1.3042430E-02 a0      max. step      2.7664547E-03 a0

--------------------------------------------------------------------------------

***  Geometry step: 197

 iSCC Total electronic   Diff electronic      SCC error    
    1   -0.19434409E+03    0.00000000E+00    0.12266792E-03
    2   -0.19434411E+03   -0.13701606E-04    0.49612345E-04
    3   -0.19434411E+03   -0.11779406E-07    0.14739171E-04
    4   -0.19434411E+03   -0.26152804E-08    0.26813400E-05
    5   -0.19434411E+03   -0.38454573E-10    0.56044655E-06
    6   -0.19434411E+03   -0.29274361E-11    0.12610156E-06
    7   -0.19434411E+03   -0.85265128E-13    0.11399141E-07
    8   -0.19434411E+03   -0.28421709E-13    0.18998869E-08

Total Energy:                     -192.3799362264 H        -5234.9244 eV
Extrapolated to 0K:               -192.3799362264 H        -5234.9244 eV
Total Mermin free energy:         -192.3799362264 H        -5234.9244 eV
Force related energy:             -192.3799362264 H        -5234.9244 eV

Volume:                              0.998687E+04 au^3   0.147990E+04 A^3
Pressure:                            0.640944E-07 au     0.188572E+07 Pa
>> Charges saved for restart in charges.bin

total energy  -1.9237994E+02 H       energy change -5.7299332E-07 H
gradient norm  5.9567613E-04 H/a0    max. gradient  1.2102553E-04 H/a0
step length    2.1334628E-03 a0      max. step      4.3028623E-04 a0

--------------------------------------------------------------------------------

***  Geometry step: 198

 iSCC Total electronic   Diff electronic      SCC error    
    1   -0.19434411E+03    0.00000000E+00    0.12654938E-03
    2   -0.19434412E+03   -0.15576268E-04    0.65893155E-04
    3   -0.19434412E+03   -0.18624291E-07    0.20868424E-04
    4   -0.19434412E+03   -0.39978829E-08    0.27437108E-05
    5   -0.19434412E+03   -0.48260063E-10    0.67317637E-06
    6   -0.19434412E+03   -0.37232439E-11    0.15850911E-06
    7   -0.19434412E+03   -0.11368684E-12    0.11402506E-07
    8   -0.19434412E+03   -0.28421709E-13    0.27938500E-08

Total Energy:                     -192.3799369311 H        -5234.9244 eV
Extrapolated to 0K:               -192.3799369311 H        -5234.9244 eV
Total Mermin free energy:         -192.3799369311 H        -5234.9244 eV
Force related energy:             -192.3799369311 H        -5234.9244 eV

Volume:                              0.998675E+04 au^3   0.147988E+04 A^3
Pressure:                            0.669162E-07 au     0.196874E+07 Pa
>> Charges saved for restart in charges.bin

total energy  -1.9237994E+02 H       energy change -7.0470855E-07 H
gradient norm  5.4192436E-04 H/a0    max. gradient  1.3595062E-04 H/a0
step length    4.9714464E-03 a0      max. step      1.1033158E-03 a0

--------------------------------------------------------------------------------

***  Geometry step: 199

 iSCC Total electronic   Diff electronic      SCC error    
    1   -0.19434412E+03    0.00000000E+00    0.73854558E-04
    2   -0.19434416E+03   -0.39301071E-04    0.36014565E-04
    3   -0.19434416E+03   -0.63999153E-08    0.94299978E-05
    4   -0.19434416E+03   -0.15083401E-08    0.12918683E-05
    5   -0.19434416E+03   -0.17308821E-10    0.37354242E-06
    6   -0.19434416E+03   -0.15916157E-11    0.75314891E-07
    7   -0.19434416E+03    0.00000000E+00    0.66675785E-08

Total Energy:                     -192.3799373312 H        -5234.9244 eV
Extrapolated to 0K:               -192.3799373312 H        -5234.9244 eV
Total Mermin free energy:         -192.3799373312 H        -5234.9244 eV
Force related energy:             -192.3799373312 H        -5234.9244 eV

Volume:                              0.998665E+04 au^3   0.147987E+04 A^3
Pressure:                            0.938460E-07 au     0.276104E+07 Pa
>> Charges saved for restart in charges.bin

total energy  -1.9237994E+02 H       energy change -4.0012145E-07 H
gradient norm  4.7114759E-04 H/a0    max. gradient  1.1727187E-04 H/a0
step length    1.4636495E-03 a0      max. step      3.5080376E-04 a0

--------------------------------------------------------------------------------

***  Geometry step: 200

 iSCC Total electronic   Diff electronic      SCC error    
    1   -0.19434416E+03    0.00000000E+00    0.16331267E-03
    2   -0.19434402E+03    0.14128900E-03    0.94894483E-04
    3   -0.19434402E+03   -0.25389596E-07    0.26334054E-04
    4   -0.19434402E+03   -0.53320264E-08    0.29665420E-05
    5   -0.19434402E+03   -0.73129058E-10    0.84209287E-06
    6   -0.19434402E+03   -0.59969807E-11    0.17968146E-06
    7   -0.19434402E+03   -0.22737368E-12    0.12893564E-07
    8   -0.19434402E+03    0.56843419E-13    0.47178257E-08

Total Energy:                     -192.3799381745 H        -5234.9245 eV
Extrapolated to 0K:               -192.3799381745 H        -5234.9245 eV
Total Mermin free energy:         -192.3799381745 H        -5234.9245 eV
Force related energy:             -192.3799381745 H        -5234.9245 eV

Volume:                              0.998577E+04 au^3   0.147974E+04 A^3
Pressure:                            0.708760E-07 au     0.208524E+07 Pa
>> Charges saved for restart in charges.bin

total energy  -1.9237994E+02 H       energy change -8.4326268E-07 H
gradient norm  5.7997197E-04 H/a0    max. gradient  1.5804761E-04 H/a0
step length    1.6691039E-02 a0      max. step      3.5755923E-03 a0

--------------------------------------------------------------------------------

***  Geometry step: 201

 iSCC Total electronic   Diff electronic      SCC error    
    1   -0.19434402E+03    0.00000000E+00    0.61688175E-04
    2   -0.19434407E+03   -0.48413677E-04    0.28898277E-04
    3   -0.19434407E+03   -0.30556464E-08    0.76694568E-05
    4   -0.19434407E+03   -0.67527139E-09    0.92007750E-06
    5   -0.19434407E+03   -0.13187673E-10    0.27133832E-06
    6   -0.19434407E+03   -0.73896445E-12    0.37018828E-07
    7   -0.19434407E+03    0.56843419E-13    0.38846371E-08

Total Energy:                     -192.3799385352 H        -5234.9245 eV
Extrapolated to 0K:               -192.3799385352 H        -5234.9245 eV
Total Mermin free energy:         -192.3799385352 H        -5234.9245 eV
Force related energy:             -192.3799385352 H        -5234.9245 eV

Volume:                              0.998564E+04 au^3   0.147972E+04 A^3
Pressure:                            0.106025E-06 au     0.311938E+07 Pa
>> Charges saved for restart in charges.bin

total energy  -1.9237994E+02 H       energy change -3.6074240E-07 H
gradient norm  5.4131587E-04 H/a0    max. gradient  1.3245969E-04 H/a0
step length    1.4607892E-03 a0      max. step      3.4962768E-04 a0

--------------------------------------------------------------------------------

***  Geometry step: 202

 iSCC Total electronic   Diff electronic      SCC error    
    1   -0.19434407E+03    0.00000000E+00    0.16212422E-03
    2   -0.19434420E+03   -0.12844222E-03    0.73764132E-04
    3   -0.19434420E+03   -0.21365736E-07    0.19841225E-04
    4   -0.19434420E+03   -0.44756803E-08    0.26797169E-05
    5   -0.19434420E+03   -0.70571105E-10    0.70286001E-06
    6   -0.19434420E+03   -0.53148597E-11    0.18128580E-06
    7   -0.19434420E+03   -0.85265128E-13    0.11714191E-07
    8   -0.19434420E+03    0.00000000E+00    0.30618659E-08

Total Energy:                     -192.3799393269 H        -5234.9245 eV
Extrapolated to 0K:               -192.3799393269 H        -5234.9245 eV
Total Mermin free energy:         -192.3799393269 H        -5234.9245 eV
Force related energy:             -192.3799393269 H        -5234.9245 eV

Volume:                              0.998537E+04 au^3   0.147968E+04 A^3
Pressure:                            0.172795E-06 au     0.508381E+07 Pa
>> Charges saved for restart in charges.bin

total energy  -1.9237994E+02 H       energy change -7.9163527E-07 H
gradient norm  5.5547109E-04 H/a0    max. gradient  1.7598314E-04 H/a0
step length    4.4436045E-03 a0      max. step      1.1032367E-03 a0

--------------------------------------------------------------------------------

***  Geometry step: 203

 iSCC Total electronic   Diff electronic      SCC error    
    1   -0.19434420E+03    0.00000000E+00    0.95346419E-04
    2   -0.19434428E+03   -0.81275872E-04    0.48075790E-04
    3   -0.19434428E+03   -0.78412654E-08    0.16067392E-04
    4   -0.19434428E+03   -0.16206059E-08    0.15303743E-05
    5   -0.19434428E+03   -0.24670044E-10    0.19902517E-06
    6   -0.19434428E+03   -0.19610980E-11    0.45608938E-07
    7   -0.19434428E+03   -0.14210855E-12    0.83486245E-08

Total Energy:                     -192.3799397557 H        -5234.9245 eV
Extrapolated to 0K:               -192.3799397557 H        -5234.9245 eV
Total Mermin free energy:         -192.3799397557 H        -5234.9245 eV
Force related energy:             -192.3799397557 H        -5234.9245 eV

Volume:                              0.998528E+04 au^3   0.147967E+04 A^3
Pressure:                            0.204653E-06 au     0.602111E+07 Pa
>> Charges saved for restart in charges.bin

total energy  -1.9237994E+02 H       energy change -4.2880444E-07 H
gradient norm  5.0513881E-04 H/a0    max. gradient  1.7976114E-04 H/a0
step length    3.5389720E-03 a0      max. step      9.1927231E-04 a0

--------------------------------------------------------------------------------

***  Geometry step: 204

 iSCC Total electronic   Diff electronic      SCC error    
    1   -0.19434428E+03    0.00000000E+00    0.10923780E-03
    2   -0.19434428E+03   -0.46941623E-05    0.48019428E-04
    3   -0.19434428E+03   -0.81834912E-08    0.10889283E-04
    4   -0.19434428E+03   -0.16297861E-08    0.19532155E-05
    5   -0.19434428E+03   -0.29928060E-10    0.43465235E-06
    6   -0.19434428E+03   -0.28137492E-11    0.87677415E-07
    7   -0.19434428E+03    0.28421709E-13    0.69527464E-08

Total Energy:                     -192.3799401440 H        -5234.9245 eV
Extrapolated to 0K:               -192.3799401440 H        -5234.9245 eV
Total Mermin free energy:         -192.3799401440 H        -5234.9245 eV
Force related energy:             -192.3799401440 H        -5234.9245 eV

Volume:                              0.998525E+04 au^3   0.147966E+04 A^3
Pressure:                            0.193708E-06 au     0.569907E+07 Pa
>> Charges saved for restart in charges.bin

total energy  -1.9237994E+02 H       energy change -3.8835711E-07 H
gradient norm  3.9008509E-04 H/a0    max. gradient  1.0235333E-04 H/a0
step length    4.4961884E-03 a0      max. step      1.2698920E-03 a0

--------------------------------------------------------------------------------

***  Geometry step: 205

 iSCC Total electronic   Diff electronic      SCC error    
    1   -0.19434428E+03    0.00000000E+00    0.54864944E-04
    2   -0.19434420E+03    0.84178986E-04    0.24653439E-04
    3   -0.19434420E+03   -0.29701539E-08    0.62151539E-05
    4   -0.19434420E+03   -0.69093176E-09    0.76318891E-06
    5   -0.19434420E+03   -0.65654149E-11    0.21753125E-06
    6   -0.19434420E+03   -0.51159077E-12    0.48235027E-07
    7   -0.19434420E+03    0.28421709E-13    0.36742476E-08

Total Energy:                     -192.3799403223 H        -5234.9245 eV
Extrapolated to 0K:               -192.3799403223 H        -5234.9245 eV
Total Mermin free energy:         -192.3799403223 H        -5234.9245 eV
Force related energy:             -192.3799403223 H        -5234.9245 eV

Volume:                              0.998536E+04 au^3   0.147968E+04 A^3
Pressure:                            0.161768E-06 au     0.475937E+07 Pa
>> Charges saved for restart in charges.bin

total energy  -1.9237994E+02 H       energy change -1.7825175E-07 H
gradient norm  3.2118724E-04 H/a0    max. gradient  6.8523325E-05 H/a0
step length    7.7355153E-04 a0      max. step      1.4626366E-04 a0

Geometry converged

--------------------------------------------------------------------------------
DFTB+ running times                          cpu [s]             wall clock [s]
--------------------------------------------------------------------------------
Pre-SCC initialisation                 +       7.34 (  0.3%)       3.38 (  0.9%)
SCC                                    +    2664.44 ( 91.9%)     348.66 ( 89.6%)
Post-SCC processing                    +     227.66 (  7.9%)      37.04 (  9.5%)
--------------------------------------------------------------------------------
Missing                                +       0.23 (  0.0%)       0.01 (  0.0%)
Total                                  =    2899.67 (100.0%)     389.08 (100.0%)
--------------------------------------------------------------------------------
