|===============================================================================
|
|  DFTB+ release 24.1
|
|  Copyright (C) 2006 - 2024  DFTB+ developers group
|
|===============================================================================
|
|  When publishing results obtained with DFTB+, please cite the following
|  reference:
|
|  * DFTB+, a software package for efficient approximate density functional
|    theory based atomistic simulations, J. Chem. Phys. 152, 124101 (2020).
|    [doi: 10.1063/1.5143190]
|
|  You should also cite additional publications crediting the parametrization
|  data you use. Please consult the documentation of the SK-files for the
|  references.
|
|===============================================================================

Reading input file 'dftb_in.hsd'
Parser version: 14

--------------------------------------------------------------------------------
Reading SK-files:
./SKFiles/Ge-Ge.skf
./SKFiles/Ge-Si.skf
./SKFiles/Ge-O.skf
./SKFiles/Si-Si.skf
./SKFiles/Si-O.skf
./SKFiles/O-O.skf
Done.


Processed input in HSD format written to 'dftb_pin.hsd'

Starting initialization...
--------------------------------------------------------------------------------
WARNING!
-> Dipole printed for extended system : value printed is not well defined
MPI processes:               1
OpenMP threads:              8
BLACS orbital grid size:     1 x 1
BLACS atom grid size:        1 x 1
Chosen random seed:          140859913
Current stacksize:           unlimited
Mode:                        Static calculation
Self consistent charges:     Yes
SCC-tolerance:                 0.100000E-07
Max. scc iterations:                    500
Shell resolved Hubbard:      No
Spin polarisation:           No
Nr. of up electrons:           192.000000
Nr. of down electrons:         192.000000
Periodic boundaries:         Yes
Electronic solver:           Relatively robust
Mixer:                       Broyden mixer
Mixing parameter:                  0.200000
Maximal SCC-cycles:                     500
Nr. of chrg. vec. in memory:            500
Electronic temperature:              0.100000E-07 H      0.272114E-06 eV
Initial charges:             Set automatically (system chrg:   0.000E+00)
Included shells:            Ge:  s, p, d
                            Si:  s, p, d
                             O:  s, p
K-points and weights:           1:  0.500000  0.500000  0.500000     1.000000

K-points in absolute space:     1:  0.025319  0.017606  0.037774

Extra options:
                             Mulliken analysis
Force type                   original

--------------------------------------------------------------------------------

***  Geometry step: 0

 iSCC Total electronic   Diff electronic      SCC error    
    1    0.00000000E+00    0.00000000E+00    0.14597501E+01
    2   -0.19480596E+03   -0.19480596E+03    0.99398725E+00
    3   -0.19517185E+03   -0.36588863E+00    0.38280355E-01
    4   -0.19548764E+03   -0.31579671E+00    0.27436479E-01
    5   -0.19548954E+03   -0.18956316E-02    0.38006565E-02
    6   -0.19548968E+03   -0.13572326E-03    0.16978949E-02
    7   -0.19548968E+03   -0.29371222E-05    0.37506914E-03
    8   -0.19548968E+03   -0.10335011E-05    0.46782375E-04
    9   -0.19548968E+03   -0.50821228E-07    0.26112842E-04
   10   -0.19548968E+03   -0.75488060E-10    0.11127277E-05
   11   -0.19548968E+03   -0.14500756E-09    0.31949277E-06
   12   -0.19548968E+03   -0.16484591E-11    0.18793287E-06
   13   -0.19548968E+03    0.00000000E+00    0.85000087E-08

Total Energy:                     -191.8776876723 H        -5221.2575 eV
Extrapolated to 0K:               -191.8776876723 H        -5221.2575 eV
Total Mermin free energy:         -191.8776876723 H        -5221.2575 eV
Force related energy:             -191.8776876723 H        -5221.2575 eV

Volume:                              0.913789E+04 au^3   0.135410E+04 A^3
Pressure:                            0.717297E-03 au     0.211036E+11 Pa
>> Charges saved for restart in charges.bin

total energy  -1.9187769E+02 H       energy change -1.9187769E+02 H
gradient norm  8.6233676E-01 H/a0    max. gradient  4.4148671E-01 H/a0
step length    0.0000000E+00 a0      max. step      0.0000000E+00 a0

--------------------------------------------------------------------------------

***  Geometry step: 1

 iSCC Total electronic   Diff electronic      SCC error    
    1   -0.19548968E+03    0.00000000E+00    0.89267846E-01
    2   -0.19514973E+03    0.33994494E+00    0.44697798E-01
    3   -0.19515506E+03   -0.53292811E-02    0.14769408E-01
    4   -0.19515625E+03   -0.11812808E-02    0.70871867E-03
    5   -0.19515626E+03   -0.13169166E-04    0.31880077E-03
    6   -0.19515626E+03   -0.57325303E-06    0.13008305E-03
    7   -0.19515626E+03   -0.26996446E-07    0.10645643E-04
    8   -0.19515626E+03   -0.40779753E-08    0.23100005E-05
    9   -0.19515626E+03   -0.16305535E-09    0.60638281E-06
   10   -0.19515626E+03   -0.24726887E-11    0.17851695E-06
   11   -0.19515626E+03   -0.28421709E-13    0.23636633E-07
   12   -0.19515626E+03   -0.56843419E-13    0.78761220E-08

Total Energy:                     -192.0617696337 H        -5226.2667 eV
Extrapolated to 0K:               -192.0617696337 H        -5226.2667 eV
Total Mermin free energy:         -192.0617696337 H        -5226.2667 eV
Force related energy:             -192.0617696337 H        -5226.2667 eV

Volume:                              0.944667E+04 au^3   0.139985E+04 A^3
Pressure:                            0.468178E-03 au     0.137743E+11 Pa
>> Charges saved for restart in charges.bin

total energy  -1.9206177E+02 H       energy change -1.8408196E-01 H
gradient norm  5.4953414E-01 H/a0    max. gradient  1.4019885E-01 H/a0
step length    5.7611744E-01 a0      max. step      2.9495228E-01 a0

--------------------------------------------------------------------------------

***  Geometry step: 2

 iSCC Total electronic   Diff electronic      SCC error    
    1   -0.19515626E+03    0.00000000E+00    0.45566674E-01
    2   -0.19506645E+03    0.89808150E-01    0.20486156E-01
    3   -0.19506881E+03   -0.23569240E-02    0.59319089E-02
    4   -0.19506937E+03   -0.56592109E-03    0.72981559E-03
    5   -0.19506938E+03   -0.46929594E-05    0.20416472E-03
    6   -0.19506938E+03   -0.32505619E-06    0.10541925E-03
    7   -0.19506938E+03   -0.15530361E-07    0.17738909E-04
    8   -0.19506938E+03   -0.17678303E-08    0.11725030E-05
    9   -0.19506938E+03   -0.85549345E-10    0.33949497E-06
   10   -0.19506938E+03   -0.15347723E-11    0.63138477E-07
   11   -0.19506938E+03    0.00000000E+00    0.18693262E-07
   12   -0.19506938E+03    0.28421709E-13    0.56395071E-08

Total Energy:                     -192.1874903710 H        -5229.6877 eV
Extrapolated to 0K:               -192.1874903710 H        -5229.6877 eV
Total Mermin free energy:         -192.1874903710 H        -5229.6877 eV
Force related energy:             -192.1874903710 H        -5229.6877 eV

Volume:                              0.945706E+04 au^3   0.140139E+04 A^3
Pressure:                            0.390717E-03 au     0.114953E+11 Pa
>> Charges saved for restart in charges.bin

total energy  -1.9218749E+02 H       energy change -1.2572074E-01 H
gradient norm  2.7616623E-01 H/a0    max. gradient  6.8266026E-02 H/a0
step length    4.0462058E-01 a0      max. step      1.1195993E-01 a0

--------------------------------------------------------------------------------

***  Geometry step: 3

 iSCC Total electronic   Diff electronic      SCC error    
    1   -0.19506938E+03    0.00000000E+00    0.40591485E-01
    2   -0.19484334E+03    0.22603690E+00    0.21855778E-01
    3   -0.19484509E+03   -0.17521947E-02    0.51506412E-02
    4   -0.19484554E+03   -0.44934733E-03    0.71610160E-03
    5   -0.19484555E+03   -0.51124756E-05    0.18198424E-03
    6   -0.19484555E+03   -0.35482756E-06    0.66526144E-04
    7   -0.19484555E+03   -0.19156118E-07    0.12685389E-04
    8   -0.19484555E+03   -0.88840579E-09    0.15118196E-05
    9   -0.19484555E+03   -0.34674486E-10    0.45886952E-06
   10   -0.19484555E+03   -0.16768809E-11    0.16531001E-06
   11   -0.19484555E+03   -0.56843419E-13    0.15901025E-07
   12   -0.19484555E+03    0.56843419E-13    0.32863006E-08

Total Energy:                     -192.2629607205 H        -5231.7413 eV
Extrapolated to 0K:               -192.2629607205 H        -5231.7413 eV
Total Mermin free energy:         -192.2629607205 H        -5231.7413 eV
Force related energy:             -192.2629607205 H        -5231.7413 eV

Volume:                              0.957225E+04 au^3   0.141846E+04 A^3
Pressure:                            0.274115E-03 au     0.806473E+10 Pa
>> Charges saved for restart in charges.bin

total energy  -1.9226296E+02 H       energy change -7.5470350E-02 H
gradient norm  1.7892393E-01 H/a0    max. gradient  6.4465924E-02 H/a0
step length    4.5411672E-01 a0      max. step      9.9968244E-02 a0

--------------------------------------------------------------------------------

***  Geometry step: 4

 iSCC Total electronic   Diff electronic      SCC error    
    1   -0.19484555E+03    0.00000000E+00    0.42060210E-01
    2   -0.19463731E+03    0.20823731E+00    0.17900657E-01
    3   -0.19463806E+03   -0.74513088E-03    0.32547713E-02
    4   -0.19463823E+03   -0.16855876E-03    0.83246748E-03
    5   -0.19463823E+03   -0.39649966E-05    0.13794883E-03
    6   -0.19463823E+03   -0.30116519E-06    0.72019722E-04
    7   -0.19463823E+03   -0.46985917E-08    0.88251278E-05
    8   -0.19463823E+03   -0.54706106E-09    0.14267064E-05
    9   -0.19463823E+03   -0.39250381E-10    0.35004186E-06
   10   -0.19463823E+03   -0.96633812E-12    0.11036545E-06
   11   -0.19463823E+03   -0.28421709E-13    0.18122170E-07
   12   -0.19463823E+03    0.00000000E+00    0.30813769E-08

Total Energy:                     -192.3005806471 H        -5232.7650 eV
Extrapolated to 0K:               -192.3005806471 H        -5232.7650 eV
Total Mermin free energy:         -192.3005806471 H        -5232.7650 eV
Force related energy:             -192.3005806471 H        -5232.7650 eV

Volume:                              0.966993E+04 au^3   0.143294E+04 A^3
Pressure:                            0.178604E-03 au     0.525472E+10 Pa
>> Charges saved for restart in charges.bin

total energy  -1.9230058E+02 H       energy change -3.7619927E-02 H
gradient norm  1.9589255E-01 H/a0    max. gradient  9.2779869E-02 H/a0
step length    4.3386189E-01 a0      max. step      1.0805918E-01 a0

--------------------------------------------------------------------------------

***  Geometry step: 5

 iSCC Total electronic   Diff electronic      SCC error    
    1   -0.19463823E+03    0.00000000E+00    0.33105892E-01
    2   -0.19446173E+03    0.17650342E+00    0.15010993E-01
    3   -0.19446235E+03   -0.62360526E-03    0.24417410E-02
    4   -0.19446250E+03   -0.14886275E-03    0.49874693E-03
    5   -0.19446250E+03   -0.18434040E-05    0.63266554E-04
    6   -0.19446250E+03   -0.17418878E-06    0.29567350E-04
    7   -0.19446250E+03   -0.31836862E-08    0.71517172E-05
    8   -0.19446250E+03   -0.28285285E-09    0.10339835E-05
    9   -0.19446250E+03   -0.14864554E-10    0.27295371E-06
   10   -0.19446250E+03   -0.62527761E-12    0.63187280E-07
   11   -0.19446250E+03   -0.17053026E-12    0.11546185E-07
   12   -0.19446250E+03    0.56843419E-13    0.20220505E-08

Total Energy:                     -192.3222249330 H        -5233.3540 eV
Extrapolated to 0K:               -192.3222249330 H        -5233.3540 eV
Total Mermin free energy:         -192.3222249330 H        -5233.3540 eV
Force related energy:             -192.3222249330 H        -5233.3540 eV

Volume:                              0.975974E+04 au^3   0.144625E+04 A^3
Pressure:                            0.996302E-04 au     0.293122E+10 Pa
>> Charges saved for restart in charges.bin

total energy  -1.9232222E+02 H       energy change -2.1644286E-02 H
gradient norm  1.3256539E-01 H/a0    max. gradient  6.1843136E-02 H/a0
step length    3.6197515E-01 a0      max. step      8.9645352E-02 a0

--------------------------------------------------------------------------------

***  Geometry step: 6

 iSCC Total electronic   Diff electronic      SCC error    
    1   -0.19446250E+03    0.00000000E+00    0.18010062E-01
    2   -0.19438054E+03    0.81964681E-01    0.77928636E-02
    3   -0.19438088E+03   -0.34595226E-03    0.17013822E-02
    4   -0.19438095E+03   -0.70618772E-04    0.41667035E-03
    5   -0.19438095E+03   -0.62109055E-06    0.41057383E-04
    6   -0.19438095E+03   -0.40068812E-07    0.22580610E-04
    7   -0.19438095E+03   -0.11854695E-08    0.39959714E-05
    8   -0.19438095E+03   -0.15293722E-09    0.95403926E-06
    9   -0.19438095E+03   -0.34674486E-11    0.13951651E-06
   10   -0.19438095E+03   -0.56843419E-13    0.35846582E-07
   11   -0.19438095E+03    0.00000000E+00    0.40761874E-08

Total Energy:                     -192.3336814301 H        -5233.6658 eV
Extrapolated to 0K:               -192.3336814301 H        -5233.6658 eV
Total Mermin free energy:         -192.3336814301 H        -5233.6658 eV
Force related energy:             -192.3336814301 H        -5233.6658 eV

Volume:                              0.980336E+04 au^3   0.145271E+04 A^3
Pressure:                            0.599307E-04 au     0.176322E+10 Pa
>> Charges saved for restart in charges.bin

total energy  -1.9233368E+02 H       energy change -1.1456497E-02 H
gradient norm  9.7614594E-02 H/a0    max. gradient  3.4361971E-02 H/a0
step length    2.2963208E-01 a0      max. step      5.5964767E-02 a0

--------------------------------------------------------------------------------

***  Geometry step: 7

 iSCC Total electronic   Diff electronic      SCC error    
    1   -0.19438095E+03    0.00000000E+00    0.14566923E-01
    2   -0.19435359E+03    0.27361275E-01    0.72860095E-02
    3   -0.19435385E+03   -0.26227264E-03    0.26542811E-02
    4   -0.19435391E+03   -0.59431960E-04    0.42918529E-03
    5   -0.19435391E+03   -0.75051901E-06    0.50914002E-04
    6   -0.19435391E+03   -0.88582055E-07    0.13145556E-04
    7   -0.19435391E+03   -0.16863737E-08    0.51993120E-05
    8   -0.19435391E+03   -0.10030021E-09    0.57416567E-06
    9   -0.19435391E+03   -0.52011728E-11    0.17312905E-06
   10   -0.19435391E+03   -0.39790393E-12    0.21523991E-07
   11   -0.19435391E+03    0.56843419E-13    0.40213894E-08

Total Energy:                     -192.3440204198 H        -5233.9471 eV
Extrapolated to 0K:               -192.3440204198 H        -5233.9471 eV
Total Mermin free energy:         -192.3440204198 H        -5233.9471 eV
Force related energy:             -192.3440204198 H        -5233.9471 eV

Volume:                              0.981514E+04 au^3   0.145445E+04 A^3
Pressure:                            0.446292E-04 au     0.131304E+10 Pa
>> Charges saved for restart in charges.bin

total energy  -1.9234402E+02 H       energy change -1.0338990E-02 H
gradient norm  6.7754979E-02 H/a0    max. gradient  2.1649581E-02 H/a0
step length    2.2448511E-01 a0      max. step      4.8426754E-02 a0

--------------------------------------------------------------------------------

***  Geometry step: 8

 iSCC Total electronic   Diff electronic      SCC error    
    1   -0.19435391E+03    0.00000000E+00    0.13119646E-01
    2   -0.19435911E+03   -0.51942302E-02    0.83287666E-02
    3   -0.19435926E+03   -0.14789063E-03    0.20178117E-02
    4   -0.19435930E+03   -0.40041361E-04    0.19237014E-03
    5   -0.19435930E+03   -0.11188046E-05    0.41610208E-04
    6   -0.19435930E+03   -0.54617146E-07    0.14550167E-04
    7   -0.19435930E+03   -0.13401973E-08    0.39273574E-05
    8   -0.19435930E+03   -0.11641532E-09    0.44331375E-06
    9   -0.19435930E+03   -0.36379788E-11    0.13002956E-06
   10   -0.19435930E+03   -0.25579538E-12    0.21144120E-07
   11   -0.19435930E+03    0.00000000E+00    0.34785264E-08

Total Energy:                     -192.3504824919 H        -5234.1229 eV
Extrapolated to 0K:               -192.3504824919 H        -5234.1229 eV
Total Mermin free energy:         -192.3504824919 H        -5234.1229 eV
Force related energy:             -192.3504824919 H        -5234.1229 eV

Volume:                              0.980745E+04 au^3   0.145332E+04 A^3
Pressure:                            0.431756E-04 au     0.127027E+10 Pa
>> Charges saved for restart in charges.bin

total energy  -1.9235048E+02 H       energy change -6.4620721E-03 H
gradient norm  5.1729373E-02 H/a0    max. gradient  1.0574291E-02 H/a0
step length    2.1938015E-01 a0      max. step      4.2750880E-02 a0

--------------------------------------------------------------------------------

***  Geometry step: 9

 iSCC Total electronic   Diff electronic      SCC error    
    1   -0.19435930E+03    0.00000000E+00    0.88842447E-02
    2   -0.19436033E+03   -0.10285350E-02    0.55257606E-02
    3   -0.19436038E+03   -0.55668687E-04    0.15958647E-02
    4   -0.19436040E+03   -0.13177271E-04    0.14673949E-03
    5   -0.19436040E+03   -0.41026763E-06    0.34012454E-04
    6   -0.19436040E+03   -0.35310535E-07    0.61565728E-05
    7   -0.19436040E+03   -0.12970816E-08    0.18909214E-05
    8   -0.19436040E+03   -0.49482196E-10    0.40285450E-06
    9   -0.19436040E+03   -0.28137492E-11    0.55923107E-07
   10   -0.19436040E+03   -0.17053026E-12    0.10162257E-07
   11   -0.19436040E+03   -0.11368684E-12    0.26792009E-08

Total Energy:                     -192.3537798992 H        -5234.2127 eV
Extrapolated to 0K:               -192.3537798992 H        -5234.2127 eV
Total Mermin free energy:         -192.3537798992 H        -5234.2127 eV
Force related energy:             -192.3537798992 H        -5234.2127 eV

Volume:                              0.980603E+04 au^3   0.145310E+04 A^3
Pressure:                            0.422278E-04 au     0.124239E+10 Pa
>> Charges saved for restart in charges.bin

total energy  -1.9235378E+02 H       energy change -3.2974073E-03 H
gradient norm  4.1794723E-02 H/a0    max. gradient  7.7275040E-03 H/a0
step length    1.5781474E-01 a0      max. step      2.8514446E-02 a0

--------------------------------------------------------------------------------

***  Geometry step: 10

 iSCC Total electronic   Diff electronic      SCC error    
    1   -0.19436040E+03    0.00000000E+00    0.72830728E-02
    2   -0.19435409E+03    0.63031870E-02    0.31856082E-02
    3   -0.19435414E+03   -0.52118837E-04    0.10593088E-02
    4   -0.19435416E+03   -0.11559079E-04    0.12342178E-03
    5   -0.19435416E+03   -0.26742055E-06    0.25753922E-04
    6   -0.19435416E+03   -0.17804126E-07    0.82697495E-05
    7   -0.19435416E+03   -0.70323836E-09    0.29999366E-05
    8   -0.19435416E+03   -0.40984105E-10    0.30166320E-06
    9   -0.19435416E+03   -0.19042545E-11    0.54565807E-07
   10   -0.19435416E+03   -0.14210855E-12    0.15951603E-07
   11   -0.19435416E+03   -0.28421709E-13    0.22640392E-08

Total Energy:                     -192.3565196498 H        -5234.2872 eV
Extrapolated to 0K:               -192.3565196498 H        -5234.2872 eV
Total Mermin free energy:         -192.3565196498 H        -5234.2872 eV
Force related energy:             -192.3565196498 H        -5234.2872 eV

Volume:                              0.981196E+04 au^3   0.145398E+04 A^3
Pressure:                            0.370468E-04 au     0.108995E+10 Pa
>> Charges saved for restart in charges.bin

total energy  -1.9235652E+02 H       energy change -2.7397506E-03 H
gradient norm  3.7555283E-02 H/a0    max. gradient  1.1933361E-02 H/a0
step length    1.5952614E-01 a0      max. step      3.0954069E-02 a0

--------------------------------------------------------------------------------

***  Geometry step: 11

 iSCC Total electronic   Diff electronic      SCC error    
    1   -0.19435416E+03    0.00000000E+00    0.70146722E-02
    2   -0.19435008E+03    0.40812228E-02    0.40762989E-02
    3   -0.19435012E+03   -0.45714223E-04    0.10366227E-02
    4   -0.19435013E+03   -0.11332591E-04    0.12065599E-03
    5   -0.19435013E+03   -0.24693645E-06    0.33067024E-04
    6   -0.19435013E+03   -0.15294546E-07    0.13404152E-04
    7   -0.19435013E+03   -0.23453595E-09    0.23198687E-05
    8   -0.19435013E+03   -0.31946001E-10    0.23103611E-06
    9   -0.19435013E+03   -0.12505552E-11    0.73203294E-07
   10   -0.19435013E+03   -0.28421709E-13    0.11930562E-07
   11   -0.19435013E+03   -0.85265128E-13    0.17259376E-08

Total Energy:                     -192.3588103036 H        -5234.3495 eV
Extrapolated to 0K:               -192.3588103036 H        -5234.3495 eV
Total Mermin free energy:         -192.3588103036 H        -5234.3495 eV
Force related energy:             -192.3588103036 H        -5234.3495 eV

Volume:                              0.982217E+04 au^3   0.145550E+04 A^3
Pressure:                            0.328821E-04 au     0.967424E+09 Pa
>> Charges saved for restart in charges.bin

total energy  -1.9235881E+02 H       energy change -2.2906538E-03 H
gradient norm  3.7697595E-02 H/a0    max. gradient  1.1420281E-02 H/a0
step length    1.4452777E-01 a0      max. step      2.7966227E-02 a0

--------------------------------------------------------------------------------

***  Geometry step: 12

 iSCC Total electronic   Diff electronic      SCC error    
    1   -0.19435013E+03    0.00000000E+00    0.78048186E-02
    2   -0.19434285E+03    0.72814770E-02    0.44428968E-02
    3   -0.19434288E+03   -0.28352923E-04    0.85034421E-03
    4   -0.19434289E+03   -0.74283510E-05    0.11842239E-03
    5   -0.19434289E+03   -0.27690163E-06    0.38103509E-04
    6   -0.19434289E+03   -0.10325039E-07    0.13213578E-04
    7   -0.19434289E+03   -0.10149392E-09    0.11701192E-05
    8   -0.19434289E+03   -0.18474111E-10    0.28170651E-06
    9   -0.19434289E+03   -0.11368684E-11    0.75833715E-07
   10   -0.19434289E+03   -0.11368684E-12    0.62474825E-08

Total Energy:                     -192.3608843849 H        -5234.4060 eV
Extrapolated to 0K:               -192.3608843849 H        -5234.4060 eV
Total Mermin free energy:         -192.3608843849 H        -5234.4060 eV
Force related energy:             -192.3608843849 H        -5234.4060 eV

Volume:                              0.984173E+04 au^3   0.145839E+04 A^3
Pressure:                            0.282913E-04 au     0.832357E+09 Pa
>> Charges saved for restart in charges.bin

total energy  -1.9236088E+02 H       energy change -2.0740813E-03 H
gradient norm  3.4247594E-02 H/a0    max. gradient  1.1363905E-02 H/a0
step length    1.4917931E-01 a0      max. step      2.8706792E-02 a0

--------------------------------------------------------------------------------

***  Geometry step: 13

 iSCC Total electronic   Diff electronic      SCC error    
    1   -0.19434289E+03    0.00000000E+00    0.59028462E-02
    2   -0.19433517E+03    0.77185120E-02    0.36910223E-02
    3   -0.19433520E+03   -0.27577013E-04    0.94559228E-03
    4   -0.19433520E+03   -0.64408390E-05    0.15003042E-03
    5   -0.19433520E+03   -0.25975967E-06    0.40177651E-04
    6   -0.19433520E+03   -0.15209878E-07    0.12117133E-04
    7   -0.19433520E+03   -0.24940050E-09    0.20895390E-05
    8   -0.19433520E+03   -0.93223207E-11    0.30639232E-06
    9   -0.19433520E+03   -0.19042545E-11    0.69834236E-07
   10   -0.19433520E+03   -0.11368684E-12    0.57838410E-08

Total Energy:                     -192.3626236536 H        -5234.4533 eV
Extrapolated to 0K:               -192.3626236536 H        -5234.4533 eV
Total Mermin free energy:         -192.3626236536 H        -5234.4533 eV
Force related energy:             -192.3626236536 H        -5234.4533 eV

Volume:                              0.986410E+04 au^3   0.146171E+04 A^3
Pressure:                            0.229842E-04 au     0.676219E+09 Pa
>> Charges saved for restart in charges.bin

total energy  -1.9236262E+02 H       energy change -1.7392687E-03 H
gradient norm  2.9550250E-02 H/a0    max. gradient  9.3766543E-03 H/a0
step length    1.5011955E-01 a0      max. step      2.8563076E-02 a0

--------------------------------------------------------------------------------

***  Geometry step: 14

 iSCC Total electronic   Diff electronic      SCC error    
    1   -0.19433520E+03    0.00000000E+00    0.56789606E-02
    2   -0.19433071E+03    0.44968765E-02    0.29020979E-02
    3   -0.19433074E+03   -0.32024004E-04    0.85611062E-03
    4   -0.19433075E+03   -0.74147331E-05    0.12752181E-03
    5   -0.19433075E+03   -0.18712282E-06    0.22199479E-04
    6   -0.19433075E+03   -0.16249231E-07    0.41270783E-05
    7   -0.19433075E+03   -0.41569592E-09    0.12409623E-05
    8   -0.19433075E+03   -0.27711167E-10    0.31943396E-06
    9   -0.19433075E+03   -0.11937118E-11    0.35596385E-07
   10   -0.19433075E+03   -0.28421709E-13    0.77031701E-08

Total Energy:                     -192.3639894841 H        -5234.4905 eV
Extrapolated to 0K:               -192.3639894841 H        -5234.4905 eV
Total Mermin free energy:         -192.3639894841 H        -5234.4905 eV
Force related energy:             -192.3639894841 H        -5234.4905 eV

Volume:                              0.988544E+04 au^3   0.146487E+04 A^3
Pressure:                            0.185486E-04 au     0.545719E+09 Pa
>> Charges saved for restart in charges.bin

total energy  -1.9236399E+02 H       energy change -1.3658305E-03 H
gradient norm  2.6858830E-02 H/a0    max. gradient  7.5869941E-03 H/a0
step length    1.3301381E-01 a0      max. step      2.6678187E-02 a0

--------------------------------------------------------------------------------

***  Geometry step: 15

 iSCC Total electronic   Diff electronic      SCC error    
    1   -0.19433075E+03    0.00000000E+00    0.45933526E-02
    2   -0.19433268E+03   -0.19362275E-02    0.21863322E-02
    3   -0.19433271E+03   -0.26681991E-04    0.65411800E-03
    4   -0.19433271E+03   -0.62345971E-05    0.10530887E-03
    5   -0.19433271E+03   -0.12921083E-06    0.24303384E-04
    6   -0.19433271E+03   -0.13243181E-07    0.87821240E-05
    7   -0.19433271E+03   -0.44948933E-09    0.25319828E-05
    8   -0.19433271E+03   -0.20719426E-10    0.33939002E-06
    9   -0.19433271E+03   -0.10516032E-11    0.51469173E-07
   10   -0.19433271E+03   -0.11368684E-12    0.12871814E-07
   11   -0.19433271E+03    0.28421709E-13    0.84380680E-09

Total Energy:                     -192.3651337817 H        -5234.5216 eV
Extrapolated to 0K:               -192.3651337817 H        -5234.5216 eV
Total Mermin free energy:         -192.3651337817 H        -5234.5216 eV
Force related energy:             -192.3651337817 H        -5234.5216 eV

Volume:                              0.990076E+04 au^3   0.146714E+04 A^3
Pressure:                            0.173070E-04 au     0.509190E+09 Pa
>> Charges saved for restart in charges.bin

total energy  -1.9236513E+02 H       energy change -1.1442976E-03 H
gradient norm  2.6151546E-02 H/a0    max. gradient  5.3638921E-03 H/a0
step length    1.1813199E-01 a0      max. step      2.3994939E-02 a0

--------------------------------------------------------------------------------

***  Geometry step: 16

 iSCC Total electronic   Diff electronic      SCC error    
    1   -0.19433271E+03    0.00000000E+00    0.51925040E-02
    2   -0.19433515E+03   -0.24341255E-02    0.29390467E-02
    3   -0.19433517E+03   -0.16953910E-04    0.60805568E-03
    4   -0.19433517E+03   -0.36833206E-05    0.87628026E-04
    5   -0.19433517E+03   -0.10521336E-06    0.35808587E-04
    6   -0.19433517E+03   -0.10152291E-07    0.85692713E-05
    7   -0.19433517E+03   -0.29308467E-09    0.20233227E-05
    8   -0.19433517E+03   -0.65085715E-11    0.28512664E-06
    9   -0.19433517E+03   -0.13073986E-11    0.55721575E-07
   10   -0.19433517E+03   -0.56843419E-13    0.85188918E-08

Total Energy:                     -192.3661793404 H        -5234.5501 eV
Extrapolated to 0K:               -192.3661793404 H        -5234.5501 eV
Total Mermin free energy:         -192.3661793404 H        -5234.5501 eV
Force related energy:             -192.3661793404 H        -5234.5501 eV

Volume:                              0.991541E+04 au^3   0.146931E+04 A^3
Pressure:                            0.165646E-04 au     0.487348E+09 Pa
>> Charges saved for restart in charges.bin

total energy  -1.9236618E+02 H       energy change -1.0455587E-03 H
gradient norm  2.5403133E-02 H/a0    max. gradient  6.0641387E-03 H/a0
step length    1.2288361E-01 a0      max. step      2.3838913E-02 a0

--------------------------------------------------------------------------------

***  Geometry step: 17

 iSCC Total electronic   Diff electronic      SCC error    
    1   -0.19433517E+03    0.00000000E+00    0.49036513E-02
    2   -0.19433632E+03   -0.11489771E-02    0.27304969E-02
    3   -0.19433633E+03   -0.12331934E-04    0.62709850E-03
    4   -0.19433633E+03   -0.25511288E-05    0.85804797E-04
    5   -0.19433633E+03   -0.63623048E-07    0.26515102E-04
    6   -0.19433633E+03   -0.55052567E-08    0.66474835E-05
    7   -0.19433633E+03   -0.13130830E-09    0.16880673E-05
    8   -0.19433633E+03   -0.42064130E-11    0.25384540E-06
    9   -0.19433633E+03   -0.76738615E-12    0.51246032E-07
   10   -0.19433633E+03   -0.28421709E-13    0.64572308E-08

Total Energy:                     -192.3671313092 H        -5234.5760 eV
Extrapolated to 0K:               -192.3671313092 H        -5234.5760 eV
Total Mermin free energy:         -192.3671313092 H        -5234.5760 eV
Force related energy:             -192.3671313092 H        -5234.5760 eV

Volume:                              0.992913E+04 au^3   0.147135E+04 A^3
Pressure:                            0.156814E-04 au     0.461362E+09 Pa
>> Charges saved for restart in charges.bin

total energy  -1.9236713E+02 H       energy change -9.5196882E-04 H
gradient norm  2.2679065E-02 H/a0    max. gradient  5.4024963E-03 H/a0
step length    1.2061917E-01 a0      max. step      2.0745013E-02 a0

--------------------------------------------------------------------------------

***  Geometry step: 18

 iSCC Total electronic   Diff electronic      SCC error    
    1   -0.19433633E+03    0.00000000E+00    0.44059416E-02
    2   -0.19433425E+03    0.20854583E-02    0.22335526E-02
    3   -0.19433427E+03   -0.21453417E-04    0.75568620E-03
    4   -0.19433427E+03   -0.46118928E-05    0.12265916E-03
    5   -0.19433427E+03   -0.67506335E-07    0.20501384E-04
    6   -0.19433427E+03   -0.77492359E-08    0.70523984E-05
    7   -0.19433427E+03   -0.14722445E-09    0.22416908E-05
    8   -0.19433427E+03   -0.34390268E-11    0.28757550E-06
    9   -0.19433427E+03   -0.82422957E-12    0.59021277E-07
   10   -0.19433427E+03   -0.14210855E-12    0.82116487E-08

Total Energy:                     -192.3680255219 H        -5234.6003 eV
Extrapolated to 0K:               -192.3680255219 H        -5234.6003 eV
Total Mermin free energy:         -192.3680255219 H        -5234.6003 eV
Force related energy:             -192.3680255219 H        -5234.6003 eV

Volume:                              0.994618E+04 au^3   0.147387E+04 A^3
Pressure:                            0.141547E-04 au     0.416447E+09 Pa
>> Charges saved for restart in charges.bin

total energy  -1.9236803E+02 H       energy change -8.9421270E-04 H
gradient norm  2.1151574E-02 H/a0    max. gradient  6.8850014E-03 H/a0
step length    1.3222660E-01 a0      max. step      2.4080764E-02 a0

--------------------------------------------------------------------------------

***  Geometry step: 19

 iSCC Total electronic   Diff electronic      SCC error    
    1   -0.19433427E+03    0.00000000E+00    0.47495741E-02
    2   -0.19433003E+03    0.42482038E-02    0.21224196E-02
    3   -0.19433004E+03   -0.14516716E-04    0.46829504E-03
    4   -0.19433004E+03   -0.32328622E-05    0.64710184E-04
    5   -0.19433004E+03   -0.43390372E-07    0.10013647E-04
    6   -0.19433004E+03   -0.34349910E-08    0.42564090E-05
    7   -0.19433004E+03   -0.45247361E-10    0.13267568E-05
    8   -0.19433004E+03   -0.30127012E-11    0.22050110E-06
    9   -0.19433004E+03   -0.34106051E-12    0.42704090E-07
   10   -0.19433004E+03    0.00000000E+00    0.52683693E-08

Total Energy:                     -192.3687068092 H        -5234.6188 eV
Extrapolated to 0K:               -192.3687068092 H        -5234.6188 eV
Total Mermin free energy:         -192.3687068092 H        -5234.6188 eV
Force related energy:             -192.3687068092 H        -5234.6188 eV

Volume:                              0.996211E+04 au^3   0.147623E+04 A^3
Pressure:                            0.117006E-04 au     0.344243E+09 Pa
>> Charges saved for restart in charges.bin

total energy  -1.9236871E+02 H       energy change -6.8128726E-04 H
gradient norm  2.0454623E-02 H/a0    max. gradient  5.6768670E-03 H/a0
step length    1.1111443E-01 a0      max. step      2.1401280E-02 a0

--------------------------------------------------------------------------------

***  Geometry step: 20

 iSCC Total electronic   Diff electronic      SCC error    
    1   -0.19433004E+03    0.00000000E+00    0.44325949E-02
    2   -0.19432402E+03    0.60232939E-02    0.20037546E-02
    3   -0.19432403E+03   -0.10989755E-04    0.44935288E-03
    4   -0.19432403E+03   -0.25677708E-05    0.59636290E-04
    5   -0.19432403E+03   -0.59716029E-07    0.12425243E-04
    6   -0.19432403E+03   -0.37015013E-08    0.45295237E-05
    7   -0.19432403E+03   -0.94587449E-10    0.10864273E-05
    8   -0.19432403E+03   -0.43485215E-11    0.15055236E-06
    9   -0.19432403E+03   -0.48316906E-12    0.28706689E-07
   10   -0.19432403E+03    0.56843419E-13    0.58205862E-08

Total Energy:                     -192.3693368295 H        -5234.6360 eV
Extrapolated to 0K:               -192.3693368295 H        -5234.6360 eV
Total Mermin free energy:         -192.3693368295 H        -5234.6360 eV
Force related energy:             -192.3693368295 H        -5234.6360 eV

Volume:                              0.998032E+04 au^3   0.147893E+04 A^3
Pressure:                            0.837007E-05 au     0.246256E+09 Pa
>> Charges saved for restart in charges.bin

total energy  -1.9236934E+02 H       energy change -6.3002028E-04 H
gradient norm  1.9236961E-02 H/a0    max. gradient  4.1983290E-03 H/a0
step length    1.0982351E-01 a0      max. step      2.2677308E-02 a0

--------------------------------------------------------------------------------

***  Geometry step: 21

 iSCC Total electronic   Diff electronic      SCC error    
    1   -0.19432403E+03    0.00000000E+00    0.25086931E-02
    2   -0.19432086E+03    0.31699308E-02    0.14157115E-02
    3   -0.19432087E+03   -0.75571847E-05    0.42016779E-03
    4   -0.19432087E+03   -0.17358746E-05    0.43114630E-04
    5   -0.19432087E+03   -0.57100635E-07    0.11151154E-04
    6   -0.19432087E+03   -0.26904559E-08    0.34168683E-05
    7   -0.19432087E+03   -0.96406438E-10    0.81055905E-06
    8   -0.19432087E+03   -0.31832315E-11    0.18009436E-06
    9   -0.19432087E+03   -0.31263880E-12    0.29032624E-07
   10   -0.19432087E+03   -0.28421709E-13    0.66469643E-08

Total Energy:                     -192.3698964795 H        -5234.6512 eV
Extrapolated to 0K:               -192.3698964795 H        -5234.6512 eV
Total Mermin free energy:         -192.3698964795 H        -5234.6512 eV
Force related energy:             -192.3698964795 H        -5234.6512 eV

Volume:                              0.999649E+04 au^3   0.148133E+04 A^3
Pressure:                            0.586953E-05 au     0.172687E+09 Pa
>> Charges saved for restart in charges.bin

total energy  -1.9236990E+02 H       energy change -5.5965009E-04 H
gradient norm  1.6463077E-02 H/a0    max. gradient  3.3154286E-03 H/a0
step length    1.0263895E-01 a0      max. step      2.2363743E-02 a0

--------------------------------------------------------------------------------

***  Geometry step: 22

 iSCC Total electronic   Diff electronic      SCC error    
    1   -0.19432087E+03    0.00000000E+00    0.32610106E-02
    2   -0.19432077E+03    0.98861331E-04    0.14476158E-02
    3   -0.19432078E+03   -0.84951249E-05    0.52389737E-03
    4   -0.19432079E+03   -0.18915445E-05    0.60853525E-04
    5   -0.19432079E+03   -0.42374666E-07    0.10571804E-04
    6   -0.19432079E+03   -0.25264910E-08    0.31670452E-05
    7   -0.19432079E+03   -0.89926289E-10    0.83495465E-06
    8   -0.19432079E+03   -0.31548097E-11    0.20606555E-06
    9   -0.19432079E+03   -0.17053026E-12    0.29674675E-07
   10   -0.19432079E+03   -0.85265128E-13    0.68091888E-08

Total Energy:                     -192.3703430838 H        -5234.6634 eV
Extrapolated to 0K:               -192.3703430838 H        -5234.6634 eV
Total Mermin free energy:         -192.3703430838 H        -5234.6634 eV
Force related energy:             -192.3703430838 H        -5234.6634 eV

Volume:                              0.100094E+05 au^3   0.148324E+04 A^3
Pressure:                            0.476826E-05 au     0.140287E+09 Pa
>> Charges saved for restart in charges.bin

total energy  -1.9237034E+02 H       energy change -4.4660421E-04 H
gradient norm  1.5193908E-02 H/a0    max. gradient  4.5355380E-03 H/a0
step length    8.8503172E-02 a0      max. step      1.9474523E-02 a0

--------------------------------------------------------------------------------

***  Geometry step: 23

 iSCC Total electronic   Diff electronic      SCC error    
    1   -0.19432079E+03    0.00000000E+00    0.30617970E-02
    2   -0.19432333E+03   -0.25432625E-02    0.16551465E-02
    3   -0.19432334E+03   -0.91281672E-05    0.51108383E-03
    4   -0.19432334E+03   -0.20401212E-05    0.61915595E-04
    5   -0.19432334E+03   -0.31948332E-07    0.14378008E-04
    6   -0.19432334E+03   -0.21137794E-08    0.43026927E-05
    7   -0.19432334E+03   -0.44479975E-10    0.66995837E-06
    8   -0.19432334E+03   -0.21600499E-11    0.15031075E-06
    9   -0.19432334E+03   -0.28421709E-12    0.32289477E-07
   10   -0.19432334E+03    0.11368684E-12    0.40825774E-08

Total Energy:                     -192.3706908179 H        -5234.6728 eV
Extrapolated to 0K:               -192.3706908179 H        -5234.6728 eV
Total Mermin free energy:         -192.3706908179 H        -5234.6728 eV
Force related energy:             -192.3706908179 H        -5234.6728 eV

Volume:                              0.100190E+05 au^3   0.148466E+04 A^3
Pressure:                            0.479109E-05 au     0.140959E+09 Pa
>> Charges saved for restart in charges.bin

total energy  -1.9237069E+02 H       energy change -3.4773414E-04 H
gradient norm  1.3760760E-02 H/a0    max. gradient  4.1049640E-03 H/a0
step length    7.9452503E-02 a0      max. step      1.6658923E-02 a0

--------------------------------------------------------------------------------

***  Geometry step: 24

 iSCC Total electronic   Diff electronic      SCC error    
    1   -0.19432334E+03    0.00000000E+00    0.22299315E-02
    2   -0.19432544E+03   -0.21018506E-02    0.12457168E-02
    3   -0.19432545E+03   -0.47796794E-05    0.31590677E-03
    4   -0.19432545E+03   -0.11085667E-05    0.37711133E-04
    5   -0.19432545E+03   -0.21011857E-07    0.10389267E-04
    6   -0.19432545E+03   -0.93592689E-09    0.22004529E-05
    7   -0.19432545E+03   -0.14694024E-10    0.35899580E-06
    8   -0.19432545E+03   -0.76738615E-12    0.80754907E-07
    9   -0.19432545E+03   -0.17053026E-12    0.13009122E-07
   10   -0.19432545E+03    0.28421709E-13    0.14692336E-08

Total Energy:                     -192.3709379365 H        -5234.6796 eV
Extrapolated to 0K:               -192.3709379365 H        -5234.6796 eV
Total Mermin free energy:         -192.3709379365 H        -5234.6796 eV
Force related energy:             -192.3709379365 H        -5234.6796 eV

Volume:                              0.100266E+05 au^3   0.148579E+04 A^3
Pressure:                            0.500480E-05 au     0.147246E+09 Pa
>> Charges saved for restart in charges.bin

total energy  -1.9237094E+02 H       energy change -2.4711858E-04 H
gradient norm  1.2091867E-02 H/a0    max. gradient  2.6925909E-03 H/a0
step length    6.0984027E-02 a0      max. step      1.2489799E-02 a0

--------------------------------------------------------------------------------

***  Geometry step: 25

 iSCC Total electronic   Diff electronic      SCC error    
    1   -0.19432545E+03    0.00000000E+00    0.21231090E-02
    2   -0.19432702E+03   -0.15768135E-02    0.10627035E-02
    3   -0.19432703E+03   -0.33777636E-05    0.25358391E-03
    4   -0.19432703E+03   -0.79221311E-06    0.26322466E-04
    5   -0.19432703E+03   -0.21731296E-07    0.10063856E-04
    6   -0.19432703E+03   -0.62411232E-09    0.18717969E-05
    7   -0.19432703E+03   -0.98623332E-11    0.24748101E-06
    8   -0.19432703E+03   -0.45474735E-12    0.90354673E-07
    9   -0.19432703E+03   -0.14210855E-12    0.14853371E-07
   10   -0.19432703E+03    0.56843419E-13    0.15925199E-08

Total Energy:                     -192.3711544477 H        -5234.6855 eV
Extrapolated to 0K:               -192.3711544477 H        -5234.6855 eV
Total Mermin free energy:         -192.3711544477 H        -5234.6855 eV
Force related energy:             -192.3711544477 H        -5234.6855 eV

Volume:                              0.100337E+05 au^3   0.148684E+04 A^3
Pressure:                            0.515348E-05 au     0.151621E+09 Pa
>> Charges saved for restart in charges.bin

total energy  -1.9237115E+02 H       energy change -2.1651125E-04 H
gradient norm  1.1055708E-02 H/a0    max. gradient  2.0620105E-03 H/a0
step length    5.7622860E-02 a0      max. step      1.2696792E-02 a0

--------------------------------------------------------------------------------

***  Geometry step: 26

 iSCC Total electronic   Diff electronic      SCC error    
    1   -0.19432703E+03    0.00000000E+00    0.19239672E-02
    2   -0.19432675E+03    0.27925021E-03    0.10719189E-02
    3   -0.19432675E+03   -0.30956123E-05    0.26354273E-03
    4   -0.19432675E+03   -0.71714183E-06    0.21631070E-04
    5   -0.19432675E+03   -0.23418437E-07    0.67331611E-05
    6   -0.19432675E+03   -0.38872372E-09    0.19549278E-05
    7   -0.19432675E+03   -0.36664005E-11    0.25551995E-06
    8   -0.19432675E+03   -0.45474735E-12    0.77691265E-07
    9   -0.19432675E+03    0.85265128E-13    0.12070791E-07
   10   -0.19432675E+03   -0.14210855E-12    0.13538006E-08

Total Energy:                     -192.3713770473 H        -5234.6915 eV
Extrapolated to 0K:               -192.3713770473 H        -5234.6915 eV
Total Mermin free energy:         -192.3713770473 H        -5234.6915 eV
Force related energy:             -192.3713770473 H        -5234.6915 eV

Volume:                              0.100431E+05 au^3   0.148824E+04 A^3
Pressure:                            0.438770E-05 au     0.129090E+09 Pa
>> Charges saved for restart in charges.bin

total energy  -1.9237138E+02 H       energy change -2.2259963E-04 H
gradient norm  1.2236059E-02 H/a0    max. gradient  2.8838320E-03 H/a0
step length    6.3672069E-02 a0      max. step      1.4669258E-02 a0

--------------------------------------------------------------------------------

***  Geometry step: 27

 iSCC Total electronic   Diff electronic      SCC error    
    1   -0.19432675E+03    0.00000000E+00    0.23037955E-02
    2   -0.19432588E+03    0.87801309E-03    0.12020842E-02
    3   -0.19432588E+03   -0.48412873E-05    0.32783299E-03
    4   -0.19432588E+03   -0.10962235E-05    0.24041751E-04
    5   -0.19432588E+03   -0.29955942E-07    0.70109314E-05
    6   -0.19432588E+03   -0.70778583E-09    0.25757139E-05
    7   -0.19432588E+03   -0.56559202E-11    0.37917535E-06
    8   -0.19432588E+03   -0.59685590E-12    0.87828940E-07
    9   -0.19432588E+03    0.56843419E-13    0.23324783E-07
   10   -0.19432588E+03   -0.56843419E-13    0.16170070E-08

Total Energy:                     -192.3716435383 H        -5234.6988 eV
Extrapolated to 0K:               -192.3716435383 H        -5234.6988 eV
Total Mermin free energy:         -192.3716435383 H        -5234.6988 eV
Force related energy:             -192.3716435383 H        -5234.6988 eV

Volume:                              0.100554E+05 au^3   0.149006E+04 A^3
Pressure:                            0.301824E-05 au     0.887998E+08 Pa
>> Charges saved for restart in charges.bin

total energy  -1.9237164E+02 H       energy change -2.6649093E-04 H
gradient norm  1.4201110E-02 H/a0    max. gradient  3.4059001E-03 H/a0
step length    8.1862199E-02 a0      max. step      1.8214443E-02 a0

--------------------------------------------------------------------------------

***  Geometry step: 28

 iSCC Total electronic   Diff electronic      SCC error    
    1   -0.19432588E+03    0.00000000E+00    0.26180155E-02
    2   -0.19432438E+03    0.15056846E-02    0.12055462E-02
    3   -0.19432438E+03   -0.57151248E-05    0.30729071E-03
    4   -0.19432438E+03   -0.12367555E-05    0.37328768E-04
    5   -0.19432438E+03   -0.26529506E-07    0.11433575E-04
    6   -0.19432438E+03   -0.14254908E-08    0.32134079E-05
    7   -0.19432438E+03   -0.16029844E-10    0.59254957E-06
    8   -0.19432438E+03   -0.82422957E-12    0.14992876E-06
    9   -0.19432438E+03   -0.11368684E-12    0.30926637E-07
   10   -0.19432438E+03    0.28421709E-13    0.22480773E-08

Total Energy:                     -192.3719280061 H        -5234.7065 eV
Extrapolated to 0K:               -192.3719280061 H        -5234.7065 eV
Total Mermin free energy:         -192.3719280061 H        -5234.7065 eV
Force related energy:             -192.3719280061 H        -5234.7065 eV

Volume:                              0.100694E+05 au^3   0.149213E+04 A^3
Pressure:                            0.128589E-05 au     0.378323E+08 Pa
>> Charges saved for restart in charges.bin

total energy  -1.9237193E+02 H       energy change -2.8446780E-04 H
gradient norm  1.4463896E-02 H/a0    max. gradient  2.7120418E-03 H/a0
step length    9.2613096E-02 a0      max. step      2.1466295E-02 a0

--------------------------------------------------------------------------------

***  Geometry step: 29

 iSCC Total electronic   Diff electronic      SCC error    
    1   -0.19432438E+03    0.00000000E+00    0.20941740E-02
    2   -0.19432407E+03    0.30927678E-03    0.11779408E-02
    3   -0.19432408E+03   -0.56706145E-05    0.30071417E-03
    4   -0.19432408E+03   -0.12586441E-05    0.52642312E-04
    5   -0.19432408E+03   -0.28810177E-07    0.12936395E-04
    6   -0.19432408E+03   -0.16422064E-08    0.30053450E-05
    7   -0.19432408E+03   -0.19241497E-10    0.38333774E-06
    8   -0.19432408E+03   -0.10516032E-11    0.15836359E-06
    9   -0.19432408E+03   -0.17053026E-12    0.31432116E-07
   10   -0.19432408E+03   -0.85265128E-13    0.36917394E-08

Total Energy:                     -192.3722187111 H        -5234.7144 eV
Extrapolated to 0K:               -192.3722187111 H        -5234.7144 eV
Total Mermin free energy:         -192.3722187111 H        -5234.7144 eV
Force related energy:             -192.3722187111 H        -5234.7144 eV

Volume:                              0.100833E+05 au^3   0.149419E+04 A^3
Pressure:                           -0.213226E-06 au    -0.627332E+07 Pa
>> Charges saved for restart in charges.bin

total energy  -1.9237222E+02 H       energy change -2.9070497E-04 H
gradient norm  1.2479448E-02 H/a0    max. gradient  2.6118183E-03 H/a0
step length    1.0490548E-01 a0      max. step      2.2173885E-02 a0

--------------------------------------------------------------------------------

***  Geometry step: 30

 iSCC Total electronic   Diff electronic      SCC error    
    1   -0.19432408E+03    0.00000000E+00    0.21612706E-02
    2   -0.19432491E+03   -0.83208594E-03    0.91724294E-03
    3   -0.19432492E+03   -0.39208085E-05    0.30635340E-03
    4   -0.19432492E+03   -0.77637046E-06    0.37528129E-04
    5   -0.19432492E+03   -0.12121717E-07    0.79872853E-05
    6   -0.19432492E+03   -0.11973782E-08    0.20467331E-05
    7   -0.19432492E+03   -0.16939339E-10    0.45020262E-06
    8   -0.19432492E+03   -0.54001248E-12    0.74884440E-07
    9   -0.19432492E+03   -0.28421709E-13    0.20896381E-07
   10   -0.19432492E+03    0.28421709E-13    0.20185178E-08

Total Energy:                     -192.3724601498 H        -5234.7210 eV
Extrapolated to 0K:               -192.3724601498 H        -5234.7210 eV
Total Mermin free energy:         -192.3724601498 H        -5234.7210 eV
Force related energy:             -192.3724601498 H        -5234.7210 eV

Volume:                              0.100921E+05 au^3   0.149550E+04 A^3
Pressure:                           -0.891140E-06 au    -0.262182E+08 Pa
>> Charges saved for restart in charges.bin

total energy  -1.9237246E+02 H       energy change -2.4143879E-04 H
gradient norm  1.1512608E-02 H/a0    max. gradient  4.1112488E-03 H/a0
step length    8.4342741E-02 a0      max. step      1.8088269E-02 a0

--------------------------------------------------------------------------------

***  Geometry step: 31

 iSCC Total electronic   Diff electronic      SCC error    
    1   -0.19432492E+03    0.00000000E+00    0.19655551E-02
    2   -0.19432773E+03   -0.28139927E-02    0.99526643E-03
    3   -0.19432774E+03   -0.51374959E-05    0.32895622E-03
    4   -0.19432774E+03   -0.10532694E-05    0.38008802E-04
    5   -0.19432774E+03   -0.11400488E-07    0.51381427E-05
    6   -0.19432774E+03   -0.12190640E-08    0.13792938E-05
    7   -0.19432774E+03   -0.19838353E-10    0.56492289E-06
    8   -0.19432774E+03   -0.31263880E-12    0.86255480E-07
    9   -0.19432774E+03   -0.85265128E-13    0.22323520E-07
   10   -0.19432774E+03    0.56843419E-13    0.23204927E-08

Total Energy:                     -192.3727072895 H        -5234.7277 eV
Extrapolated to 0K:               -192.3727072895 H        -5234.7277 eV
Total Mermin free energy:         -192.3727072895 H        -5234.7277 eV
Force related energy:             -192.3727072895 H        -5234.7277 eV

Volume:                              0.100980E+05 au^3   0.149636E+04 A^3
Pressure:                           -0.904026E-06 au    -0.265974E+08 Pa
>> Charges saved for restart in charges.bin

total energy  -1.9237271E+02 H       energy change -2.4713970E-04 H
gradient norm  1.2544096E-02 H/a0    max. gradient  5.4524068E-03 H/a0
step length    9.4073990E-02 a0      max. step      1.9361541E-02 a0

--------------------------------------------------------------------------------

***  Geometry step: 32

 iSCC Total electronic   Diff electronic      SCC error    
    1   -0.19432774E+03    0.00000000E+00    0.18667343E-02
    2   -0.19433128E+03   -0.35387022E-02    0.87028242E-03
    3   -0.19433128E+03   -0.37218254E-05    0.21343661E-03
    4   -0.19433128E+03   -0.79010434E-06    0.30245904E-04
    5   -0.19433128E+03   -0.83131511E-08    0.57458919E-05
    6   -0.19433128E+03   -0.85125862E-09    0.14665492E-05
    7   -0.19433128E+03   -0.16342483E-10    0.42316248E-06
    8   -0.19433128E+03   -0.28421709E-12    0.61324780E-07
    9   -0.19433128E+03   -0.56843419E-13    0.15361358E-07
   10   -0.19433128E+03    0.56843419E-13    0.17448798E-08

Total Energy:                     -192.3729227317 H        -5234.7336 eV
Extrapolated to 0K:               -192.3729227317 H        -5234.7336 eV
Total Mermin free energy:         -192.3729227317 H        -5234.7336 eV
Force related energy:             -192.3729227317 H        -5234.7336 eV

Volume:                              0.100994E+05 au^3   0.149657E+04 A^3
Pressure:                            0.105602E-07 au     0.310692E+06 Pa
>> Charges saved for restart in charges.bin

total energy  -1.9237292E+02 H       energy change -2.1544215E-04 H
gradient norm  1.2747015E-02 H/a0    max. gradient  4.8806554E-03 H/a0
step length    7.7285629E-02 a0      max. step      1.5418342E-02 a0

--------------------------------------------------------------------------------

***  Geometry step: 33

 iSCC Total electronic   Diff electronic      SCC error    
    1   -0.19433128E+03    0.00000000E+00    0.22418689E-02
    2   -0.19433477E+03   -0.34940151E-02    0.10228418E-02
    3   -0.19433478E+03   -0.51353356E-05    0.27346178E-03
    4   -0.19433478E+03   -0.11392127E-05    0.33506937E-04
    5   -0.19433478E+03   -0.14982163E-07    0.89649797E-05
    6   -0.19433478E+03   -0.12655619E-08    0.23979075E-05
    7   -0.19433478E+03   -0.24101610E-10    0.65202713E-06
    8   -0.19433478E+03   -0.62527761E-12    0.12683997E-06
    9   -0.19433478E+03   -0.14210855E-12    0.18615402E-07
   10   -0.19433478E+03   -0.28421709E-13    0.20444091E-08

Total Energy:                     -192.3731925577 H        -5234.7409 eV
Extrapolated to 0K:               -192.3731925577 H        -5234.7409 eV
Total Mermin free energy:         -192.3731925577 H        -5234.7409 eV
Force related energy:             -192.3731925577 H        -5234.7409 eV

Volume:                              0.101001E+05 au^3   0.149668E+04 A^3
Pressure:                            0.109647E-05 au     0.322593E+08 Pa
>> Charges saved for restart in charges.bin

total energy  -1.9237319E+02 H       energy change -2.6982596E-04 H
gradient norm  1.2593453E-02 H/a0    max. gradient  2.7255270E-03 H/a0
step length    1.0358634E-01 a0      max. step      2.1040536E-02 a0

--------------------------------------------------------------------------------

***  Geometry step: 34

 iSCC Total electronic   Diff electronic      SCC error    
    1   -0.19433478E+03    0.00000000E+00    0.19505176E-02
    2   -0.19433675E+03   -0.19724776E-02    0.88064757E-03
    3   -0.19433676E+03   -0.38388432E-05    0.26971347E-03
    4   -0.19433676E+03   -0.85433544E-06    0.24814411E-04
    5   -0.19433676E+03   -0.17259623E-07    0.76872916E-05
    6   -0.19433676E+03   -0.97966790E-09    0.22998203E-05
    7   -0.19433676E+03   -0.79580786E-11    0.52602376E-06
    8   -0.19433676E+03   -0.45474735E-12    0.10910967E-06
    9   -0.19433676E+03   -0.56843419E-13    0.20891799E-07
   10   -0.19433676E+03    0.56843419E-13    0.21944251E-08

Total Energy:                     -192.3734547709 H        -5234.7480 eV
Extrapolated to 0K:               -192.3734547709 H        -5234.7480 eV
Total Mermin free energy:         -192.3734547709 H        -5234.7480 eV
Force related energy:             -192.3734547709 H        -5234.7480 eV

Volume:                              0.101007E+05 au^3   0.149677E+04 A^3
Pressure:                            0.184339E-05 au     0.542342E+08 Pa
>> Charges saved for restart in charges.bin

total energy  -1.9237345E+02 H       energy change -2.6221322E-04 H
gradient norm  1.2604108E-02 H/a0    max. gradient  2.6079476E-03 H/a0
step length    1.0978923E-01 a0      max. step      2.2699398E-02 a0

--------------------------------------------------------------------------------

***  Geometry step: 35

 iSCC Total electronic   Diff electronic      SCC error    
    1   -0.19433676E+03    0.00000000E+00    0.19688695E-02
    2   -0.19433692E+03   -0.16454686E-03    0.11821104E-02
    3   -0.19433693E+03   -0.57133344E-05    0.34430274E-03
    4   -0.19433693E+03   -0.12454830E-05    0.37408010E-04
    5   -0.19433693E+03   -0.27677032E-07    0.59571439E-05
    6   -0.19433693E+03   -0.12971952E-08    0.25680693E-05
    7   -0.19433693E+03   -0.13329782E-10    0.81709463E-06
    8   -0.19433693E+03   -0.76738615E-12    0.12104351E-06
    9   -0.19433693E+03   -0.85265128E-13    0.28477363E-07
   10   -0.19433693E+03    0.28421709E-13    0.25987275E-08

Total Energy:                     -192.3737492213 H        -5234.7561 eV
Extrapolated to 0K:               -192.3737492213 H        -5234.7561 eV
Total Mermin free energy:         -192.3737492213 H        -5234.7561 eV
Force related energy:             -192.3737492213 H        -5234.7561 eV

Volume:                              0.101019E+05 au^3   0.149695E+04 A^3
Pressure:                            0.202756E-05 au     0.596529E+08 Pa
>> Charges saved for restart in charges.bin

total energy  -1.9237375E+02 H       energy change -2.9445044E-04 H
gradient norm  1.3105167E-02 H/a0    max. gradient  3.1137206E-03 H/a0
step length    1.2807015E-01 a0      max. step      2.6853059E-02 a0

--------------------------------------------------------------------------------

***  Geometry step: 36

 iSCC Total electronic   Diff electronic      SCC error    
    1   -0.19433693E+03    0.00000000E+00    0.26070752E-02
    2   -0.19433578E+03    0.11469996E-02    0.13469218E-02
    3   -0.19433579E+03   -0.65421783E-05    0.39601334E-03
    4   -0.19433579E+03   -0.13916947E-05    0.38902509E-04
    5   -0.19433579E+03   -0.26967200E-07    0.10688436E-04
    6   -0.19433579E+03   -0.12743442E-08    0.35457558E-05
    7   -0.19433579E+03   -0.19383606E-10    0.68205378E-06
    8   -0.19433579E+03   -0.68212103E-12    0.15736256E-06
    9   -0.19433579E+03   -0.17053026E-12    0.36900381E-07
   10   -0.19433579E+03    0.28421709E-13    0.26458888E-08

Total Energy:                     -192.3740104404 H        -5234.7632 eV
Extrapolated to 0K:               -192.3740104404 H        -5234.7632 eV
Total Mermin free energy:         -192.3740104404 H        -5234.7632 eV
Force related energy:             -192.3740104404 H        -5234.7632 eV

Volume:                              0.101036E+05 au^3   0.149720E+04 A^3
Pressure:                            0.145825E-05 au     0.429032E+08 Pa
>> Charges saved for restart in charges.bin

total energy  -1.9237401E+02 H       energy change -2.6121910E-04 H
gradient norm  1.2313511E-02 H/a0    max. gradient  2.4971565E-03 H/a0
step length    1.2491638E-01 a0      max. step      2.6426263E-02 a0

--------------------------------------------------------------------------------

***  Geometry step: 37

 iSCC Total electronic   Diff electronic      SCC error    
    1   -0.19433579E+03    0.00000000E+00    0.21093568E-02
    2   -0.19433587E+03   -0.82504586E-04    0.10364607E-02
    3   -0.19433588E+03   -0.40206922E-05    0.29268348E-03
    4   -0.19433588E+03   -0.87609521E-06    0.37829244E-04
    5   -0.19433588E+03   -0.12917440E-07    0.10776649E-04
    6   -0.19433588E+03   -0.10909957E-08    0.22445573E-05
    7   -0.19433588E+03   -0.21771029E-10    0.46486007E-06
    8   -0.19433588E+03   -0.65369932E-12    0.93084621E-07
    9   -0.19433588E+03   -0.11368684E-12    0.21888551E-07
   10   -0.19433588E+03   -0.28421709E-13    0.19062130E-08

Total Energy:                     -192.3742002679 H        -5234.7683 eV
Extrapolated to 0K:               -192.3742002679 H        -5234.7683 eV
Total Mermin free energy:         -192.3742002679 H        -5234.7683 eV
Force related energy:             -192.3742002679 H        -5234.7683 eV

Volume:                              0.101046E+05 au^3   0.149735E+04 A^3
Pressure:                            0.128053E-05 au     0.376746E+08 Pa
>> Charges saved for restart in charges.bin

total energy  -1.9237420E+02 H       energy change -1.8982752E-04 H
gradient norm  1.0279916E-02 H/a0    max. gradient  2.0599283E-03 H/a0
step length    8.9905501E-02 a0      max. step      1.9316838E-02 a0

--------------------------------------------------------------------------------

***  Geometry step: 38

 iSCC Total electronic   Diff electronic      SCC error    
    1   -0.19433588E+03    0.00000000E+00    0.18955412E-02
    2   -0.19433684E+03   -0.96165855E-03    0.78563487E-03
    3   -0.19433684E+03   -0.30763578E-05    0.23440658E-03
    4   -0.19433684E+03   -0.69151238E-06    0.37769072E-04
    5   -0.19433684E+03   -0.74547017E-08    0.68717442E-05
    6   -0.19433684E+03   -0.75451112E-09    0.15761127E-05
    7   -0.19433684E+03   -0.17081447E-10    0.38204325E-06
    8   -0.19433684E+03   -0.45474735E-12    0.75023847E-07
    9   -0.19433684E+03   -0.11368684E-12    0.18127821E-07
   10   -0.19433684E+03    0.28421709E-13    0.24702875E-08

Total Energy:                     -192.3743618190 H        -5234.7727 eV
Extrapolated to 0K:               -192.3743618190 H        -5234.7727 eV
Total Mermin free energy:         -192.3743618190 H        -5234.7727 eV
Force related energy:             -192.3743618190 H        -5234.7727 eV

Volume:                              0.101061E+05 au^3   0.149757E+04 A^3
Pressure:                            0.123762E-05 au     0.364119E+08 Pa
>> Charges saved for restart in charges.bin

total energy  -1.9237436E+02 H       energy change -1.6155109E-04 H
gradient norm  9.1424743E-03 H/a0    max. gradient  1.9248634E-03 H/a0
step length    7.4889063E-02 a0      max. step      1.6080634E-02 a0

--------------------------------------------------------------------------------

***  Geometry step: 39

 iSCC Total electronic   Diff electronic      SCC error    
    1   -0.19433684E+03    0.00000000E+00    0.23466926E-02
    2   -0.19433912E+03   -0.22796790E-02    0.96090717E-03
    3   -0.19433913E+03   -0.35591879E-05    0.21491051E-03
    4   -0.19433913E+03   -0.77813664E-06    0.50139823E-04
    5   -0.19433913E+03   -0.89924583E-08    0.66785360E-05
    6   -0.19433913E+03   -0.70863848E-09    0.17652990E-05
    7   -0.19433913E+03   -0.25181635E-10    0.50482398E-06
    8   -0.19433913E+03   -0.25579538E-12    0.79000043E-07
    9   -0.19433913E+03   -0.85265128E-13    0.19165866E-07
   10   -0.19433913E+03   -0.56843419E-13    0.29207503E-08

Total Energy:                     -192.3745097648 H        -5234.7768 eV
Extrapolated to 0K:               -192.3745097648 H        -5234.7768 eV
Total Mermin free energy:         -192.3745097648 H        -5234.7768 eV
Force related energy:             -192.3745097648 H        -5234.7768 eV

Volume:                              0.101072E+05 au^3   0.149773E+04 A^3
Pressure:                            0.168780E-05 au     0.496567E+08 Pa
>> Charges saved for restart in charges.bin

total energy  -1.9237451E+02 H       energy change -1.4794582E-04 H
gradient norm  9.5747515E-03 H/a0    max. gradient  2.7139116E-03 H/a0
step length    6.9155387E-02 a0      max. step      1.4923744E-02 a0

--------------------------------------------------------------------------------

***  Geometry step: 40

 iSCC Total electronic   Diff electronic      SCC error    
    1   -0.19433913E+03    0.00000000E+00    0.17375608E-02
    2   -0.19434121E+03   -0.20836980E-02    0.75335975E-03
    3   -0.19434121E+03   -0.30312585E-05    0.17719923E-03
    4   -0.19434121E+03   -0.64351363E-06    0.37075601E-04
    5   -0.19434121E+03   -0.80507334E-08    0.44541968E-05
    6   -0.19434121E+03   -0.59344529E-09    0.14554690E-05
    7   -0.19434121E+03   -0.21032065E-10    0.41923393E-06
    8   -0.19434121E+03   -0.36948222E-12    0.72091487E-07
    9   -0.19434121E+03    0.00000000E+00    0.17239518E-07
   10   -0.19434121E+03    0.00000000E+00    0.17157675E-08

Total Energy:                     -192.3746447962 H        -5234.7804 eV
Extrapolated to 0K:               -192.3746447962 H        -5234.7804 eV
Total Mermin free energy:         -192.3746447962 H        -5234.7804 eV
Force related energy:             -192.3746447962 H        -5234.7804 eV

Volume:                              0.101092E+05 au^3   0.149803E+04 A^3
Pressure:                            0.188215E-05 au     0.553749E+08 Pa
>> Charges saved for restart in charges.bin

total energy  -1.9237464E+02 H       energy change -1.3503135E-04 H
gradient norm  9.8190452E-03 H/a0    max. gradient  2.3513950E-03 H/a0
step length    7.0850826E-02 a0      max. step      1.5491706E-02 a0

--------------------------------------------------------------------------------

***  Geometry step: 41

 iSCC Total electronic   Diff electronic      SCC error    
    1   -0.19434121E+03    0.00000000E+00    0.16499978E-02
    2   -0.19434343E+03   -0.22136127E-02    0.94000892E-03
    3   -0.19434343E+03   -0.26704087E-05    0.24193227E-03
    4   -0.19434343E+03   -0.53398006E-06    0.34226233E-04
    5   -0.19434343E+03   -0.73559647E-08    0.63112377E-05
    6   -0.19434343E+03   -0.56465410E-09    0.17567519E-05
    7   -0.19434343E+03   -0.14921397E-10    0.41852440E-06
    8   -0.19434343E+03   -0.34106051E-12    0.70168170E-07
    9   -0.19434343E+03   -0.28421709E-13    0.17986820E-07
   10   -0.19434343E+03    0.00000000E+00    0.15708190E-08

Total Energy:                     -192.3747684794 H        -5234.7838 eV
Extrapolated to 0K:               -192.3747684794 H        -5234.7838 eV
Total Mermin free energy:         -192.3747684794 H        -5234.7838 eV
Force related energy:             -192.3747684794 H        -5234.7838 eV

Volume:                              0.101114E+05 au^3   0.149835E+04 A^3
Pressure:                            0.230358E-05 au     0.677735E+08 Pa
>> Charges saved for restart in charges.bin

total energy  -1.9237477E+02 H       energy change -1.2368323E-04 H
gradient norm  8.5974269E-03 H/a0    max. gradient  1.9113006E-03 H/a0
step length    7.0841656E-02 a0      max. step      1.5783989E-02 a0

--------------------------------------------------------------------------------

***  Geometry step: 42

 iSCC Total electronic   Diff electronic      SCC error    
    1   -0.19434343E+03    0.00000000E+00    0.19645895E-02
    2   -0.19434433E+03   -0.89579785E-03    0.78874571E-03
    3   -0.19434433E+03   -0.21538227E-05    0.21011326E-03
    4   -0.19434433E+03   -0.44065075E-06    0.37256268E-04
    5   -0.19434433E+03   -0.60063883E-08    0.66638584E-05
    6   -0.19434433E+03   -0.48223114E-09    0.15489872E-05
    7   -0.19434433E+03   -0.11056045E-10    0.33513099E-06
    8   -0.19434433E+03   -0.34106051E-12    0.70943966E-07
    9   -0.19434433E+03   -0.56843419E-13    0.15672637E-07
   10   -0.19434433E+03    0.28421709E-13    0.13623582E-08

Total Energy:                     -192.3748772162 H        -5234.7868 eV
Extrapolated to 0K:               -192.3748772162 H        -5234.7868 eV
Total Mermin free energy:         -192.3748772162 H        -5234.7868 eV
Force related energy:             -192.3748772162 H        -5234.7868 eV

Volume:                              0.101144E+05 au^3   0.149880E+04 A^3
Pressure:                            0.242378E-05 au     0.713100E+08 Pa
>> Charges saved for restart in charges.bin

total energy  -1.9237488E+02 H       energy change -1.0873677E-04 H
gradient norm  7.5577973E-03 H/a0    max. gradient  1.6128560E-03 H/a0
step length    6.8039983E-02 a0      max. step      1.5488756E-02 a0

--------------------------------------------------------------------------------

***  Geometry step: 43

 iSCC Total electronic   Diff electronic      SCC error    
    1   -0.19434433E+03    0.00000000E+00    0.17002987E-02
    2   -0.19434411E+03    0.21571374E-03    0.68750173E-03
    3   -0.19434412E+03   -0.18893829E-05    0.17591098E-03
    4   -0.19434412E+03   -0.39333608E-06    0.37301150E-04
    5   -0.19434412E+03   -0.48991637E-08    0.55975721E-05
    6   -0.19434412E+03   -0.46998139E-09    0.11001016E-05
    7   -0.19434412E+03   -0.10885515E-10    0.27513699E-06
    8   -0.19434412E+03   -0.22737368E-12    0.50272324E-07
    9   -0.19434412E+03    0.56843419E-13    0.11842494E-07
   10   -0.19434412E+03    0.28421709E-13    0.12726966E-08

Total Energy:                     -192.3749745330 H        -5234.7894 eV
Extrapolated to 0K:               -192.3749745330 H        -5234.7894 eV
Total Mermin free energy:         -192.3749745330 H        -5234.7894 eV
Force related energy:             -192.3749745330 H        -5234.7894 eV

Volume:                              0.101185E+05 au^3   0.149941E+04 A^3
Pressure:                            0.194010E-05 au     0.570798E+08 Pa
>> Charges saved for restart in charges.bin

total energy  -1.9237497E+02 H       energy change -9.7316780E-05 H
gradient norm  8.2507209E-03 H/a0    max. gradient  1.9015174E-03 H/a0
step length    6.6030427E-02 a0      max. step      1.4943834E-02 a0

--------------------------------------------------------------------------------

***  Geometry step: 44

 iSCC Total electronic   Diff electronic      SCC error    
    1   -0.19434412E+03    0.00000000E+00    0.12781111E-02
    2   -0.19434357E+03    0.54784197E-03    0.59496339E-03
    3   -0.19434357E+03   -0.19590813E-05    0.18908037E-03
    4   -0.19434357E+03   -0.43765780E-06    0.24911858E-04
    5   -0.19434357E+03   -0.56117813E-08    0.31338751E-05
    6   -0.19434357E+03   -0.58872729E-09    0.91258950E-06
    7   -0.19434357E+03   -0.11254997E-10    0.39845863E-06
    8   -0.19434357E+03   -0.19895197E-12    0.61694108E-07
    9   -0.19434357E+03    0.56843419E-13    0.69592918E-08

Total Energy:                     -192.3750867735 H        -5234.7925 eV
Extrapolated to 0K:               -192.3750867735 H        -5234.7925 eV
Total Mermin free energy:         -192.3750867735 H        -5234.7925 eV
Force related energy:             -192.3750867735 H        -5234.7925 eV

Volume:                              0.101235E+05 au^3   0.150015E+04 A^3
Pressure:                            0.130241E-05 au     0.383182E+08 Pa
>> Charges saved for restart in charges.bin

total energy  -1.9237509E+02 H       energy change -1.1224056E-04 H
gradient norm  8.9104160E-03 H/a0    max. gradient  1.9200015E-03 H/a0
step length    7.4352904E-02 a0      max. step      1.6789870E-02 a0

--------------------------------------------------------------------------------

***  Geometry step: 45

 iSCC Total electronic   Diff electronic      SCC error    
    1   -0.19434357E+03    0.00000000E+00    0.12785899E-02
    2   -0.19434350E+03    0.70781363E-04    0.60772604E-03
    3   -0.19434350E+03   -0.18749609E-05    0.18971261E-03
    4   -0.19434350E+03   -0.41532041E-06    0.31242345E-04
    5   -0.19434350E+03   -0.84809244E-08    0.60586879E-05
    6   -0.19434350E+03   -0.73404749E-09    0.13807363E-05
    7   -0.19434350E+03   -0.14040324E-10    0.30559716E-06
    8   -0.19434350E+03   -0.25579538E-12    0.86452304E-07
    9   -0.19434350E+03    0.28421709E-13    0.19188509E-07
   10   -0.19434350E+03    0.00000000E+00    0.19962108E-08

Total Energy:                     -192.3751953384 H        -5234.7954 eV
Extrapolated to 0K:               -192.3751953384 H        -5234.7954 eV
Total Mermin free energy:         -192.3751953384 H        -5234.7954 eV
Force related energy:             -192.3751953384 H        -5234.7954 eV

Volume:                              0.101287E+05 au^3   0.150092E+04 A^3
Pressure:                            0.599852E-06 au     0.176482E+08 Pa
>> Charges saved for restart in charges.bin

total energy  -1.9237520E+02 H       energy change -1.0856487E-04 H
gradient norm  8.2774566E-03 H/a0    max. gradient  1.8345700E-03 H/a0
step length    7.9144241E-02 a0      max. step      1.7470873E-02 a0

--------------------------------------------------------------------------------

***  Geometry step: 46

 iSCC Total electronic   Diff electronic      SCC error    
    1   -0.19434350E+03    0.00000000E+00    0.11833853E-02
    2   -0.19434420E+03   -0.70184508E-03    0.54021801E-03
    3   -0.19434421E+03   -0.12841691E-05    0.16574126E-03
    4   -0.19434421E+03   -0.30220809E-06    0.17589433E-04
    5   -0.19434421E+03   -0.60802563E-08    0.51997590E-05
    6   -0.19434421E+03   -0.38770054E-09    0.10588906E-05
    7   -0.19434421E+03   -0.51443294E-11    0.21442076E-06
    8   -0.19434421E+03   -0.56843419E-13    0.58500435E-07
    9   -0.19434421E+03   -0.28421709E-13    0.13923850E-07
   10   -0.19434421E+03   -0.56843419E-13    0.21576958E-08

Total Energy:                     -192.3752755371 H        -5234.7976 eV
Extrapolated to 0K:               -192.3752755371 H        -5234.7976 eV
Total Mermin free energy:         -192.3752755371 H        -5234.7976 eV
Force related energy:             -192.3752755371 H        -5234.7976 eV

Volume:                              0.101317E+05 au^3   0.150137E+04 A^3
Pressure:                            0.405164E-06 au     0.119203E+08 Pa
>> Charges saved for restart in charges.bin

total energy  -1.9237528E+02 H       energy change -8.0198683E-05 H
gradient norm  6.4551299E-03 H/a0    max. gradient  1.2121169E-03 H/a0
step length    5.4407144E-02 a0      max. step      1.1702306E-02 a0

--------------------------------------------------------------------------------

***  Geometry step: 47

 iSCC Total electronic   Diff electronic      SCC error    
    1   -0.19434421E+03    0.00000000E+00    0.17611493E-02
    2   -0.19434522E+03   -0.10125306E-02    0.78927875E-03
    3   -0.19434522E+03   -0.13915190E-05    0.17184914E-03
    4   -0.19434522E+03   -0.32592163E-06    0.18772774E-04
    5   -0.19434522E+03   -0.33032563E-08    0.46111578E-05
    6   -0.19434522E+03   -0.24837732E-09    0.10457006E-05
    7   -0.19434522E+03   -0.36664005E-11    0.23811119E-06
    8   -0.19434522E+03   -0.17053026E-12    0.45394226E-07
    9   -0.19434522E+03    0.11368684E-12    0.10027051E-07
   10   -0.19434522E+03   -0.85265128E-13    0.16446191E-08

Total Energy:                     -192.3753387036 H        -5234.7993 eV
Extrapolated to 0K:               -192.3753387036 H        -5234.7993 eV
Total Mermin free energy:         -192.3753387036 H        -5234.7993 eV
Force related energy:             -192.3753387036 H        -5234.7993 eV

Volume:                              0.101334E+05 au^3   0.150162E+04 A^3
Pressure:                            0.469193E-06 au     0.138041E+08 Pa
>> Charges saved for restart in charges.bin

total energy  -1.9237534E+02 H       energy change -6.3166523E-05 H
gradient norm  6.0188017E-03 H/a0    max. gradient  1.3307377E-03 H/a0
step length    4.5416207E-02 a0      max. step      9.8891313E-03 a0

--------------------------------------------------------------------------------

***  Geometry step: 48

 iSCC Total electronic   Diff electronic      SCC error    
    1   -0.19434522E+03    0.00000000E+00    0.13034313E-02
    2   -0.19434630E+03   -0.10749659E-02    0.59378911E-03
    3   -0.19434630E+03   -0.10622106E-05    0.12809090E-03
    4   -0.19434630E+03   -0.23185015E-06    0.19605793E-04
    5   -0.19434630E+03   -0.20422704E-08    0.21714104E-05
    6   -0.19434630E+03   -0.19323920E-09    0.58740230E-06
    7   -0.19434630E+03   -0.50590643E-11    0.17544235E-06
    8   -0.19434630E+03   -0.14210855E-12    0.41066532E-07
    9   -0.19434630E+03    0.11368684E-12    0.85797329E-08

Total Energy:                     -192.3753928672 H        -5234.8008 eV
Extrapolated to 0K:               -192.3753928672 H        -5234.8008 eV
Total Mermin free energy:         -192.3753928672 H        -5234.8008 eV
Force related energy:             -192.3753928672 H        -5234.8008 eV

Volume:                              0.101341E+05 au^3   0.150172E+04 A^3
Pressure:                            0.664048E-06 au     0.195370E+08 Pa
>> Charges saved for restart in charges.bin

total energy  -1.9237539E+02 H       energy change -5.4163614E-05 H
gradient norm  6.7250410E-03 H/a0    max. gradient  1.7310118E-03 H/a0
step length    3.6921876E-02 a0      max. step      9.2406129E-03 a0

--------------------------------------------------------------------------------

***  Geometry step: 49

 iSCC Total electronic   Diff electronic      SCC error    
    1   -0.19434630E+03    0.00000000E+00    0.13030834E-02
    2   -0.19434749E+03   -0.11961787E-02    0.58368717E-03
    3   -0.19434749E+03   -0.15242433E-05    0.17269260E-03
    4   -0.19434749E+03   -0.30932620E-06    0.20949527E-04
    5   -0.19434749E+03   -0.43637840E-08    0.20858671E-05
    6   -0.19434749E+03   -0.37545078E-09    0.51032924E-06
    7   -0.19434749E+03   -0.54569682E-11    0.23937906E-06
    8   -0.19434749E+03   -0.28421709E-13    0.44065932E-07
    9   -0.19434749E+03   -0.28421709E-13    0.58722049E-08

Total Energy:                     -192.3754686317 H        -5234.8028 eV
Extrapolated to 0K:               -192.3754686317 H        -5234.8028 eV
Total Mermin free energy:         -192.3754686317 H        -5234.8028 eV
Force related energy:             -192.3754686317 H        -5234.8028 eV

Volume:                              0.101346E+05 au^3   0.150179E+04 A^3
Pressure:                            0.114236E-05 au     0.336092E+08 Pa
>> Charges saved for restart in charges.bin

total energy  -1.9237547E+02 H       energy change -7.5764497E-05 H
gradient norm  7.4603293E-03 H/a0    max. gradient  1.6749618E-03 H/a0
step length    5.4342028E-02 a0      max. step      1.3824174E-02 a0

--------------------------------------------------------------------------------

***  Geometry step: 50

 iSCC Total electronic   Diff electronic      SCC error    
    1   -0.19434749E+03    0.00000000E+00    0.12240964E-02
    2   -0.19434745E+03    0.49211008E-04    0.60564168E-03
    3   -0.19434745E+03   -0.11455295E-05    0.21328708E-03
    4   -0.19434745E+03   -0.24083033E-06    0.15769525E-04
    5   -0.19434745E+03   -0.54166946E-08    0.28875336E-05
    6   -0.19434745E+03   -0.33003289E-09    0.82524417E-06
    7   -0.19434745E+03   -0.45474735E-11    0.25546956E-06
    8   -0.19434745E+03   -0.11368684E-12    0.41362909E-07
    9   -0.19434745E+03    0.00000000E+00    0.75671727E-08

Total Energy:                     -192.3755494695 H        -5234.8050 eV
Extrapolated to 0K:               -192.3755494695 H        -5234.8050 eV
Total Mermin free energy:         -192.3755494695 H        -5234.8050 eV
Force related energy:             -192.3755494695 H        -5234.8050 eV

Volume:                              0.101366E+05 au^3   0.150208E+04 A^3
Pressure:                            0.833667E-06 au     0.245273E+08 Pa
>> Charges saved for restart in charges.bin

total energy  -1.9237555E+02 H       energy change -8.0837835E-05 H
gradient norm  7.2810922E-03 H/a0    max. gradient  1.7037823E-03 H/a0
step length    7.0514974E-02 a0      max. step      1.7951108E-02 a0

--------------------------------------------------------------------------------

***  Geometry step: 51

 iSCC Total electronic   Diff electronic      SCC error    
    1   -0.19434745E+03    0.00000000E+00    0.11790107E-02
    2   -0.19434752E+03   -0.74330716E-04    0.75053197E-03
    3   -0.19434752E+03   -0.16586779E-05    0.24514503E-03
    4   -0.19434752E+03   -0.34769209E-06    0.22077803E-04
    5   -0.19434752E+03   -0.86719183E-08    0.53358455E-05
    6   -0.19434752E+03   -0.58980731E-09    0.12619960E-05
    7   -0.19434752E+03   -0.46611603E-11    0.34108978E-06
    8   -0.19434752E+03   -0.11368684E-12    0.44630728E-07
    9   -0.19434752E+03    0.00000000E+00    0.99415551E-08

Total Energy:                     -192.3756324671 H        -5234.8073 eV
Extrapolated to 0K:               -192.3756324671 H        -5234.8073 eV
Total Mermin free energy:         -192.3756324671 H        -5234.8073 eV
Force related energy:             -192.3756324671 H        -5234.8073 eV

Volume:                              0.101376E+05 au^3   0.150224E+04 A^3
Pressure:                            0.906532E-06 au     0.266711E+08 Pa
>> Charges saved for restart in charges.bin

total energy  -1.9237563E+02 H       energy change -8.2997585E-05 H
gradient norm  6.7188951E-03 H/a0    max. gradient  1.6477132E-03 H/a0
step length    7.4324427E-02 a0      max. step      1.7954660E-02 a0

--------------------------------------------------------------------------------

***  Geometry step: 52

 iSCC Total electronic   Diff electronic      SCC error    
    1   -0.19434752E+03    0.00000000E+00    0.10547875E-02
    2   -0.19434689E+03    0.62833613E-03    0.60368393E-03
    3   -0.19434690E+03   -0.14494259E-05    0.19916580E-03
    4   -0.19434690E+03   -0.34489074E-06    0.16127782E-04
    5   -0.19434690E+03   -0.52464486E-08    0.41768139E-05
    6   -0.19434690E+03   -0.32684966E-09    0.10576969E-05
[...]
Force related energy:             -192.3784361987 H        -5234.8836 eV

Volume:                              0.999509E+04 au^3   0.148112E+04 A^3
Pressure:                            0.240033E-06 au     0.706202E+07 Pa
>> Charges saved for restart in charges.bin

total energy  -1.9237844E+02 H       energy change -1.0104733E-06 H
gradient norm  7.9816194E-04 H/a0    max. gradient  1.6815518E-04 H/a0
step length    2.9282642E-03 a0      max. step      6.8463693E-04 a0

--------------------------------------------------------------------------------

***  Geometry step: 203

 iSCC Total electronic   Diff electronic      SCC error    
    1   -0.19433685E+03    0.00000000E+00    0.18796542E-03
    2   -0.19433688E+03   -0.33950584E-04    0.99984513E-04
    3   -0.19433688E+03   -0.30067412E-07    0.32546368E-04
    4   -0.19433688E+03   -0.65467134E-08    0.25223695E-05
    5   -0.19433688E+03   -0.69150019E-10    0.36123306E-06
    6   -0.19433688E+03   -0.48601123E-11    0.72248227E-07
    7   -0.19433688E+03   -0.17053026E-12    0.11549596E-07
    8   -0.19433688E+03    0.11368684E-12    0.39871049E-08

Total Energy:                     -192.3784373596 H        -5234.8836 eV
Extrapolated to 0K:               -192.3784373596 H        -5234.8836 eV
Total Mermin free energy:         -192.3784373596 H        -5234.8836 eV
Force related energy:             -192.3784373596 H        -5234.8836 eV

Volume:                              0.999523E+04 au^3   0.148114E+04 A^3
Pressure:                            0.259010E-06 au     0.762034E+07 Pa
>> Charges saved for restart in charges.bin

total energy  -1.9237844E+02 H       energy change -1.1608661E-06 H
gradient norm  8.6944498E-04 H/a0    max. gradient  1.8110881E-04 H/a0
step length    3.9666059E-03 a0      max. step      1.0586233E-03 a0

--------------------------------------------------------------------------------

***  Geometry step: 204

 iSCC Total electronic   Diff electronic      SCC error    
    1   -0.19433688E+03    0.00000000E+00    0.19885284E-03
    2   -0.19433683E+03    0.51117073E-04    0.12738353E-03
    3   -0.19433683E+03   -0.24858224E-07    0.42618902E-04
    4   -0.19433683E+03   -0.51855409E-08    0.31047798E-05
    5   -0.19433683E+03   -0.12767032E-09    0.38771344E-06
    6   -0.19433683E+03   -0.87254648E-11    0.11374092E-06
    7   -0.19433683E+03   -0.28421709E-13    0.15300005E-07
    8   -0.19433683E+03   -0.56843419E-13    0.38117731E-08

Total Energy:                     -192.3784387939 H        -5234.8837 eV
Extrapolated to 0K:               -192.3784387939 H        -5234.8837 eV
Total Mermin free energy:         -192.3784387939 H        -5234.8837 eV
Force related energy:             -192.3784387939 H        -5234.8837 eV

Volume:                              0.999534E+04 au^3   0.148116E+04 A^3
Pressure:                            0.210667E-06 au     0.619803E+07 Pa
>> Charges saved for restart in charges.bin

total energy  -1.9237844E+02 H       energy change -1.4342671E-06 H
gradient norm  9.5734905E-04 H/a0    max. gradient  2.0324239E-04 H/a0
step length    9.8515664E-03 a0      max. step      1.9466882E-03 a0

--------------------------------------------------------------------------------

***  Geometry step: 205

 iSCC Total electronic   Diff electronic      SCC error    
    1   -0.19433683E+03    0.00000000E+00    0.18543796E-03
    2   -0.19433663E+03    0.19951816E-03    0.11949515E-03
    3   -0.19433663E+03   -0.17551173E-07    0.36458582E-04
    4   -0.19433663E+03   -0.40157886E-08    0.20872396E-05
    5   -0.19433663E+03   -0.11542056E-09    0.40764688E-06
    6   -0.19433663E+03   -0.52011728E-11    0.10748862E-06
    7   -0.19433663E+03   -0.11368684E-12    0.16896267E-07
    8   -0.19433663E+03   -0.28421709E-13    0.39814214E-08

Total Energy:                     -192.3784402862 H        -5234.8837 eV
Extrapolated to 0K:               -192.3784402862 H        -5234.8837 eV
Total Mermin free energy:         -192.3784402862 H        -5234.8837 eV
Force related energy:             -192.3784402862 H        -5234.8837 eV

Volume:                              0.999524E+04 au^3   0.148114E+04 A^3
Pressure:                            0.170368E-06 au     0.501240E+07 Pa
>> Charges saved for restart in charges.bin

total energy  -1.9237844E+02 H       energy change -1.4923619E-06 H
gradient norm  9.3244219E-04 H/a0    max. gradient  2.5644584E-04 H/a0
step length    7.7941677E-03 a0      max. step      1.4664697E-03 a0

--------------------------------------------------------------------------------

***  Geometry step: 206

 iSCC Total electronic   Diff electronic      SCC error    
    1   -0.19433663E+03    0.00000000E+00    0.18040896E-03
    2   -0.19433636E+03    0.27333783E-03    0.10289590E-03
    3   -0.19433636E+03   -0.27362319E-07    0.34382587E-04
    4   -0.19433636E+03   -0.59648073E-08    0.26642413E-05
    5   -0.19433636E+03   -0.96662234E-10    0.31801800E-06
    6   -0.19433636E+03   -0.67075234E-11    0.10844070E-06
    7   -0.19433636E+03   -0.11368684E-12    0.21392238E-07
    8   -0.19433636E+03    0.85265128E-13    0.45245994E-08

Total Energy:                     -192.3784416241 H        -5234.8837 eV
Extrapolated to 0K:               -192.3784416241 H        -5234.8837 eV
Total Mermin free energy:         -192.3784416241 H        -5234.8837 eV
Force related energy:             -192.3784416241 H        -5234.8837 eV

Volume:                              0.999527E+04 au^3   0.148115E+04 A^3
Pressure:                            0.746357E-07 au     0.219586E+07 Pa
>> Charges saved for restart in charges.bin

total energy  -1.9237844E+02 H       energy change -1.3378451E-06 H
gradient norm  8.1438448E-04 H/a0    max. gradient  2.1137739E-04 H/a0
step length    7.6243493E-03 a0      max. step      1.5553254E-03 a0

--------------------------------------------------------------------------------

***  Geometry step: 207

 iSCC Total electronic   Diff electronic      SCC error    
    1   -0.19433636E+03    0.00000000E+00    0.16489235E-03
    2   -0.19433628E+03    0.73064868E-04    0.67369570E-04
    3   -0.19433628E+03   -0.24555760E-07    0.21129311E-04
    4   -0.19433628E+03   -0.48508753E-08    0.21604827E-05
    5   -0.19433628E+03   -0.55933924E-10    0.21263453E-06
    6   -0.19433628E+03   -0.40074610E-11    0.52635293E-07
    7   -0.19433628E+03    0.28421709E-13    0.98853361E-08

Total Energy:                     -192.3784425693 H        -5234.8838 eV
Extrapolated to 0K:               -192.3784425693 H        -5234.8838 eV
Total Mermin free energy:         -192.3784425693 H        -5234.8838 eV
Force related energy:             -192.3784425693 H        -5234.8838 eV

Volume:                              0.999519E+04 au^3   0.148113E+04 A^3
Pressure:                            0.778118E-07 au     0.228930E+07 Pa
>> Charges saved for restart in charges.bin

total energy  -1.9237844E+02 H       energy change -9.4523099E-07 H
gradient norm  7.0635152E-04 H/a0    max. gradient  1.2570103E-04 H/a0
step length    7.2404463E-03 a0      max. step      1.5979821E-03 a0

--------------------------------------------------------------------------------

***  Geometry step: 208

 iSCC Total electronic   Diff electronic      SCC error    
    1   -0.19433628E+03    0.00000000E+00    0.14637969E-03
    2   -0.19433631E+03   -0.27912722E-04    0.61064216E-04
    3   -0.19433631E+03   -0.12215168E-07    0.19016224E-04
    4   -0.19433631E+03   -0.24990356E-08    0.18459172E-05
    5   -0.19433631E+03   -0.35157655E-10    0.38969226E-06
    6   -0.19433631E+03   -0.28705927E-11    0.84283874E-07
    7   -0.19433631E+03    0.11368684E-12    0.12030441E-07
    8   -0.19433631E+03   -0.14210855E-12    0.25451081E-08

Total Energy:                     -192.3784433276 H        -5234.8838 eV
Extrapolated to 0K:               -192.3784433276 H        -5234.8838 eV
Total Mermin free energy:         -192.3784433276 H        -5234.8838 eV
Force related energy:             -192.3784433276 H        -5234.8838 eV

Volume:                              0.999523E+04 au^3   0.148114E+04 A^3
Pressure:                            0.842209E-07 au     0.247786E+07 Pa
>> Charges saved for restart in charges.bin

total energy  -1.9237844E+02 H       energy change -7.5829098E-07 H
gradient norm  6.5537876E-04 H/a0    max. gradient  1.4002443E-04 H/a0
step length    2.5399056E-03 a0      max. step      5.6026221E-04 a0

--------------------------------------------------------------------------------

***  Geometry step: 209

 iSCC Total electronic   Diff electronic      SCC error    
    1   -0.19433631E+03    0.00000000E+00    0.16305721E-03
    2   -0.19433651E+03   -0.20125727E-03    0.97322911E-04
    3   -0.19433651E+03   -0.20934635E-07    0.29089664E-04
    4   -0.19433651E+03   -0.47347726E-08    0.20709844E-05
    5   -0.19433651E+03   -0.10712142E-09    0.61518299E-06
    6   -0.19433651E+03   -0.54001248E-11    0.10291033E-06
    7   -0.19433651E+03   -0.11368684E-12    0.18459590E-07
    8   -0.19433651E+03    0.28421709E-13    0.53840803E-08

Total Energy:                     -192.3784443426 H        -5234.8838 eV
Extrapolated to 0K:               -192.3784443426 H        -5234.8838 eV
Total Mermin free energy:         -192.3784443426 H        -5234.8838 eV
Force related energy:             -192.3784443426 H        -5234.8838 eV

Volume:                              0.999534E+04 au^3   0.148116E+04 A^3
Pressure:                            0.165846E-06 au     0.487935E+07 Pa
>> Charges saved for restart in charges.bin

total energy  -1.9237844E+02 H       energy change -1.0149518E-06 H
gradient norm  7.0180775E-04 H/a0    max. gradient  1.5400967E-04 H/a0
step length    4.0778333E-03 a0      max. step      8.6985770E-04 a0

--------------------------------------------------------------------------------

***  Geometry step: 210

 iSCC Total electronic   Diff electronic      SCC error    
    1   -0.19433651E+03    0.00000000E+00    0.15106823E-03
    2   -0.19433648E+03    0.38783682E-04    0.74835977E-04
    3   -0.19433648E+03   -0.14282023E-07    0.21367398E-04
    4   -0.19433648E+03   -0.34493723E-08    0.17183981E-05
    5   -0.19433648E+03   -0.46128434E-10    0.23749421E-06
    6   -0.19433648E+03   -0.29842795E-11    0.49078567E-07
    7   -0.19433648E+03   -0.28421709E-13    0.10999424E-07
    8   -0.19433648E+03    0.00000000E+00    0.25739308E-08

Total Energy:                     -192.3784453415 H        -5234.8838 eV
Extrapolated to 0K:               -192.3784453415 H        -5234.8838 eV
Total Mermin free energy:         -192.3784453415 H        -5234.8838 eV
Force related energy:             -192.3784453415 H        -5234.8838 eV

Volume:                              0.999550E+04 au^3   0.148118E+04 A^3
Pressure:                            0.118917E-06 au     0.349865E+07 Pa
>> Charges saved for restart in charges.bin

total energy  -1.9237845E+02 H       energy change -9.9895652E-07 H
gradient norm  8.2638523E-04 H/a0    max. gradient  1.9683375E-04 H/a0
step length    8.9625743E-03 a0      max. step      2.5918783E-03 a0

--------------------------------------------------------------------------------

***  Geometry step: 211

 iSCC Total electronic   Diff electronic      SCC error    
    1   -0.19433648E+03    0.00000000E+00    0.13805803E-03
    2   -0.19433647E+03    0.13534205E-05    0.84119129E-04
    3   -0.19433647E+03   -0.16887498E-07    0.23929476E-04
    4   -0.19433647E+03   -0.40224677E-08    0.19124258E-05
    5   -0.19433647E+03   -0.46412651E-10    0.27739805E-06
    6   -0.19433647E+03   -0.28990144E-11    0.60107489E-07
    7   -0.19433647E+03   -0.14210855E-12    0.10589674E-07
    8   -0.19433647E+03    0.56843419E-13    0.28317166E-08

Total Energy:                     -192.3784464608 H        -5234.8839 eV
Extrapolated to 0K:               -192.3784464608 H        -5234.8839 eV
Total Mermin free energy:         -192.3784464608 H        -5234.8839 eV
Force related energy:             -192.3784464608 H        -5234.8839 eV

Volume:                              0.999561E+04 au^3   0.148120E+04 A^3
Pressure:                            0.105286E-06 au     0.309761E+07 Pa
>> Charges saved for restart in charges.bin

total energy  -1.9237845E+02 H       energy change -1.1192796E-06 H
gradient norm  8.0208059E-04 H/a0    max. gradient  1.7435245E-04 H/a0
step length    1.0173362E-02 a0      max. step      3.0669827E-03 a0

--------------------------------------------------------------------------------

***  Geometry step: 212

 iSCC Total electronic   Diff electronic      SCC error    
    1   -0.19433647E+03    0.00000000E+00    0.16616256E-03
    2   -0.19433649E+03   -0.16549018E-04    0.84418981E-04
    3   -0.19433649E+03   -0.26553778E-07    0.25795813E-04
    4   -0.19433649E+03   -0.58133196E-08    0.26762235E-05
    5   -0.19433649E+03   -0.68098416E-10    0.24762300E-06
    6   -0.19433649E+03   -0.47748472E-11    0.74254786E-07
    7   -0.19433649E+03   -0.28421709E-13    0.16644503E-07
    8   -0.19433649E+03    0.85265128E-13    0.36863463E-08

Total Energy:                     -192.3784476221 H        -5234.8839 eV
Extrapolated to 0K:               -192.3784476221 H        -5234.8839 eV
Total Mermin free energy:         -192.3784476221 H        -5234.8839 eV
Force related energy:             -192.3784476221 H        -5234.8839 eV

Volume:                              0.999552E+04 au^3   0.148118E+04 A^3
Pressure:                            0.106895E-06 au     0.314496E+07 Pa
>> Charges saved for restart in charges.bin

total energy  -1.9237845E+02 H       energy change -1.1612561E-06 H
gradient norm  7.1212047E-04 H/a0    max. gradient  1.5507998E-04 H/a0
step length    1.0410405E-02 a0      max. step      3.2642803E-03 a0

--------------------------------------------------------------------------------

***  Geometry step: 213

 iSCC Total electronic   Diff electronic      SCC error    
    1   -0.19433649E+03    0.00000000E+00    0.17011451E-03
    2   -0.19433650E+03   -0.11690009E-04    0.70679503E-04
    3   -0.19433650E+03   -0.20962517E-07    0.23028842E-04
    4   -0.19433650E+03   -0.43071964E-08    0.22931209E-05
    5   -0.19433650E+03   -0.54541260E-10    0.34629200E-06
    6   -0.19433650E+03   -0.41779913E-11    0.11958304E-06
    7   -0.19433650E+03   -0.28421709E-13    0.19839445E-07
    8   -0.19433650E+03    0.11368684E-12    0.29200007E-08

Total Energy:                     -192.3784485504 H        -5234.8839 eV
Extrapolated to 0K:               -192.3784485504 H        -5234.8839 eV
Total Mermin free energy:         -192.3784485504 H        -5234.8839 eV
Force related energy:             -192.3784485504 H        -5234.8839 eV

Volume:                              0.999545E+04 au^3   0.148117E+04 A^3
Pressure:                            0.107579E-06 au     0.316508E+07 Pa
>> Charges saved for restart in charges.bin

total energy  -1.9237845E+02 H       energy change -9.2830092E-07 H
gradient norm  6.4512321E-04 H/a0    max. gradient  1.2320127E-04 H/a0
step length    5.2585613E-03 a0      max. step      1.4100424E-03 a0

--------------------------------------------------------------------------------

***  Geometry step: 214

 iSCC Total electronic   Diff electronic      SCC error    
    1   -0.19433650E+03    0.00000000E+00    0.15774362E-03
    2   -0.19433642E+03    0.82262055E-04    0.64607922E-04
    3   -0.19433642E+03   -0.21933886E-07    0.20834958E-04
    4   -0.19433642E+03   -0.45828870E-08    0.21045119E-05
    5   -0.19433642E+03   -0.46952664E-10    0.28161548E-06
    6   -0.19433642E+03   -0.38085091E-11    0.71606097E-07
    7   -0.19433642E+03   -0.17053026E-12    0.96535784E-08

Total Energy:                     -192.3784492758 H        -5234.8840 eV
Extrapolated to 0K:               -192.3784492758 H        -5234.8840 eV
Total Mermin free energy:         -192.3784492758 H        -5234.8840 eV
Force related energy:             -192.3784492758 H        -5234.8840 eV

Volume:                              0.999544E+04 au^3   0.148117E+04 A^3
Pressure:                            0.728176E-07 au     0.214237E+07 Pa
>> Charges saved for restart in charges.bin

total energy  -1.9237845E+02 H       energy change -7.2543540E-07 H
gradient norm  5.3898594E-04 H/a0    max. gradient  1.0376577E-04 H/a0
step length    3.4249536E-03 a0      max. step      9.6654495E-04 a0

--------------------------------------------------------------------------------

***  Geometry step: 215

 iSCC Total electronic   Diff electronic      SCC error    
    1   -0.19433642E+03    0.00000000E+00    0.12194006E-03
    2   -0.19433630E+03    0.12131102E-03    0.55441348E-04
    3   -0.19433630E+03   -0.10922150E-07    0.18072073E-04
    4   -0.19433630E+03   -0.24997462E-08    0.20088605E-05
    5   -0.19433630E+03   -0.23902658E-10    0.19649222E-06
    6   -0.19433630E+03   -0.20463631E-11    0.49368741E-07
    7   -0.19433630E+03   -0.56843419E-13    0.67580466E-08

Total Energy:                     -192.3784496845 H        -5234.8840 eV
Extrapolated to 0K:               -192.3784496845 H        -5234.8840 eV
Total Mermin free energy:         -192.3784496845 H        -5234.8840 eV
Force related energy:             -192.3784496845 H        -5234.8840 eV

Volume:                              0.999542E+04 au^3   0.148117E+04 A^3
Pressure:                            0.705179E-08 au     0.207471E+06 Pa
>> Charges saved for restart in charges.bin

total energy  -1.9237845E+02 H       energy change -4.0874409E-07 H
gradient norm  4.8365827E-04 H/a0    max. gradient  1.1964345E-04 H/a0
step length    2.3283570E-03 a0      max. step      6.2876864E-04 a0

--------------------------------------------------------------------------------

***  Geometry step: 216

 iSCC Total electronic   Diff electronic      SCC error    
    1   -0.19433630E+03    0.00000000E+00    0.66119464E-04
    2   -0.19433630E+03   -0.20893499E-05    0.39971306E-04
    3   -0.19433630E+03   -0.56515148E-08    0.12575799E-04
    4   -0.19433630E+03   -0.13748434E-08    0.14489201E-05
    5   -0.19433630E+03   -0.23248958E-10    0.20490646E-06
    6   -0.19433630E+03   -0.17337243E-11    0.38521873E-07
    7   -0.19433630E+03   -0.56843419E-13    0.79746370E-08

Total Energy:                     -192.3784499991 H        -5234.8840 eV
Extrapolated to 0K:               -192.3784499991 H        -5234.8840 eV
Total Mermin free energy:         -192.3784499991 H        -5234.8840 eV
Force related energy:             -192.3784499991 H        -5234.8840 eV

Volume:                              0.999538E+04 au^3   0.148116E+04 A^3
Pressure:                            0.262530E-07 au     0.772388E+06 Pa
>> Charges saved for restart in charges.bin

total energy  -1.9237845E+02 H       energy change -3.1459206E-07 H
gradient norm  4.2996316E-04 H/a0    max. gradient  8.6487920E-05 H/a0
step length    1.3755711E-03 a0      max. step      2.7562033E-04 a0

Geometry converged

--------------------------------------------------------------------------------
DFTB+ running times                          cpu [s]             wall clock [s]
--------------------------------------------------------------------------------
Pre-SCC initialisation                 +      16.58 (  0.8%)       2.74 (  1.1%)
SCC                                    +    1764.45 ( 88.5%)     223.05 ( 89.5%)
Post-SCC processing                    +     213.02 ( 10.7%)      23.45 (  9.4%)
Post-geometry optimisation             +       0.03 (  0.0%)       0.00 (  0.0%)
--------------------------------------------------------------------------------
Missing                                +       0.06 (  0.0%)       0.01 (  0.0%)
Total                                  =    1994.14 (100.0%)     249.24 (100.0%)
--------------------------------------------------------------------------------
