|===============================================================================
|
|  DFTB+ release 24.1
|
|  Copyright (C) 2006 - 2024  DFTB+ developers group
|
|===============================================================================
|
|  When publishing results obtained with DFTB+, please cite the following
|  reference:
|
|  * DFTB+, a software package for efficient approximate density functional
|    theory based atomistic simulations, J. Chem. Phys. 152, 124101 (2020).
|    [doi: 10.1063/1.5143190]
|
|  You should also cite additional publications crediting the parametrization
|  data you use. Please consult the documentation of the SK-files for the
|  references.
|
|===============================================================================

Reading input file 'dftb_in.hsd'
Parser version: 14

--------------------------------------------------------------------------------
Reading SK-files:
./SKFiles/Ge-Ge.skf
./SKFiles/Ge-Si.skf
./SKFiles/Ge-O.skf
./SKFiles/Si-Si.skf
./SKFiles/Si-O.skf
./SKFiles/O-O.skf
Done.


Processed input in HSD format written to 'dftb_pin.hsd'

Starting initialization...
--------------------------------------------------------------------------------
WARNING!
-> Dipole printed for extended system : value printed is not well defined
MPI processes:               1
OpenMP threads:              8
BLACS orbital grid size:     1 x 1
BLACS atom grid size:        1 x 1
Chosen random seed:          149646152
Current stacksize:           unlimited
Mode:                        Static calculation
Self consistent charges:     Yes
SCC-tolerance:                 0.100000E-07
Max. scc iterations:                    500
Shell resolved Hubbard:      No
Spin polarisation:           No
Nr. of up electrons:           192.000000
Nr. of down electrons:         192.000000
Periodic boundaries:         Yes
Electronic solver:           Relatively robust
Mixer:                       Broyden mixer
Mixing parameter:                  0.200000
Maximal SCC-cycles:                     500
Nr. of chrg. vec. in memory:            500
Electronic temperature:              0.100000E-07 H      0.272114E-06 eV
Initial charges:             Set automatically (system chrg:   0.000E+00)
Included shells:            Ge:  s, p, d
                            Si:  s, p, d
                             O:  s, p
K-points and weights:           1:  0.500000  0.500000  0.500000     1.000000

K-points in absolute space:     1:  0.025319  0.017606  0.037774

Extra options:
                             Mulliken analysis
Force type                   original

--------------------------------------------------------------------------------

***  Geometry step: 0

 iSCC Total electronic   Diff electronic      SCC error    
    1    0.00000000E+00    0.00000000E+00    0.14596834E+01
    2   -0.19479960E+03   -0.19479960E+03    0.99394694E+00
    3   -0.19516641E+03   -0.36681619E+00    0.59664172E-01
    4   -0.19548228E+03   -0.31586827E+00    0.28489734E-01
    5   -0.19548439E+03   -0.21121979E-02    0.77740107E-02
    6   -0.19548455E+03   -0.15441619E-03    0.17444827E-02
    7   -0.19548455E+03   -0.49141870E-05    0.46759008E-03
    8   -0.19548455E+03   -0.12064987E-05    0.55560418E-04
    9   -0.19548455E+03   -0.77603715E-07    0.31117393E-04
   10   -0.19548455E+03   -0.19696245E-10    0.12421800E-05
   11   -0.19548455E+03   -0.25360691E-09    0.47457373E-06
   12   -0.19548455E+03   -0.37516656E-11    0.14411824E-06
   13   -0.19548455E+03   -0.28421709E-13    0.16351119E-07
   14   -0.19548455E+03    0.00000000E+00    0.18157822E-08

Total Energy:                     -191.8767562318 H        -5221.2322 eV
Extrapolated to 0K:               -191.8767562318 H        -5221.2322 eV
Total Mermin free energy:         -191.8767562318 H        -5221.2322 eV
Force related energy:             -191.8767562318 H        -5221.2322 eV

Volume:                              0.913789E+04 au^3   0.135410E+04 A^3
Pressure:                            0.714703E-03 au     0.210273E+11 Pa
>> Charges saved for restart in charges.bin

total energy  -1.9187676E+02 H       energy change -1.9187676E+02 H
gradient norm  8.3282153E-01 H/a0    max. gradient  3.9076435E-01 H/a0
step length    0.0000000E+00 a0      max. step      0.0000000E+00 a0

--------------------------------------------------------------------------------

***  Geometry step: 1

 iSCC Total electronic   Diff electronic      SCC error    
    1   -0.19548455E+03    0.00000000E+00    0.94174997E-01
    2   -0.19515871E+03    0.32584301E+00    0.47650157E-01
    3   -0.19516443E+03   -0.57207633E-02    0.12318104E-01
    4   -0.19516575E+03   -0.13199604E-02    0.15041997E-02
    5   -0.19516577E+03   -0.19184925E-04    0.40313645E-03
    6   -0.19516577E+03   -0.82465121E-06    0.10711249E-03
    7   -0.19516577E+03   -0.41747910E-07    0.18931481E-04
    8   -0.19516577E+03   -0.40002419E-08    0.24027234E-05
    9   -0.19516577E+03   -0.28907721E-09    0.88877131E-06
   10   -0.19516577E+03   -0.47748472E-11    0.32548619E-06
   11   -0.19516577E+03   -0.11368684E-12    0.34567302E-07
   12   -0.19516577E+03    0.00000000E+00    0.70895521E-08

Total Energy:                     -192.0567882288 H        -5226.1311 eV
Extrapolated to 0K:               -192.0567882288 H        -5226.1311 eV
Total Mermin free energy:         -192.0567882288 H        -5226.1311 eV
Force related energy:             -192.0567882288 H        -5226.1311 eV

Volume:                              0.940223E+04 au^3   0.139327E+04 A^3
Pressure:                            0.476993E-03 au     0.140336E+11 Pa
>> Charges saved for restart in charges.bin

total energy  -1.9205679E+02 H       energy change -1.8003200E-01 H
gradient norm  5.2175202E-01 H/a0    max. gradient  1.4112410E-01 H/a0
step length    5.6601140E-01 a0      max. step      2.6557560E-01 a0

--------------------------------------------------------------------------------

***  Geometry step: 2

 iSCC Total electronic   Diff electronic      SCC error    
    1   -0.19516577E+03    0.00000000E+00    0.57155688E-01
    2   -0.19506764E+03    0.98128208E-01    0.32962414E-01
    3   -0.19507043E+03   -0.27868317E-02    0.84766586E-02
    4   -0.19507110E+03   -0.67109462E-03    0.11962419E-02
    5   -0.19507111E+03   -0.85169827E-05    0.32303223E-03
    6   -0.19507111E+03   -0.40436407E-06    0.11240609E-03
    7   -0.19507111E+03   -0.24760993E-07    0.13613334E-04
    8   -0.19507111E+03   -0.21443611E-08    0.20019646E-05
    9   -0.19507111E+03   -0.14424018E-09    0.78168694E-06
   10   -0.19507111E+03   -0.30127012E-11    0.29525745E-06
   11   -0.19507111E+03   -0.19895197E-12    0.34864544E-07
   12   -0.19507111E+03    0.28421709E-13    0.53004712E-08

Total Energy:                     -192.1866573345 H        -5229.6650 eV
Extrapolated to 0K:               -192.1866573345 H        -5229.6650 eV
Total Mermin free energy:         -192.1866573345 H        -5229.6650 eV
Force related energy:             -192.1866573345 H        -5229.6650 eV

Volume:                              0.941237E+04 au^3   0.139477E+04 A^3
Pressure:                            0.394011E-03 au     0.115922E+11 Pa
>> Charges saved for restart in charges.bin

total energy  -1.9218666E+02 H       energy change -1.2986911E-01 H
gradient norm  2.7894267E-01 H/a0    max. gradient  6.1442549E-02 H/a0
step length    4.1172916E-01 a0      max. step      1.0375132E-01 a0

--------------------------------------------------------------------------------

***  Geometry step: 3

 iSCC Total electronic   Diff electronic      SCC error    
    1   -0.19507111E+03    0.00000000E+00    0.59498692E-01
    2   -0.19484282E+03    0.22828550E+00    0.35808298E-01
    3   -0.19484519E+03   -0.23611868E-02    0.88241292E-02
    4   -0.19484580E+03   -0.61684269E-03    0.14102974E-02
    5   -0.19484581E+03   -0.87107842E-05    0.22201569E-03
    6   -0.19484581E+03   -0.69819666E-06    0.11409069E-03
    7   -0.19484581E+03   -0.18685654E-07    0.13917180E-04
    8   -0.19484581E+03   -0.20906725E-08    0.18530724E-05
    9   -0.19484581E+03   -0.11092993E-09    0.52924530E-06
   10   -0.19484581E+03   -0.23590019E-11    0.15812145E-06
   11   -0.19484581E+03   -0.28421709E-13    0.24440009E-07
   12   -0.19484581E+03   -0.28421709E-13    0.54556621E-08

Total Energy:                     -192.2662261522 H        -5231.8302 eV
Extrapolated to 0K:               -192.2662261522 H        -5231.8302 eV
Total Mermin free energy:         -192.2662261522 H        -5231.8302 eV
Force related energy:             -192.2662261522 H        -5231.8302 eV

Volume:                              0.952026E+04 au^3   0.141076E+04 A^3
Pressure:                            0.272033E-03 au     0.800350E+10 Pa
>> Charges saved for restart in charges.bin

total energy  -1.9226623E+02 H       energy change -7.9568818E-02 H
gradient norm  2.3316864E-01 H/a0    max. gradient  9.9192582E-02 H/a0
step length    4.9955010E-01 a0      max. step      1.0901495E-01 a0

--------------------------------------------------------------------------------

***  Geometry step: 4

 iSCC Total electronic   Diff electronic      SCC error    
    1   -0.19484581E+03    0.00000000E+00    0.59794321E-01
    2   -0.19463425E+03    0.21155685E+00    0.25952178E-01
    3   -0.19463585E+03   -0.15950970E-02    0.53880179E-02
    4   -0.19463620E+03   -0.35049134E-03    0.85716801E-03
    5   -0.19463621E+03   -0.60303934E-05    0.20887330E-03
    6   -0.19463621E+03   -0.52780459E-06    0.12866010E-03
    7   -0.19463621E+03   -0.84232283E-08    0.10786432E-04
    8   -0.19463621E+03   -0.14140937E-08    0.25326294E-05
    9   -0.19463621E+03   -0.10197709E-09    0.53665877E-06
   10   -0.19463621E+03   -0.14779289E-11    0.15782594E-06
   11   -0.19463621E+03   -0.14210855E-12    0.34149505E-07
   12   -0.19463621E+03    0.14210855E-12    0.70264345E-08

Total Energy:                     -192.3047078592 H        -5232.8773 eV
Extrapolated to 0K:               -192.3047078592 H        -5232.8773 eV
Total Mermin free energy:         -192.3047078592 H        -5232.8773 eV
Force related energy:             -192.3047078592 H        -5232.8773 eV

Volume:                              0.961296E+04 au^3   0.142449E+04 A^3
Pressure:                            0.172817E-03 au     0.508446E+10 Pa
>> Charges saved for restart in charges.bin

total energy  -1.9230471E+02 H       energy change -3.8481707E-02 H
gradient norm  2.4068313E-01 H/a0    max. gradient  1.2325052E-01 H/a0
step length    4.6532784E-01 a0      max. step      1.1398291E-01 a0

--------------------------------------------------------------------------------

***  Geometry step: 5

 iSCC Total electronic   Diff electronic      SCC error    
    1   -0.19463621E+03    0.00000000E+00    0.22301535E-01
    2   -0.19449360E+03    0.14260819E+00    0.12184584E-01
    3   -0.19449401E+03   -0.40843733E-03    0.27057242E-02
    4   -0.19449410E+03   -0.93531982E-04    0.44024348E-03
    5   -0.19449410E+03   -0.15394285E-05    0.11212984E-03
    6   -0.19449410E+03   -0.12477000E-06    0.54356582E-04
    7   -0.19449410E+03   -0.23331097E-08    0.72897030E-05
    8   -0.19449410E+03   -0.25173108E-09    0.12532441E-05
    9   -0.19449410E+03   -0.26403768E-10    0.26882744E-06
   10   -0.19449410E+03   -0.65369932E-12    0.33967357E-07
   11   -0.19449410E+03   -0.56843419E-13    0.70197630E-08

Total Energy:                     -192.3287743009 H        -5233.5322 eV
Extrapolated to 0K:               -192.3287743009 H        -5233.5322 eV
Total Mermin free energy:         -192.3287743009 H        -5233.5322 eV
Force related energy:             -192.3287743009 H        -5233.5322 eV

Volume:                              0.968987E+04 au^3   0.143589E+04 A^3
Pressure:                            0.107029E-03 au     0.314889E+10 Pa
>> Charges saved for restart in charges.bin

total energy  -1.9232877E+02 H       energy change -2.4066442E-02 H
gradient norm  9.9815655E-02 H/a0    max. gradient  2.0151183E-02 H/a0
step length    2.7575335E-01 a0      max. step      7.0505303E-02 a0

--------------------------------------------------------------------------------

***  Geometry step: 6

 iSCC Total electronic   Diff electronic      SCC error    
    1   -0.19449410E+03    0.00000000E+00    0.17956044E-01
    2   -0.19441051E+03    0.83595247E-01    0.82565877E-02
    3   -0.19441077E+03   -0.26713170E-03    0.22747669E-02
    4   -0.19441084E+03   -0.68370383E-04    0.24630433E-03
    5   -0.19441084E+03   -0.69768490E-06    0.59578161E-04
    6   -0.19441084E+03   -0.55248620E-07    0.30274563E-04
    7   -0.19441084E+03   -0.10112444E-08    0.43611014E-05
    8   -0.19441084E+03   -0.10578560E-09    0.61687735E-06
    9   -0.19441084E+03   -0.54285465E-11    0.21274595E-06
   10   -0.19441084E+03   -0.17053026E-12    0.36112410E-07
   11   -0.19441084E+03   -0.85265128E-13    0.60109038E-08

Total Energy:                     -192.3424865333 H        -5233.9054 eV
Extrapolated to 0K:               -192.3424865333 H        -5233.9054 eV
Total Mermin free energy:         -192.3424865333 H        -5233.9054 eV
Force related energy:             -192.3424865333 H        -5233.9054 eV

Volume:                              0.971981E+04 au^3   0.144033E+04 A^3
Pressure:                            0.677336E-04 au     0.199279E+10 Pa
>> Charges saved for restart in charges.bin

total energy  -1.9234249E+02 H       energy change -1.3712232E-02 H
gradient norm  9.2642317E-02 H/a0    max. gradient  3.9514739E-02 H/a0
step length    2.7159410E-01 a0      max. step      5.3671715E-02 a0

--------------------------------------------------------------------------------

***  Geometry step: 7

 iSCC Total electronic   Diff electronic      SCC error    
    1   -0.19441084E+03    0.00000000E+00    0.22697031E-01
    2   -0.19433626E+03    0.74585666E-01    0.13466521E-01
    3   -0.19433654E+03   -0.27759575E-03    0.33614142E-02
    4   -0.19433660E+03   -0.65336434E-04    0.38310324E-03
    5   -0.19433660E+03   -0.99634181E-06    0.11039817E-03
    6   -0.19433660E+03   -0.69319071E-07    0.42378908E-04
    7   -0.19433660E+03   -0.13158683E-08    0.47614539E-05
    8   -0.19433660E+03   -0.15475621E-09    0.76395482E-06
    9   -0.19433660E+03   -0.13471890E-10    0.16298193E-06
   10   -0.19433660E+03   -0.19895197E-12    0.15035473E-07
   11   -0.19433660E+03   -0.28421709E-13    0.43446091E-08

Total Energy:                     -192.3516894900 H        -5234.1558 eV
Extrapolated to 0K:               -192.3516894900 H        -5234.1558 eV
Total Mermin free energy:         -192.3516894900 H        -5234.1558 eV
Force related energy:             -192.3516894900 H        -5234.1558 eV

Volume:                              0.976168E+04 au^3   0.144653E+04 A^3
Pressure:                            0.337795E-04 au     0.993827E+09 Pa
>> Charges saved for restart in charges.bin

total energy  -1.9235169E+02 H       energy change -9.2029567E-03 H
gradient norm  8.7377905E-02 H/a0    max. gradient  4.2223575E-02 H/a0
step length    2.7175353E-01 a0      max. step      5.7705092E-02 a0

--------------------------------------------------------------------------------

***  Geometry step: 8

 iSCC Total electronic   Diff electronic      SCC error    
    1   -0.19433660E+03    0.00000000E+00    0.19088858E-01
    2   -0.19434163E+03   -0.50250956E-02    0.11146197E-01
    3   -0.19434182E+03   -0.18991789E-03    0.25274463E-02
    4   -0.19434186E+03   -0.44543675E-04    0.40293149E-03
    5   -0.19434186E+03   -0.11488178E-05    0.76405993E-04
    6   -0.19434186E+03   -0.89639769E-07    0.25570888E-04
    7   -0.19434186E+03   -0.19744277E-08    0.59585084E-05
    8   -0.19434186E+03   -0.10379608E-09    0.79334301E-06
    9   -0.19434186E+03   -0.10828671E-10    0.14176927E-06
   10   -0.19434186E+03   -0.36948222E-12    0.22090176E-07
   11   -0.19434186E+03   -0.56843419E-13    0.78101308E-08

Total Energy:                     -192.3570550672 H        -5234.3018 eV
Extrapolated to 0K:               -192.3570550672 H        -5234.3018 eV
Total Mermin free energy:         -192.3570550672 H        -5234.3018 eV
Force related energy:             -192.3570550672 H        -5234.3018 eV

Volume:                              0.975328E+04 au^3   0.144529E+04 A^3
Pressure:                            0.338945E-04 au     0.997212E+09 Pa
>> Charges saved for restart in charges.bin

total energy  -1.9235706E+02 H       energy change -5.3655772E-03 H
gradient norm  5.8685474E-02 H/a0    max. gradient  2.1519798E-02 H/a0
step length    1.8000403E-01 a0      max. step      3.2577435E-02 a0

--------------------------------------------------------------------------------

***  Geometry step: 9

 iSCC Total electronic   Diff electronic      SCC error    
    1   -0.19434186E+03    0.00000000E+00    0.10733326E-01
    2   -0.19435805E+03   -0.16184037E-01    0.62156307E-02
    3   -0.19435811E+03   -0.67898974E-04    0.13031154E-02
    4   -0.19435813E+03   -0.16882995E-04    0.20032795E-03
    5   -0.19435813E+03   -0.56403704E-06    0.45663502E-04
    6   -0.19435813E+03   -0.26752332E-07    0.14986532E-04
    7   -0.19435813E+03   -0.74066975E-09    0.36489920E-05
    8   -0.19435813E+03   -0.44991566E-10    0.40222020E-06
    9   -0.19435813E+03   -0.32400749E-11    0.80020781E-07
   10   -0.19435813E+03   -0.25579538E-12    0.13022432E-07
   11   -0.19435813E+03    0.85265128E-13    0.25868232E-08

Total Energy:                     -192.3602072273 H        -5234.3876 eV
Extrapolated to 0K:               -192.3602072273 H        -5234.3876 eV
Total Mermin free energy:         -192.3602072273 H        -5234.3876 eV
Force related energy:             -192.3602072273 H        -5234.3876 eV

Volume:                              0.974339E+04 au^3   0.144382E+04 A^3
Pressure:                            0.387556E-04 au     0.114023E+10 Pa
>> Charges saved for restart in charges.bin

total energy  -1.9236021E+02 H       energy change -3.1521601E-03 H
gradient norm  4.1855708E-02 H/a0    max. gradient  9.2216250E-03 H/a0
step length    1.2537350E-01 a0      max. step      2.5914514E-02 a0

--------------------------------------------------------------------------------

***  Geometry step: 10

 iSCC Total electronic   Diff electronic      SCC error    
    1   -0.19435813E+03    0.00000000E+00    0.12294621E-01
    2   -0.19437082E+03   -0.12684608E-01    0.49097667E-02
    3   -0.19437089E+03   -0.74613881E-04    0.12388604E-02
    4   -0.19437091E+03   -0.17183309E-04    0.20482664E-03
    5   -0.19437091E+03   -0.58774327E-06    0.46279274E-04
    6   -0.19437091E+03   -0.31723687E-07    0.18045874E-04
    7   -0.19437091E+03   -0.54237148E-09    0.31472919E-05
    8   -0.19437091E+03   -0.63124617E-10    0.38455382E-06
    9   -0.19437091E+03   -0.23305802E-11    0.96803618E-07
   10   -0.19437091E+03   -0.17053026E-12    0.18124510E-07
   11   -0.19437091E+03   -0.56843419E-13    0.24765523E-08

Total Energy:                     -192.3631141324 H        -5234.4667 eV
Extrapolated to 0K:               -192.3631141324 H        -5234.4667 eV
Total Mermin free energy:         -192.3631141324 H        -5234.4667 eV
Force related energy:             -192.3631141324 H        -5234.4667 eV

Volume:                              0.974039E+04 au^3   0.144338E+04 A^3
Pressure:                            0.413709E-04 au     0.121717E+10 Pa
>> Charges saved for restart in charges.bin

total energy  -1.9236311E+02 H       energy change -2.9069051E-03 H
gradient norm  4.3246526E-02 H/a0    max. gradient  1.7564660E-02 H/a0
step length    1.4703006E-01 a0      max. step      3.4536110E-02 a0

--------------------------------------------------------------------------------

***  Geometry step: 11

 iSCC Total electronic   Diff electronic      SCC error    
    1   -0.19437091E+03    0.00000000E+00    0.99730445E-02
    2   -0.19437068E+03    0.22733931E-03    0.44833636E-02
    3   -0.19437074E+03   -0.55621090E-04    0.13377174E-02
    4   -0.19437075E+03   -0.12648210E-04    0.15075018E-03
    5   -0.19437075E+03   -0.43611416E-06    0.18380137E-04
    6   -0.19437075E+03   -0.24929903E-07    0.83093529E-05
    7   -0.19437075E+03   -0.17379875E-09    0.14208872E-05
    8   -0.19437075E+03   -0.24755309E-10    0.20738101E-06
    9   -0.19437075E+03   -0.99475983E-12    0.55881645E-07
   10   -0.19437075E+03   -0.17053026E-12    0.80952480E-08

Total Energy:                     -192.3655335202 H        -5234.5325 eV
Extrapolated to 0K:               -192.3655335202 H        -5234.5325 eV
Total Mermin free energy:         -192.3655335202 H        -5234.5325 eV
Force related energy:             -192.3655335202 H        -5234.5325 eV

Volume:                              0.974865E+04 au^3   0.144460E+04 A^3
Pressure:                            0.384148E-04 au     0.113020E+10 Pa
>> Charges saved for restart in charges.bin

total energy  -1.9236553E+02 H       energy change -2.4193878E-03 H
gradient norm  4.1531375E-02 H/a0    max. gradient  1.4290216E-02 H/a0
step length    1.5360814E-01 a0      max. step      3.7349765E-02 a0

--------------------------------------------------------------------------------

***  Geometry step: 12

 iSCC Total electronic   Diff electronic      SCC error    
    1   -0.19437075E+03    0.00000000E+00    0.70671134E-02
    2   -0.19435788E+03    0.12871798E-01    0.44989416E-02
    3   -0.19435792E+03   -0.36637935E-04    0.12793986E-02
    4   -0.19435792E+03   -0.85270629E-05    0.15531693E-03
    5   -0.19435792E+03   -0.32024707E-06    0.37896950E-04
    6   -0.19435792E+03   -0.19604585E-07    0.14763637E-04
    7   -0.19435792E+03   -0.15276669E-09    0.16244619E-05
    8   -0.19435792E+03   -0.15575097E-10    0.25794534E-06
    9   -0.19435792E+03   -0.13926638E-11    0.73520905E-07
   10   -0.19435792E+03    0.28421709E-13    0.85399376E-08

Total Energy:                     -192.3675807082 H        -5234.5882 eV
Extrapolated to 0K:               -192.3675807082 H        -5234.5882 eV
Total Mermin free energy:         -192.3675807082 H        -5234.5882 eV
Force related energy:             -192.3675807082 H        -5234.5882 eV

Volume:                              0.976784E+04 au^3   0.144744E+04 A^3
Pressure:                            0.306821E-04 au     0.902700E+09 Pa
>> Charges saved for restart in charges.bin

total energy  -1.9236758E+02 H       energy change -2.0471880E-03 H
gradient norm  3.3871637E-02 H/a0    max. gradient  1.2218705E-02 H/a0
step length    1.5844162E-01 a0      max. step      3.8724703E-02 a0

--------------------------------------------------------------------------------

***  Geometry step: 13

 iSCC Total electronic   Diff electronic      SCC error    
    1   -0.19435792E+03    0.00000000E+00    0.51060084E-02
    2   -0.19434184E+03    0.16080574E-01    0.29536854E-02
    3   -0.19434186E+03   -0.17875769E-04    0.73459375E-03
    4   -0.19434187E+03   -0.40695066E-05    0.85569160E-04
    5   -0.19434187E+03   -0.16701688E-06    0.36932387E-04
    6   -0.19434187E+03   -0.91804395E-08    0.10171744E-04
    7   -0.19434187E+03   -0.22288305E-09    0.16181501E-05
    8   -0.19434187E+03   -0.90665253E-11    0.20314461E-06
    9   -0.19434187E+03   -0.11937118E-11    0.48592030E-07
   10   -0.19434187E+03   -0.56843419E-13    0.74062747E-08

Total Energy:                     -192.3690536433 H        -5234.6283 eV
Extrapolated to 0K:               -192.3690536433 H        -5234.6283 eV
Total Mermin free energy:         -192.3690536433 H        -5234.6283 eV
Force related energy:             -192.3690536433 H        -5234.6283 eV

Volume:                              0.979104E+04 au^3   0.145088E+04 A^3
Pressure:                            0.218415E-04 au     0.642600E+09 Pa
>> Charges saved for restart in charges.bin

total energy  -1.9236905E+02 H       energy change -1.4729351E-03 H
gradient norm  2.8057371E-02 H/a0    max. gradient  7.8321059E-03 H/a0
step length    1.3570356E-01 a0      max. step      3.2202075E-02 a0

--------------------------------------------------------------------------------

***  Geometry step: 14

 iSCC Total electronic   Diff electronic      SCC error    
    1   -0.19434187E+03    0.00000000E+00    0.51278496E-02
    2   -0.19433182E+03    0.10046003E-01    0.21413316E-02
    3   -0.19433184E+03   -0.18790214E-04    0.61361170E-03
    4   -0.19433184E+03   -0.39844127E-05    0.86910938E-04
    5   -0.19433184E+03   -0.76451414E-07    0.12678459E-04
    6   -0.19433184E+03   -0.69574355E-08    0.30342281E-05
    7   -0.19433184E+03   -0.13628210E-09    0.10700065E-05
    8   -0.19433184E+03   -0.58548721E-11    0.22786427E-06
    9   -0.19433184E+03   -0.45474735E-12    0.31762617E-07
   10   -0.19433184E+03   -0.85265128E-13    0.53131077E-08

Total Energy:                     -192.3702409900 H        -5234.6606 eV
Extrapolated to 0K:               -192.3702409900 H        -5234.6606 eV
Total Mermin free energy:         -192.3702409900 H        -5234.6606 eV
Force related energy:             -192.3702409900 H        -5234.6606 eV

Volume:                              0.981229E+04 au^3   0.145403E+04 A^3
Pressure:                            0.158734E-04 au     0.467012E+09 Pa
>> Charges saved for restart in charges.bin

total energy  -1.9237024E+02 H       energy change -1.1873467E-03 H
gradient norm  2.5743262E-02 H/a0    max. gradient  5.7791385E-03 H/a0
step length    1.1359471E-01 a0      max. step      2.5039978E-02 a0

--------------------------------------------------------------------------------

***  Geometry step: 15

 iSCC Total electronic   Diff electronic      SCC error    
    1   -0.19433184E+03    0.00000000E+00    0.50143472E-02
    2   -0.19432966E+03    0.21865514E-02    0.26931602E-02
    3   -0.19432968E+03   -0.24326526E-04    0.53428027E-03
    4   -0.19432969E+03   -0.52436642E-05    0.71677435E-04
    5   -0.19432969E+03   -0.81334747E-07    0.25592635E-04
    6   -0.19432969E+03   -0.76979347E-08    0.78849277E-05
    7   -0.19432969E+03   -0.18198421E-09    0.16386373E-05
    8   -0.19432969E+03   -0.69633188E-11    0.29557857E-06
    9   -0.19432969E+03   -0.11652901E-11    0.62234764E-07
   10   -0.19432969E+03    0.00000000E+00    0.63818968E-08

Total Energy:                     -192.3712885293 H        -5234.6891 eV
Extrapolated to 0K:               -192.3712885293 H        -5234.6891 eV
Total Mermin free energy:         -192.3712885293 H        -5234.6891 eV
Force related energy:             -192.3712885293 H        -5234.6891 eV

Volume:                              0.983039E+04 au^3   0.145671E+04 A^3
Pressure:                            0.129787E-04 au     0.381846E+09 Pa
>> Charges saved for restart in charges.bin

total energy  -1.9237129E+02 H       energy change -1.0475394E-03 H
gradient norm  2.5830744E-02 H/a0    max. gradient  7.0215951E-03 H/a0
step length    1.1236064E-01 a0      max. step      2.2492279E-02 a0

--------------------------------------------------------------------------------

***  Geometry step: 16

 iSCC Total electronic   Diff electronic      SCC error    
    1   -0.19432969E+03    0.00000000E+00    0.61134156E-02
    2   -0.19433402E+03   -0.43327093E-02    0.33929281E-02
    3   -0.19433404E+03   -0.18857857E-04    0.64947584E-03
    4   -0.19433404E+03   -0.42646217E-05    0.85995508E-04
    5   -0.19433404E+03   -0.82023490E-07    0.25103400E-04
    6   -0.19433404E+03   -0.60886407E-08    0.63252864E-05
    7   -0.19433404E+03   -0.14000534E-09    0.14270230E-05
    8   -0.19433404E+03   -0.68212103E-11    0.28136132E-06
    9   -0.19433404E+03   -0.11368684E-11    0.56790005E-07
   10   -0.19433404E+03   -0.19895197E-12    0.59973848E-08

Total Energy:                     -192.3721340127 H        -5234.7121 eV
Extrapolated to 0K:               -192.3721340127 H        -5234.7121 eV
Total Mermin free energy:         -192.3721340127 H        -5234.7121 eV
Force related energy:             -192.3721340127 H        -5234.7121 eV

Volume:                              0.984395E+04 au^3   0.145872E+04 A^3
Pressure:                            0.136463E-04 au     0.401489E+09 Pa
>> Charges saved for restart in charges.bin

total energy  -1.9237213E+02 H       energy change -8.4548338E-04 H
gradient norm  2.2277015E-02 H/a0    max. gradient  5.3416226E-03 H/a0
step length    1.0688264E-01 a0      max. step      2.0566356E-02 a0

--------------------------------------------------------------------------------

***  Geometry step: 17

 iSCC Total electronic   Diff electronic      SCC error    
    1   -0.19433404E+03    0.00000000E+00    0.42102683E-02
    2   -0.19433723E+03   -0.31869799E-02    0.23898608E-02
    3   -0.19433724E+03   -0.85937322E-05    0.47759030E-03
    4   -0.19433724E+03   -0.18608339E-05    0.95151032E-04
    5   -0.19433724E+03   -0.50421647E-07    0.20368611E-04
    6   -0.19433724E+03   -0.34854679E-08    0.42060635E-05
    7   -0.19433724E+03   -0.79268148E-10    0.11136704E-05
    8   -0.19433724E+03   -0.38937742E-11    0.20042303E-06
    9   -0.19433724E+03   -0.59685590E-12    0.38601760E-07
   10   -0.19433724E+03   -0.11368684E-12    0.47859157E-08

Total Energy:                     -192.3727877554 H        -5234.7299 eV
Extrapolated to 0K:               -192.3727877554 H        -5234.7299 eV
Total Mermin free energy:         -192.3727877554 H        -5234.7299 eV
Force related energy:             -192.3727877554 H        -5234.7299 eV

Volume:                              0.985516E+04 au^3   0.146038E+04 A^3
Pressure:                            0.141776E-04 au     0.417119E+09 Pa
>> Charges saved for restart in charges.bin

total energy  -1.9237279E+02 H       energy change -6.5374270E-04 H
gradient norm  1.9220410E-02 H/a0    max. gradient  3.8288907E-03 H/a0
step length    9.0938363E-02 a0      max. step      1.6024888E-02 a0

--------------------------------------------------------------------------------

***  Geometry step: 18

 iSCC Total electronic   Diff electronic      SCC error    
    1   -0.19433724E+03    0.00000000E+00    0.43809621E-02
    2   -0.19433892E+03   -0.16857912E-02    0.19307147E-02
    3   -0.19433894E+03   -0.10409461E-04    0.55389362E-03
    4   -0.19433894E+03   -0.20670535E-05    0.96410172E-04
    5   -0.19433894E+03   -0.44719712E-07    0.18968876E-04
    6   -0.19433894E+03   -0.40867292E-08    0.46737478E-05
    7   -0.19433894E+03   -0.69576345E-10    0.10420511E-05
    8   -0.19433894E+03   -0.26147973E-11    0.18346969E-06
    9   -0.19433894E+03   -0.54001248E-12    0.35261654E-07
   10   -0.19433894E+03   -0.28421709E-13    0.48849040E-08

Total Energy:                     -192.3734647190 H        -5234.7483 eV
Extrapolated to 0K:               -192.3734647190 H        -5234.7483 eV
Total Mermin free energy:         -192.3734647190 H        -5234.7483 eV
Force related energy:             -192.3734647190 H        -5234.7483 eV

Volume:                              0.986841E+04 au^3   0.146235E+04 A^3
Pressure:                            0.140812E-04 au     0.414283E+09 Pa
>> Charges saved for restart in charges.bin

total energy  -1.9237346E+02 H       energy change -6.7696358E-04 H
gradient norm  1.9919474E-02 H/a0    max. gradient  5.8030285E-03 H/a0
step length    1.0502688E-01 a0      max. step      1.8633852E-02 a0

--------------------------------------------------------------------------------

***  Geometry step: 19

 iSCC Total electronic   Diff electronic      SCC error    
    1   -0.19433894E+03    0.00000000E+00    0.32105595E-02
    2   -0.19433739E+03    0.15497082E-02    0.15810592E-02
    3   -0.19433740E+03   -0.10664803E-04    0.53376288E-03
    4   -0.19433740E+03   -0.20737116E-05    0.65181058E-04
    5   -0.19433740E+03   -0.41005535E-07    0.89284693E-05
    6   -0.19433740E+03   -0.49707296E-08    0.32360024E-05
    7   -0.19433740E+03   -0.66421535E-10    0.12202983E-05
    8   -0.19433740E+03   -0.12221335E-11    0.13664232E-06
    9   -0.19433740E+03   -0.34106051E-12    0.23508325E-07
   10   -0.19433740E+03    0.28421709E-13    0.46433901E-08

Total Energy:                     -192.3740992717 H        -5234.7656 eV
Extrapolated to 0K:               -192.3740992717 H        -5234.7656 eV
Total Mermin free energy:         -192.3740992717 H        -5234.7656 eV
Force related energy:             -192.3740992717 H        -5234.7656 eV

Volume:                              0.988352E+04 au^3   0.146459E+04 A^3
Pressure:                            0.125529E-04 au     0.369318E+09 Pa
>> Charges saved for restart in charges.bin

total energy  -1.9237410E+02 H       energy change -6.3455272E-04 H
gradient norm  2.0783328E-02 H/a0    max. gradient  5.8373265E-03 H/a0
step length    1.0768988E-01 a0      max. step      2.1248161E-02 a0

--------------------------------------------------------------------------------

***  Geometry step: 20

 iSCC Total electronic   Diff electronic      SCC error    
    1   -0.19433740E+03    0.00000000E+00    0.34574029E-02
    2   -0.19433237E+03    0.50330510E-02    0.18071688E-02
    3   -0.19433238E+03   -0.11346555E-04    0.52017559E-03
    4   -0.19433238E+03   -0.24131612E-05    0.78713150E-04
    5   -0.19433238E+03   -0.63925995E-07    0.21944173E-04
    6   -0.19433238E+03   -0.57433169E-08    0.49751363E-05
    7   -0.19433238E+03   -0.80262907E-10    0.97607122E-06
    8   -0.19433238E+03   -0.26432190E-11    0.17095426E-06
    9   -0.19433238E+03   -0.71054274E-12    0.44981569E-07
   10   -0.19433238E+03   -0.56843419E-13    0.71505424E-08

Total Energy:                     -192.3747094771 H        -5234.7822 eV
Extrapolated to 0K:               -192.3747094771 H        -5234.7822 eV
Total Mermin free energy:         -192.3747094771 H        -5234.7822 eV
Force related energy:             -192.3747094771 H        -5234.7822 eV

Volume:                              0.990235E+04 au^3   0.146738E+04 A^3
Pressure:                            0.928355E-05 au     0.273131E+09 Pa
>> Charges saved for restart in charges.bin

total energy  -1.9237471E+02 H       energy change -6.1020544E-04 H
gradient norm  1.9001271E-02 H/a0    max. gradient  5.0312255E-03 H/a0
step length    1.1900246E-01 a0      max. step      2.4925410E-02 a0

--------------------------------------------------------------------------------

***  Geometry step: 21

 iSCC Total electronic   Diff electronic      SCC error    
    1   -0.19433238E+03    0.00000000E+00    0.25839278E-02
    2   -0.19432760E+03    0.47789296E-02    0.14456085E-02
    3   -0.19432761E+03   -0.61813520E-05    0.43046512E-03
    4   -0.19432761E+03   -0.14287216E-05    0.60312898E-04
    5   -0.19432761E+03   -0.43030099E-07    0.17993264E-04
    6   -0.19432761E+03   -0.27451961E-08    0.35879482E-05
    7   -0.19432761E+03   -0.54882321E-10    0.63030651E-06
    8   -0.19432761E+03   -0.22737368E-11    0.18485649E-06
    9   -0.19432761E+03   -0.39790393E-12    0.33596214E-07
   10   -0.19432761E+03    0.00000000E+00    0.39679038E-08

Total Energy:                     -192.3751136826 H        -5234.7932 eV
Extrapolated to 0K:               -192.3751136826 H        -5234.7932 eV
Total Mermin free energy:         -192.3751136826 H        -5234.7932 eV
Force related energy:             -192.3751136826 H        -5234.7932 eV

Volume:                              0.991682E+04 au^3   0.146952E+04 A^3
Pressure:                            0.627983E-05 au     0.184759E+09 Pa
>> Charges saved for restart in charges.bin

total energy  -1.9237511E+02 H       energy change -4.0420543E-04 H
gradient norm  1.4528488E-02 H/a0    max. gradient  4.1318006E-03 H/a0
step length    8.4507860E-02 a0      max. step      1.7641621E-02 a0

--------------------------------------------------------------------------------

***  Geometry step: 22

 iSCC Total electronic   Diff electronic      SCC error    
    1   -0.19432761E+03    0.00000000E+00    0.24796405E-02
    2   -0.19432555E+03    0.20624560E-02    0.11899957E-02
    3   -0.19432555E+03   -0.68247284E-05    0.43477333E-03
    4   -0.19432556E+03   -0.15414778E-05    0.58319782E-04
    5   -0.19432556E+03   -0.28777208E-07    0.13531914E-04
    6   -0.19432556E+03   -0.21374547E-08    0.34378811E-05
    7   -0.19432556E+03   -0.48316906E-10    0.52319427E-06
    8   -0.19432556E+03   -0.14779289E-11    0.15637862E-06
    9   -0.19432556E+03   -0.17053026E-12    0.29881211E-07
   10   -0.19432556E+03    0.11368684E-12    0.48564686E-08

Total Energy:                     -192.3753944145 H        -5234.8008 eV
Extrapolated to 0K:               -192.3753944145 H        -5234.8008 eV
Total Mermin free energy:         -192.3753944145 H        -5234.8008 eV
Force related energy:             -192.3753944145 H        -5234.8008 eV

Volume:                              0.992742E+04 au^3   0.147109E+04 A^3
Pressure:                            0.441009E-05 au     0.129749E+09 Pa
>> Charges saved for restart in charges.bin

total energy  -1.9237539E+02 H       energy change -2.8073187E-04 H
gradient norm  1.0873174E-02 H/a0    max. gradient  2.0914357E-03 H/a0
step length    6.3332601E-02 a0      max. step      1.2258367E-02 a0

--------------------------------------------------------------------------------

***  Geometry step: 23

 iSCC Total electronic   Diff electronic      SCC error    
    1   -0.19432556E+03    0.00000000E+00    0.19401634E-02
    2   -0.19432695E+03   -0.13897857E-02    0.79818885E-03
    3   -0.19432695E+03   -0.36727445E-05    0.23227660E-03
    4   -0.19432695E+03   -0.79824306E-06    0.36522612E-04
    5   -0.19432695E+03   -0.11029215E-07    0.50169808E-05
    6   -0.19432695E+03   -0.86771479E-09    0.12751114E-05
    7   -0.19432695E+03   -0.26261660E-10    0.37472195E-06
    8   -0.19432695E+03   -0.54001248E-12    0.74217162E-07
    9   -0.19432695E+03    0.00000000E+00    0.11283794E-07
   10   -0.19432695E+03   -0.11368684E-12    0.20077477E-08

Total Energy:                     -192.3755633122 H        -5234.8054 eV
Extrapolated to 0K:               -192.3755633122 H        -5234.8054 eV
Total Mermin free energy:         -192.3755633122 H        -5234.8054 eV
Force related energy:             -192.3755633122 H        -5234.8054 eV

Volume:                              0.993277E+04 au^3   0.147188E+04 A^3
Pressure:                            0.427825E-05 au     0.125870E+09 Pa
>> Charges saved for restart in charges.bin

total energy  -1.9237556E+02 H       energy change -1.6889772E-04 H
gradient norm  1.0341895E-02 H/a0    max. gradient  1.9435766E-03 H/a0
step length    3.9306598E-02 a0      max. step      7.1167400E-03 a0

--------------------------------------------------------------------------------

***  Geometry step: 24

 iSCC Total electronic   Diff electronic      SCC error    
    1   -0.19432695E+03    0.00000000E+00    0.21551383E-02
    2   -0.19432997E+03   -0.30195023E-02    0.11779986E-02
    3   -0.19432997E+03   -0.34028428E-05    0.24252493E-03
    4   -0.19432997E+03   -0.75456632E-06    0.32533907E-04
    5   -0.19432997E+03   -0.12929291E-07    0.10523635E-04
    6   -0.19432997E+03   -0.83184659E-09    0.14713332E-05
    7   -0.19432997E+03   -0.25409008E-10    0.35399266E-06
    8   -0.19432997E+03   -0.28421709E-12    0.90046107E-07
    9   -0.19432997E+03   -0.22737368E-12    0.15754797E-07
   10   -0.19432997E+03    0.85265128E-13    0.17349016E-08

Total Energy:                     -192.3757285000 H        -5234.8099 eV
Extrapolated to 0K:               -192.3757285000 H        -5234.8099 eV
Total Mermin free energy:         -192.3757285000 H        -5234.8099 eV
Force related energy:             -192.3757285000 H        -5234.8099 eV

Volume:                              0.993806E+04 au^3   0.147267E+04 A^3
Pressure:                            0.478863E-05 au     0.140886E+09 Pa
>> Charges saved for restart in charges.bin

total energy  -1.9237573E+02 H       energy change -1.6518782E-04 H
gradient norm  9.9364129E-03 H/a0    max. gradient  2.1201587E-03 H/a0
step length    4.4509034E-02 a0      max. step      9.0761774E-03 a0

--------------------------------------------------------------------------------

***  Geometry step: 25

 iSCC Total electronic   Diff electronic      SCC error    
    1   -0.19432997E+03    0.00000000E+00    0.20891814E-02
    2   -0.19433236E+03   -0.23871318E-02    0.96807319E-03
    3   -0.19433236E+03   -0.22866840E-05    0.17654765E-03
    4   -0.19433236E+03   -0.52982321E-06    0.25146553E-04
    5   -0.19433236E+03   -0.99455235E-08    0.76787360E-05
    6   -0.19433236E+03   -0.57798388E-09    0.97520480E-06
    7   -0.19433236E+03   -0.13415047E-10    0.24072289E-06
    8   -0.19433236E+03   -0.39790393E-12    0.63458192E-07
    9   -0.19433236E+03    0.28421709E-13    0.82986644E-08

Total Energy:                     -192.3758603439 H        -5234.8135 eV
Extrapolated to 0K:               -192.3758603439 H        -5234.8135 eV
Total Mermin free energy:         -192.3758603439 H        -5234.8135 eV
Force related energy:             -192.3758603439 H        -5234.8135 eV

Volume:                              0.994339E+04 au^3   0.147346E+04 A^3
Pressure:                            0.524037E-05 au     0.154177E+09 Pa
>> Charges saved for restart in charges.bin

total energy  -1.9237586E+02 H       energy change -1.3184396E-04 H
gradient norm  9.1224698E-03 H/a0    max. gradient  1.9872235E-03 H/a0
step length    4.3201133E-02 a0      max. step      9.2975218E-03 a0

--------------------------------------------------------------------------------

***  Geometry step: 26

 iSCC Total electronic   Diff electronic      SCC error    
    1   -0.19433236E+03    0.00000000E+00    0.22299744E-02
    2   -0.19433326E+03   -0.89298449E-03    0.94373262E-03
    3   -0.19433326E+03   -0.24113677E-05    0.28078889E-03
    4   -0.19433326E+03   -0.55965236E-06    0.22545249E-04
    5   -0.19433326E+03   -0.89090690E-08    0.55445434E-05
    6   -0.19433326E+03   -0.59029048E-09    0.10453835E-05
    7   -0.19433326E+03   -0.98339115E-11    0.27094925E-06
    8   -0.19433326E+03   -0.28421709E-12    0.79711481E-07
    9   -0.19433326E+03   -0.28421709E-13    0.14526825E-07
   10   -0.19433326E+03   -0.56843419E-13    0.21936040E-08

Total Energy:                     -192.3759927689 H        -5234.8171 eV
Extrapolated to 0K:               -192.3759927689 H        -5234.8171 eV
Total Mermin free energy:         -192.3759927689 H        -5234.8171 eV
Force related energy:             -192.3759927689 H        -5234.8171 eV

Volume:                              0.995014E+04 au^3   0.147446E+04 A^3
Pressure:                            0.506750E-05 au     0.149091E+09 Pa
>> Charges saved for restart in charges.bin

total energy  -1.9237599E+02 H       energy change -1.3242500E-04 H
gradient norm  8.9361277E-03 H/a0    max. gradient  2.6017878E-03 H/a0
step length    4.7634701E-02 a0      max. step      9.7808289E-03 a0

--------------------------------------------------------------------------------

***  Geometry step: 27

 iSCC Total electronic   Diff electronic      SCC error    
    1   -0.19433326E+03    0.00000000E+00    0.19292272E-02
    2   -0.19433274E+03    0.52335926E-03    0.10863580E-02
    3   -0.19433274E+03   -0.26571378E-05    0.36981642E-03
    4   -0.19433274E+03   -0.62336184E-06    0.30728370E-04
    5   -0.19433274E+03   -0.10659164E-07    0.37520519E-05
    6   -0.19433274E+03   -0.76096285E-09    0.10397844E-05
    7   -0.19433274E+03   -0.81854523E-11    0.37281647E-06
    8   -0.19433274E+03   -0.28421709E-12    0.74756646E-07
    9   -0.19433274E+03   -0.11368684E-12    0.17673343E-07
   10   -0.19433274E+03    0.11368684E-12    0.22490267E-08

Total Energy:                     -192.3761405191 H        -5234.8211 eV
Extrapolated to 0K:               -192.3761405191 H        -5234.8211 eV
Total Mermin free energy:         -192.3761405191 H        -5234.8211 eV
Force related energy:             -192.3761405191 H        -5234.8211 eV

Volume:                              0.995858E+04 au^3   0.147571E+04 A^3
Pressure:                            0.419587E-05 au     0.123447E+09 Pa
>> Charges saved for restart in charges.bin

total energy  -1.9237614E+02 H       energy change -1.4775020E-04 H
gradient norm  1.0062915E-02 H/a0    max. gradient  2.8761203E-03 H/a0
step length    5.6029805E-02 a0      max. step      1.1421714E-02 a0

--------------------------------------------------------------------------------

***  Geometry step: 28

 iSCC Total electronic   Diff electronic      SCC error    
    1   -0.19433274E+03    0.00000000E+00    0.21249956E-02
    2   -0.19433151E+03    0.12314687E-02    0.13842104E-02
    3   -0.19433151E+03   -0.26945107E-05    0.43344871E-03
    4   -0.19433151E+03   -0.63354710E-06    0.33965953E-04
    5   -0.19433151E+03   -0.18967597E-07    0.85141219E-05
    6   -0.19433151E+03   -0.10223857E-08    0.19426398E-05
    7   -0.19433151E+03   -0.10800250E-10    0.47254022E-06
    8   -0.19433151E+03   -0.36948222E-12    0.97857926E-07
    9   -0.19433151E+03   -0.28421709E-13    0.28368657E-07
   10   -0.19433151E+03    0.00000000E+00    0.31922536E-08

Total Energy:                     -192.3763121461 H        -5234.8258 eV
Extrapolated to 0K:               -192.3763121461 H        -5234.8258 eV
Total Mermin free energy:         -192.3763121461 H        -5234.8258 eV
Force related energy:             -192.3763121461 H        -5234.8258 eV

Volume:                              0.996918E+04 au^3   0.147728E+04 A^3
Pressure:                            0.290688E-05 au     0.855233E+08 Pa
>> Charges saved for restart in charges.bin

total energy  -1.9237631E+02 H       energy change -1.7162698E-04 H
gradient norm  1.1151560E-02 H/a0    max. gradient  3.3088619E-03 H/a0
step length    7.2727312E-02 a0      max. step      1.6020711E-02 a0

--------------------------------------------------------------------------------

***  Geometry step: 29

 iSCC Total electronic   Diff electronic      SCC error    
    1   -0.19433151E+03    0.00000000E+00    0.18901412E-02
    2   -0.19433007E+03    0.14393605E-02    0.11621298E-02
    3   -0.19433007E+03   -0.20684539E-05    0.34796362E-03
    4   -0.19433007E+03   -0.45822324E-06    0.35249308E-04
    5   -0.19433007E+03   -0.21299456E-07    0.10683933E-04
    6   -0.19433007E+03   -0.76374818E-09    0.17227971E-05
    7   -0.19433007E+03   -0.15489832E-10    0.41190754E-06
    8   -0.19433007E+03   -0.34106051E-12    0.10054530E-06
    9   -0.19433007E+03   -0.56843419E-13    0.21179724E-07
   10   -0.19433007E+03   -0.56843419E-13    0.26480542E-08

Total Energy:                     -192.3764856439 H        -5234.8305 eV
Extrapolated to 0K:               -192.3764856439 H        -5234.8305 eV
Total Mermin free energy:         -192.3764856439 H        -5234.8305 eV
Force related energy:             -192.3764856439 H        -5234.8305 eV

Volume:                              0.997919E+04 au^3   0.147876E+04 A^3
Pressure:                            0.150217E-05 au     0.441952E+08 Pa
>> Charges saved for restart in charges.bin

total energy  -1.9237649E+02 H       energy change -1.7349782E-04 H
gradient norm  1.0687949E-02 H/a0    max. gradient  2.3940310E-03 H/a0
step length    7.5885057E-02 a0      max. step      1.7458768E-02 a0

--------------------------------------------------------------------------------

***  Geometry step: 30

 iSCC Total electronic   Diff electronic      SCC error    
    1   -0.19433007E+03    0.00000000E+00    0.19732829E-02
    2   -0.19432967E+03    0.40872387E-03    0.96050004E-03
    3   -0.19432967E+03   -0.32387202E-05    0.29266985E-03
    4   -0.19432967E+03   -0.66182395E-06    0.34453722E-04
    5   -0.19432967E+03   -0.18399760E-07    0.11182576E-04
    6   -0.19432967E+03   -0.10056738E-08    0.23158240E-05
    7   -0.19432967E+03   -0.17649882E-10    0.41855004E-06
    8   -0.19432967E+03   -0.36948222E-12    0.97612778E-07
    9   -0.19432967E+03   -0.14210855E-12    0.19149256E-07
   10   -0.19432967E+03    0.56843419E-13    0.25889855E-08

Total Energy:                     -192.3766598232 H        -5234.8353 eV
Extrapolated to 0K:               -192.3766598232 H        -5234.8353 eV
Total Mermin free energy:         -192.3766598232 H        -5234.8353 eV
Force related energy:             -192.3766598232 H        -5234.8353 eV

Volume:                              0.998750E+04 au^3   0.148000E+04 A^3
Pressure:                            0.456515E-06 au     0.134311E+08 Pa
>> Charges saved for restart in charges.bin

total energy  -1.9237666E+02 H       energy change -1.7417922E-04 H
gradient norm  9.5900476E-03 H/a0    max. gradient  1.7603238E-03 H/a0
step length    7.8436461E-02 a0      max. step      1.8351267E-02 a0

--------------------------------------------------------------------------------

***  Geometry step: 31

 iSCC Total electronic   Diff electronic      SCC error    
    1   -0.19432967E+03    0.00000000E+00    0.23945175E-02
    2   -0.19433092E+03   -0.12460288E-02    0.98523732E-03
    3   -0.19433092E+03   -0.41448500E-05    0.32219163E-03
    4   -0.19433092E+03   -0.83550574E-06    0.43348873E-04
    5   -0.19433092E+03   -0.94419477E-08    0.66555079E-05
    6   -0.19433092E+03   -0.86507157E-09    0.19106022E-05
    7   -0.19433092E+03   -0.91233687E-11    0.42965129E-06
    8   -0.19433092E+03   -0.22737368E-12    0.55050696E-07
    9   -0.19433092E+03   -0.85265128E-13    0.13604716E-07
   10   -0.19433092E+03    0.56843419E-13    0.20677713E-08

Total Energy:                     -192.3768119271 H        -5234.8394 eV
Extrapolated to 0K:               -192.3768119271 H        -5234.8394 eV
Total Mermin free energy:         -192.3768119271 H        -5234.8394 eV
Force related energy:             -192.3768119271 H        -5234.8394 eV

Volume:                              0.999251E+04 au^3   0.148074E+04 A^3
Pressure:                            0.182830E-06 au     0.537905E+07 Pa
>> Charges saved for restart in charges.bin

total energy  -1.9237681E+02 H       energy change -1.5210395E-04 H
gradient norm  9.7270484E-03 H/a0    max. gradient  2.5537808E-03 H/a0
step length    6.9233401E-02 a0      max. step      1.5679814E-02 a0

--------------------------------------------------------------------------------

***  Geometry step: 32

 iSCC Total electronic   Diff electronic      SCC error    
    1   -0.19433092E+03    0.00000000E+00    0.28467806E-02
    2   -0.19433392E+03   -0.29989028E-02    0.11376143E-02
    3   -0.19433392E+03   -0.46958193E-05    0.27393391E-03
    4   -0.19433393E+03   -0.97466295E-06    0.43618106E-04
    5   -0.19433393E+03   -0.90713854E-08    0.35150042E-05
    6   -0.19433393E+03   -0.88724050E-09    0.94664806E-06
    7   -0.19433393E+03   -0.11624479E-10    0.37365952E-06
    8   -0.19433393E+03   -0.34106051E-12    0.52449070E-07
    9   -0.19433393E+03    0.56843419E-13    0.11541996E-07
   10   -0.19433393E+03   -0.56843419E-13    0.33530339E-08

Total Energy:                     -192.3769775768 H        -5234.8439 eV
Extrapolated to 0K:               -192.3769775768 H        -5234.8439 eV
Total Mermin free energy:         -192.3769775768 H        -5234.8439 eV
Force related energy:             -192.3769775768 H        -5234.8439 eV

Volume:                              0.999557E+04 au^3   0.148119E+04 A^3
Pressure:                            0.802256E-06 au     0.236032E+08 Pa
>> Charges saved for restart in charges.bin

total energy  -1.9237698E+02 H       energy change -1.6564968E-04 H
gradient norm  1.1092769E-02 H/a0    max. gradient  2.8235830E-03 H/a0
step length    7.5598729E-02 a0      max. step      1.7109465E-02 a0

--------------------------------------------------------------------------------

***  Geometry step: 33

 iSCC Total electronic   Diff electronic      SCC error    
    1   -0.19433393E+03    0.00000000E+00    0.29770502E-02
    2   -0.19433698E+03   -0.30553568E-02    0.12329406E-02
    3   -0.19433698E+03   -0.41467183E-05    0.33340297E-03
    4   -0.19433699E+03   -0.88300573E-06    0.47478629E-04
    5   -0.19433699E+03   -0.11674103E-07    0.48046944E-05
    6   -0.19433699E+03   -0.12013572E-08    0.15685265E-05
    7   -0.19433699E+03   -0.16285640E-10    0.44495889E-06
    8   -0.19433699E+03   -0.31263880E-12    0.88179251E-07
    9   -0.19433699E+03   -0.14210855E-12    0.17333005E-07
   10   -0.19433699E+03    0.28421709E-13    0.26897968E-08

Total Energy:                     -192.3771687194 H        -5234.8491 eV
Extrapolated to 0K:               -192.3771687194 H        -5234.8491 eV
Total Mermin free energy:         -192.3771687194 H        -5234.8491 eV
Force related energy:             -192.3771687194 H        -5234.8491 eV

Volume:                              0.999874E+04 au^3   0.148166E+04 A^3
Pressure:                            0.164418E-05 au     0.483734E+08 Pa
>> Charges saved for restart in charges.bin

total energy  -1.9237717E+02 H       energy change -1.9114262E-04 H
gradient norm  1.1722287E-02 H/a0    max. gradient  2.6206835E-03 H/a0
step length    9.2608353E-02 a0      max. step      2.1135889E-02 a0

--------------------------------------------------------------------------------

***  Geometry step: 34

 iSCC Total electronic   Diff electronic      SCC error    
    1   -0.19433699E+03    0.00000000E+00    0.20781853E-02
    2   -0.19433883E+03   -0.18431237E-02    0.10774331E-02
    3   -0.19433883E+03   -0.26722287E-05    0.34846891E-03
    4   -0.19433883E+03   -0.60316438E-06    0.38727481E-04
    5   -0.19433883E+03   -0.17223044E-07    0.71948657E-05
    6   -0.19433883E+03   -0.10299743E-08    0.16561640E-05
    7   -0.19433883E+03   -0.16513013E-10    0.43194186E-06
    8   -0.19433883E+03   -0.36948222E-12    0.96717061E-07
    9   -0.19433883E+03   -0.19895197E-12    0.20283231E-07
   10   -0.19433883E+03   -0.28421709E-13    0.25500846E-08

Total Energy:                     -192.3773805871 H        -5234.8549 eV
Extrapolated to 0K:               -192.3773805871 H        -5234.8549 eV
Total Mermin free energy:         -192.3773805871 H        -5234.8549 eV
Force related energy:             -192.3773805871 H        -5234.8549 eV

Volume:                              0.100027E+05 au^3   0.148225E+04 A^3
Pressure:                            0.214038E-05 au     0.629722E+08 Pa
>> Charges saved for restart in charges.bin

total energy  -1.9237738E+02 H       energy change -2.1186771E-04 H
gradient norm  1.1343149E-02 H/a0    max. gradient  2.6960559E-03 H/a0
step length    1.1065613E-01 a0      max. step      2.5537837E-02 a0

--------------------------------------------------------------------------------

***  Geometry step: 35

 iSCC Total electronic   Diff electronic      SCC error    
    1   -0.19433883E+03    0.00000000E+00    0.26657325E-02
    2   -0.19433892E+03   -0.88908134E-04    0.12193910E-02
    3   -0.19433892E+03   -0.29480186E-05    0.30176176E-03
    4   -0.19433892E+03   -0.69893119E-06    0.30226756E-04
    5   -0.19433892E+03   -0.23522432E-07    0.10456873E-04
    6   -0.19433892E+03   -0.97895736E-09    0.24697401E-05
    7   -0.19433892E+03   -0.16569857E-10    0.40472044E-06
    8   -0.19433892E+03   -0.45474735E-12    0.10443032E-06
    9   -0.19433892E+03   -0.25579538E-12    0.25606085E-07
   10   -0.19433892E+03    0.11368684E-12    0.22371700E-08

Total Energy:                     -192.3776021177 H        -5234.8609 eV
Extrapolated to 0K:               -192.3776021177 H        -5234.8609 eV
Total Mermin free energy:         -192.3776021177 H        -5234.8609 eV
Force related energy:             -192.3776021177 H        -5234.8609 eV

Volume:                              0.100078E+05 au^3   0.148300E+04 A^3
Pressure:                            0.193055E-05 au     0.567988E+08 Pa
>> Charges saved for restart in charges.bin

total energy  -1.9237760E+02 H       energy change -2.2153056E-04 H
gradient norm  1.0575024E-02 H/a0    max. gradient  2.0255024E-03 H/a0
step length    1.2421738E-01 a0      max. step      2.8704623E-02 a0

--------------------------------------------------------------------------------

***  Geometry step: 36

 iSCC Total electronic   Diff electronic      SCC error    
    1   -0.19433892E+03    0.00000000E+00    0.22455361E-02
    2   -0.19433826E+03    0.66072505E-03    0.10651567E-02
    3   -0.19433827E+03   -0.33337896E-05    0.26381334E-03
    4   -0.19433827E+03   -0.78730716E-06    0.25337804E-04
    5   -0.19433827E+03   -0.19016198E-07    0.11766179E-04
    6   -0.19433827E+03   -0.92174446E-09    0.27416531E-05
    7   -0.19433827E+03   -0.11539214E-10    0.34448623E-06
    8   -0.19433827E+03   -0.34106051E-12    0.89438394E-07
    9   -0.19433827E+03   -0.19895197E-12    0.16435117E-07
   10   -0.19433827E+03    0.11368684E-12    0.19887660E-08

Total Energy:                     -192.3777877735 H        -5234.8660 eV
Extrapolated to 0K:               -192.3777877735 H        -5234.8660 eV
Total Mermin free energy:         -192.3777877735 H        -5234.8660 eV
Force related energy:             -192.3777877735 H        -5234.8660 eV

Volume:                              0.100117E+05 au^3   0.148359E+04 A^3
Pressure:                            0.155659E-05 au     0.457965E+08 Pa
>> Charges saved for restart in charges.bin

total energy  -1.9237779E+02 H       energy change -1.8565583E-04 H
gradient norm  1.0305528E-02 H/a0    max. gradient  2.8712957E-03 H/a0
step length    1.0626370E-01 a0      max. step      2.4306035E-02 a0

--------------------------------------------------------------------------------

***  Geometry step: 37

 iSCC Total electronic   Diff electronic      SCC error    
    1   -0.19433827E+03    0.00000000E+00    0.23047606E-02
    2   -0.19433746E+03    0.80360057E-03    0.10549524E-02
    3   -0.19433747E+03   -0.36502687E-05    0.30046269E-03
    4   -0.19433747E+03   -0.83904877E-06    0.32562217E-04
    5   -0.19433747E+03   -0.16948661E-07    0.11165556E-04
    6   -0.19433747E+03   -0.98319219E-09    0.25238771E-05
    7   -0.19433747E+03   -0.12391865E-10    0.44564795E-06
    8   -0.19433747E+03   -0.34106051E-12    0.90015937E-07
    9   -0.19433747E+03   -0.17053026E-12    0.18525402E-07
   10   -0.19433747E+03   -0.56843419E-13    0.20766819E-08

Total Energy:                     -192.3779634352 H        -5234.8707 eV
Extrapolated to 0K:               -192.3779634352 H        -5234.8707 eV
Total Mermin free energy:         -192.3779634352 H        -5234.8707 eV
Force related energy:             -192.3779634352 H        -5234.8707 eV

Volume:                              0.100153E+05 au^3   0.148411E+04 A^3
Pressure:                            0.101701E-05 au     0.299215E+08 Pa
>> Charges saved for restart in charges.bin

total energy  -1.9237796E+02 H       energy change -1.7566173E-04 H
gradient norm  1.0200874E-02 H/a0    max. gradient  3.2220133E-03 H/a0
step length    1.0083312E-01 a0      max. step      2.2374264E-02 a0

--------------------------------------------------------------------------------

***  Geometry step: 38

 iSCC Total electronic   Diff electronic      SCC error    
    1   -0.19433747E+03    0.00000000E+00    0.17133494E-02
    2   -0.19433759E+03   -0.12422656E-03    0.79443082E-03
    3   -0.19433760E+03   -0.29876524E-05    0.26447302E-03
    4   -0.19433760E+03   -0.62987755E-06    0.40615544E-04
    5   -0.19433760E+03   -0.10416784E-07    0.79800941E-05
    6   -0.19433760E+03   -0.91978336E-09    0.18063697E-05
    7   -0.19433760E+03   -0.14836132E-10    0.36062331E-06
    8   -0.19433760E+03   -0.28421709E-12    0.57093871E-07
    9   -0.19433760E+03   -0.17053026E-12    0.16553314E-07
   10   -0.19433760E+03   -0.28421709E-13    0.21053665E-08

Total Energy:                     -192.3781231311 H        -5234.8751 eV
Extrapolated to 0K:               -192.3781231311 H        -5234.8751 eV
Total Mermin free energy:         -192.3781231311 H        -5234.8751 eV
Force related energy:             -192.3781231311 H        -5234.8751 eV

Volume:                              0.100177E+05 au^3   0.148447E+04 A^3
Pressure:                            0.743654E-06 au     0.218791E+08 Pa
>> Charges saved for restart in charges.bin

total energy  -1.9237812E+02 H       energy change -1.5969585E-04 H
gradient norm  9.2699674E-03 H/a0    max. gradient  1.8841274E-03 H/a0
step length    8.8382092E-02 a0      max. step      1.8783548E-02 a0

--------------------------------------------------------------------------------

***  Geometry step: 39

 iSCC Total electronic   Diff electronic      SCC error    
    1   -0.19433760E+03    0.00000000E+00    0.20127953E-02
    2   -0.19433916E+03   -0.15657380E-02    0.76322642E-03
    3   -0.19433917E+03   -0.29768320E-05    0.17582769E-03
    4   -0.19433917E+03   -0.57649893E-06    0.38663728E-04
    5   -0.19433917E+03   -0.88078593E-08    0.69432247E-05
    6   -0.19433917E+03   -0.67123551E-09    0.18574584E-05
    7   -0.19433917E+03   -0.19952040E-10    0.51817631E-06
    8   -0.19433917E+03   -0.34106051E-12    0.64487262E-07
    9   -0.19433917E+03    0.28421709E-13    0.19619563E-07
   10   -0.19433917E+03   -0.56843419E-13    0.26104936E-08

Total Energy:                     -192.3782597843 H        -5234.8788 eV
Extrapolated to 0K:               -192.3782597843 H        -5234.8788 eV
Total Mermin free energy:         -192.3782597843 H        -5234.8788 eV
Force related energy:             -192.3782597843 H        -5234.8788 eV

Volume:                              0.100196E+05 au^3   0.148475E+04 A^3
Pressure:                            0.710858E-06 au     0.209141E+08 Pa
>> Charges saved for restart in charges.bin

total energy  -1.9237826E+02 H       energy change -1.3665319E-04 H
gradient norm  8.2377923E-03 H/a0    max. gradient  1.6696047E-03 H/a0
step length    7.7970162E-02 a0      max. step      1.5687026E-02 a0

--------------------------------------------------------------------------------

***  Geometry step: 40

 iSCC Total electronic   Diff electronic      SCC error    
    1   -0.19433917E+03    0.00000000E+00    0.20432190E-02
    2   -0.19434222E+03   -0.30529173E-02    0.88323523E-03
    3   -0.19434222E+03   -0.28705910E-05    0.16294912E-03
    4   -0.19434222E+03   -0.56971606E-06    0.39261564E-04
    5   -0.19434222E+03   -0.72274986E-08    0.45739412E-05
    6   -0.19434222E+03   -0.49024607E-09    0.13019175E-05
    7   -0.19434222E+03   -0.15830892E-10    0.41281578E-06
    8   -0.19434222E+03   -0.28421709E-12    0.75144682E-07
    9   -0.19434222E+03   -0.85265128E-13    0.15895509E-07
   10   -0.19434222E+03    0.56843419E-13    0.31612379E-08

Total Energy:                     -192.3783639884 H        -5234.8816 eV
Extrapolated to 0K:               -192.3783639884 H        -5234.8816 eV
Total Mermin free energy:         -192.3783639884 H        -5234.8816 eV
Force related energy:             -192.3783639884 H        -5234.8816 eV

Volume:                              0.100209E+05 au^3   0.148495E+04 A^3
Pressure:                            0.118254E-05 au     0.347916E+08 Pa
>> Charges saved for restart in charges.bin

total energy  -1.9237836E+02 H       energy change -1.0420411E-04 H
gradient norm  7.8424167E-03 H/a0    max. gradient  1.6594530E-03 H/a0
step length    6.4028601E-02 a0      max. step      1.2591685E-02 a0

--------------------------------------------------------------------------------

***  Geometry step: 41

 iSCC Total electronic   Diff electronic      SCC error    
    1   -0.19434222E+03    0.00000000E+00    0.18890162E-02
    2   -0.19434530E+03   -0.30742708E-02    0.77383844E-03
    3   -0.19434530E+03   -0.23946976E-05    0.14172619E-03
    4   -0.19434530E+03   -0.49672187E-06    0.30930359E-04
    5   -0.19434530E+03   -0.50470987E-08    0.52494843E-05
    6   -0.19434530E+03   -0.47114668E-09    0.14348948E-05
    7   -0.19434530E+03   -0.94075858E-11    0.38202586E-06
    8   -0.19434530E+03   -0.14210855E-12    0.69108284E-07
    9   -0.19434530E+03   -0.85265128E-13    0.18333982E-07
   10   -0.19434530E+03    0.56843419E-13    0.27526075E-08

Total Energy:                     -192.3784570769 H        -5234.8842 eV
Extrapolated to 0K:               -192.3784570769 H        -5234.8842 eV
Total Mermin free energy:         -192.3784570769 H        -5234.8842 eV
Force related energy:             -192.3784570769 H        -5234.8842 eV

Volume:                              0.100230E+05 au^3   0.148526E+04 A^3
Pressure:                            0.179363E-05 au     0.527705E+08 Pa
>> Charges saved for restart in charges.bin

total energy  -1.9237846E+02 H       energy change -9.3088461E-05 H
gradient norm  7.7768740E-03 H/a0    max. gradient  1.6006796E-03 H/a0
step length    5.7448395E-02 a0      max. step      1.1856850E-02 a0

--------------------------------------------------------------------------------

***  Geometry step: 42

 iSCC Total electronic   Diff electronic      SCC error    
    1   -0.19434530E+03    0.00000000E+00    0.18764300E-02
    2   -0.19434785E+03   -0.25476878E-02    0.78972344E-03
    3   -0.19434785E+03   -0.25003818E-05    0.19013542E-03
    4   -0.19434785E+03   -0.54860249E-06    0.25363092E-04
    5   -0.19434785E+03   -0.53654787E-08    0.46904974E-05
    6   -0.19434785E+03   -0.43993964E-09    0.13116376E-05
    7   -0.19434785E+03   -0.89528385E-11    0.34948724E-06
    8   -0.19434785E+03   -0.14210855E-12    0.72253730E-07
    9   -0.19434785E+03   -0.56843419E-13    0.17451702E-07
   10   -0.19434785E+03    0.85265128E-13    0.29810590E-08

Total Energy:                     -192.3785566224 H        -5234.8869 eV
Extrapolated to 0K:               -192.3785566224 H        -5234.8869 eV
Total Mermin free energy:         -192.3785566224 H        -5234.8869 eV
Force related energy:             -192.3785566224 H        -5234.8869 eV

Volume:                              0.100269E+05 au^3   0.148583E+04 A^3
Pressure:                            0.223922E-05 au     0.658801E+08 Pa
>> Charges saved for restart in charges.bin

total energy  -1.9237856E+02 H       energy change -9.9545525E-05 H
gradient norm  7.4754770E-03 H/a0    max. gradient  1.9163648E-03 H/a0
step length    7.0664428E-02 a0      max. step      1.4827036E-02 a0

--------------------------------------------------------------------------------

***  Geometry step: 43

 iSCC Total electronic   Diff electronic      SCC error    
    1   -0.19434785E+03    0.00000000E+00    0.10976762E-02
    2   -0.19434829E+03   -0.43948062E-03    0.51692055E-03
    3   -0.19434829E+03   -0.13850549E-05    0.19471185E-03
    4   -0.19434829E+03   -0.29287656E-06    0.22600754E-04
    5   -0.19434829E+03   -0.40662940E-08    0.24215326E-05
    6   -0.19434829E+03   -0.30894398E-09    0.63787433E-06
    7   -0.19434829E+03   -0.42916781E-11    0.23597963E-06
    8   -0.19434829E+03   -0.56843419E-13    0.49529378E-07
    9   -0.19434829E+03   -0.14210855E-12    0.10908650E-07
   10   -0.19434829E+03    0.85265128E-13    0.20134641E-08

Total Energy:                     -192.3786453357 H        -5234.8893 eV
Extrapolated to 0K:               -192.3786453357 H        -5234.8893 eV
Total Mermin free energy:         -192.3786453357 H        -5234.8893 eV
Force related energy:             -192.3786453357 H        -5234.8893 eV

Volume:                              0.100326E+05 au^3   0.148668E+04 A^3
Pressure:                            0.197997E-05 au     0.582526E+08 Pa
>> Charges saved for restart in charges.bin

total energy  -1.9237865E+02 H       energy change -8.8713272E-05 H
gradient norm  7.2658057E-03 H/a0    max. gradient  1.9452753E-03 H/a0
step length    7.3746128E-02 a0      max. step      1.5326948E-02 a0

--------------------------------------------------------------------------------

***  Geometry step: 44

 iSCC Total electronic   Diff electronic      SCC error    
    1   -0.19434829E+03    0.00000000E+00    0.12441979E-02
    2   -0.19434732E+03    0.97646864E-03    0.60997210E-03
    3   -0.19434732E+03   -0.12629301E-05    0.21816588E-03
    4   -0.19434732E+03   -0.25572510E-06    0.23558094E-04
    5   -0.19434732E+03   -0.45587569E-08    0.19547987E-05
    6   -0.19434732E+03   -0.35794301E-09    0.59780439E-06
    7   -0.19434732E+03   -0.34958703E-11    0.23136791E-06
    8   -0.19434732E+03   -0.28421709E-13    0.35427298E-07
    9   -0.19434732E+03    0.28421709E-13    0.59807910E-08

Total Energy:                     -192.3787377045 H        -5234.8918 eV
Extrapolated to 0K:               -192.3787377045 H        -5234.8918 eV
Total Mermin free energy:         -192.3787377045 H        -5234.8918 eV
Force related energy:             -192.3787377045 H        -5234.8918 eV

Volume:                              0.100398E+05 au^3   0.148774E+04 A^3
Pressure:                            0.111765E-05 au     0.328825E+08 Pa
>> Charges saved for restart in charges.bin

total energy  -1.9237874E+02 H       energy change -9.2368839E-05 H
gradient norm  7.1779685E-03 H/a0    max. gradient  1.5639970E-03 H/a0
step length    8.3357764E-02 a0      max. step      1.7200429E-02 a0

--------------------------------------------------------------------------------

***  Geometry step: 45

 iSCC Total electronic   Diff electronic      SCC error    
    1   -0.19434732E+03    0.00000000E+00    0.13693113E-02
    2   -0.19434590E+03    0.14159038E-02    0.59024089E-03
    3   -0.19434590E+03   -0.12801078E-05    0.17867879E-03
    4   -0.19434590E+03   -0.26907992E-06    0.24247565E-04
    5   -0.19434590E+03   -0.35449830E-08    0.16761560E-05
    6   -0.19434590E+03   -0.34305003E-09    0.60242902E-06
    7   -0.19434590E+03   -0.31832315E-11    0.24641495E-06
    8   -0.19434590E+03   -0.85265128E-13    0.24101696E-07
    9   -0.19434590E+03   -0.28421709E-13    0.52322542E-08

Total Energy:                     -192.3788205198 H        -5234.8941 eV
Extrapolated to 0K:               -192.3788205198 H        -5234.8941 eV
Total Mermin free energy:         -192.3788205198 H        -5234.8941 eV
Force related energy:             -192.3788205198 H        -5234.8941 eV

Volume:                              0.100462E+05 au^3   0.148869E+04 A^3
Pressure:                            0.246802E-06 au     0.726118E+07 Pa
>> Charges saved for restart in charges.bin

total energy  -1.9237882E+02 H       energy change -8.2815304E-05 H
gradient norm  6.8339528E-03 H/a0    max. gradient  1.4798548E-03 H/a0
step length    7.4652669E-02 a0      max. step      1.6420253E-02 a0

--------------------------------------------------------------------------------

***  Geometry step: 46

 iSCC Total electronic   Diff electronic      SCC error    
    1   -0.19434590E+03    0.00000000E+00    0.11206836E-02
    2   -0.19434464E+03    0.12637754E-02    0.48512958E-03
    3   -0.19434464E+03   -0.13265631E-05    0.14960529E-03
    4   -0.19434464E+03   -0.28870360E-06    0.17648492E-04
    5   -0.19434464E+03   -0.33596166E-08    0.28110102E-05
    6   -0.19434464E+03   -0.30257752E-09    0.71001186E-06
    7   -0.19434464E+03   -0.57696070E-11    0.26214263E-06
    8   -0.19434464E+03   -0.14210855E-12    0.38271760E-07
    9   -0.19434464E+03    0.85265128E-13    0.61219012E-08

Total Energy:                     -192.3788988165 H        -5234.8962 eV
Extrapolated to 0K:               -192.3788988165 H        -5234.8962 eV
Total Mermin free energy:         -192.3788988165 H        -5234.8962 eV
Force related energy:             -192.3788988165 H        -5234.8962 eV

Volume:                              0.100515E+05 au^3   0.148948E+04 A^3
Pressure:                           -0.676685E-06 au    -0.199087E+08 Pa
>> Charges saved for restart in charges.bin

total energy  -1.9237890E+02 H       energy change -7.8296666E-05 H
gradient norm  6.6248833E-03 H/a0    max. gradient  1.5603862E-03 H/a0
step length    7.0570132E-02 a0      max. step      1.6658312E-02 a0

--------------------------------------------------------------------------------

***  Geometry step: 47

 iSCC Total electronic   Diff electronic      SCC error    
    1   -0.19434464E+03    0.00000000E+00    0.88037041E-03
    2   -0.19434485E+03   -0.20957296E-03    0.38401925E-03
    3   -0.19434485E+03   -0.10975928E-05    0.12616246E-03
    4   -0.19434485E+03   -0.26160927E-06    0.14950602E-04
    5   -0.19434485E+03   -0.30470346E-08    0.24272322E-05
    6   -0.19434485E+03   -0.24743940E-09    0.58396892E-06
    7   -0.19434485E+03   -0.56274985E-11    0.19894821E-06
    8   -0.19434485E+03   -0.14210855E-12    0.43284914E-07
    9   -0.19434485E+03   -0.28421709E-13    0.95668824E-08

Total Energy:                     -192.3789681651 H        -5234.8981 eV
Extrapolated to 0K:               -192.3789681651 H        -5234.8981 eV
Total Mermin free energy:         -192.3789681651 H        -5234.8981 eV
Force related energy:             -192.3789681651 H        -5234.8981 eV

Volume:                              0.100542E+05 au^3   0.148988E+04 A^3
Pressure:                           -0.106340E-05 au    -0.312864E+08 Pa
>> Charges saved for restart in charges.bin

total energy  -1.9237897E+02 H       energy change -6.9348609E-05 H
gradient norm  6.3067655E-03 H/a0    max. gradient  1.5574550E-03 H/a0
step length    5.6569208E-02 a0      max. step      1.4153275E-02 a0

--------------------------------------------------------------------------------

***  Geometry step: 48

 iSCC Total electronic   Diff electronic      SCC error    
    1   -0.19434485E+03    0.00000000E+00    0.10236788E-02
    2   -0.19434659E+03   -0.17379032E-02    0.50097330E-03
    3   -0.19434659E+03   -0.12374073E-05    0.12495805E-03
    4   -0.19434659E+03   -0.29858415E-06    0.13765372E-04
    5   -0.19434659E+03   -0.39873100E-08    0.47400098E-05
    6   -0.19434659E+03   -0.27301894E-09    0.70599367E-06
    7   -0.19434659E+03   -0.49737992E-11    0.20906123E-06
    8   -0.19434659E+03   -0.56843419E-13    0.43918509E-07
    9   -0.19434659E+03   -0.11368684E-12    0.92577843E-08

Total Energy:                     -192.3790381858 H        -5234.9000 eV
Extrapolated to 0K:               -192.3790381858 H        -5234.9000 eV
Total Mermin free energy:         -192.3790381858 H        -5234.9000 eV
Force related energy:             -192.3790381858 H        -5234.9000 eV

Volume:                              0.100553E+05 au^3   0.149004E+04 A^3
Pressure:                           -0.798470E-06 au    -0.234918E+08 Pa
>> Charges saved for restart in charges.bin

total energy  -1.9237904E+02 H       energy change -7.0020712E-05 H
gradient norm  6.2901332E-03 H/a0    max. gradient  1.3045703E-03 H/a0
step length    5.9217533E-02 a0      max. step      1.4966310E-02 a0

--------------------------------------------------------------------------------

***  Geometry step: 49

 iSCC Total electronic   Diff electronic      SCC error    
    1   -0.19434659E+03    0.00000000E+00    0.10388444E-02
    2   -0.19434872E+03   -0.21266111E-02    0.60350777E-03
    3   -0.19434872E+03   -0.94210074E-06    0.13598365E-03
    4   -0.19434872E+03   -0.20713142E-06    0.14074135E-04
    5   -0.19434872E+03   -0.37454697E-08    0.61340535E-05
    6   -0.19434872E+03   -0.18627588E-09    0.69268057E-06
    7   -0.19434872E+03   -0.31832315E-11    0.17847774E-06
    8   -0.19434872E+03   -0.14210855E-12    0.56246342E-07
    9   -0.19434872E+03    0.85265128E-13    0.95611088E-08

Total Energy:                     -192.3791017085 H        -5234.9017 eV
Extrapolated to 0K:               -192.3791017085 H        -5234.9017 eV
Total Mermin free energy:         -192.3791017085 H        -5234.9017 eV
Force related energy:             -192.3791017085 H        -5234.9017 eV

Volume:                              0.100556E+05 au^3   0.149009E+04 A^3
Pressure:                           -0.256129E-06 au    -0.753556E+07 Pa
>> Charges saved for restart in charges.bin

total energy  -1.9237910E+02 H       energy change -6.3522748E-05 H
gradient norm  6.4733880E-03 H/a0    max. gradient  1.4845286E-03 H/a0
step length    5.4798833E-02 a0      max. step      1.3593282E-02 a0

--------------------------------------------------------------------------------

***  Geometry step: 50

 iSCC Total electronic   Diff electronic      SCC error    
    1   -0.19434872E+03    0.00000000E+00    0.13183684E-02
    2   -0.19435060E+03   -0.18798603E-02    0.57824841E-03
    3   -0.19435060E+03   -0.11583066E-05    0.15807171E-03
    4   -0.19435060E+03   -0.24065636E-06    0.15221347E-04
    5   -0.19435060E+03   -0.43753801E-08    0.57085174E-05
    6   -0.19435060E+03   -0.19016966E-09    0.78573826E-06
    7   -0.19435060E+03   -0.30695446E-11    0.19899919E-06
    8   -0.19435060E+03   -0.85265128E-13    0.48627401E-07
    9   -0.19435060E+03    0.00000000E+00    0.11410192E-07
   10   -0.19435060E+03    0.56843419E-13    0.13147181E-08

Total Energy:                     -192.3791705092 H        -5234.9036 eV
Extrapolated to 0K:               -192.3791705092 H        -5234.9036 eV
Total Mermin free energy:         -192.3791705092 H        -5234.9036 eV
Force related energy:             -192.3791705092 H        -5234.9036 eV

Volume:                              0.100561E+05 au^3   0.149017E+04 A^3
Pressure:                            0.239394E-06 au     0.704322E+07 Pa
>> Charges saved for restart in charges.bin

total energy  -1.9237917E+02 H       energy change -6.8800649E-05 H
gradient norm  6.6662409E-03 H/a0    max. gradient  1.6172043E-03 H/a0
step length    6.1481194E-02 a0      max. step      1.4962866E-02 a0

--------------------------------------------------------------------------------

***  Geometry step: 51

 iSCC Total electronic   Diff electronic      SCC error    
    1   -0.19435060E+03    0.00000000E+00    0.13498256E-02
    2   -0.19435166E+03   -0.10605210E-02    0.58412698E-03
    3   -0.19435166E+03   -0.16442342E-05    0.21334074E-03
    4   -0.19435166E+03   -0.35784842E-06    0.23081491E-04
    5   -0.19435166E+03   -0.51998370E-08    0.36958898E-05
    6   -0.19435166E+03   -0.33742253E-09    0.86013776E-06
    7   -0.19435166E+03   -0.52580162E-11    0.25195717E-06
    8   -0.19435166E+03   -0.28421709E-13    0.39010695E-07
    9   -0.19435166E+03   -0.28421709E-13    0.91129375E-08

Total Energy:                     -192.3792421663 H        -5234.9055 eV
Extrapolated to 0K:               -192.3792421663 H        -5234.9055 eV
Total Mermin free energy:         -192.3792421663 H        -5234.9055 eV
Force related energy:             -192.3792421663 H        -5234.9055 eV

Volume:                              0.100570E+05 au^3   0.149030E+04 A^3
Pressure:                            0.449970E-06 au     0.132386E+08 Pa
>> Charges saved for restart in charges.bin

total energy  -1.9237924E+02 H       energy change -7.1657076E-05 H
gradient norm  6.7058525E-03 H/a0    max. gradient  1.6392522E-03 H/a0
step length    6.6780937E-02 a0      max. step      1.6066951E-02 a0

--------------------------------------------------------------------------------

***  Geometry step: 52

 iSCC Total electronic   Diff electronic      SCC error    
    1   -0.19435166E+03    0.00000000E+00    0.12768693E-02
    2   -0.19435190E+03   -0.23808197E-03    0.73740191E-03
    3   -0.19435190E+03   -0.17442933E-05    0.21904429E-03
    4   -0.19435190E+03   -0.38069120E-06    0.30369718E-04
    5   -0.19435190E+03   -0.58957994E-08    0.63718207E-05
    6   -0.19435190E+03   -0.47643312E-09    0.12338836E-05
    7   -0.19435190E+03   -0.72475359E-11    0.32508236E-06
    8   -0.19435190E+03   -0.14210855E-12    0.42405729E-07
    9   -0.19435190E+03    0.28421709E-13    0.10240031E-07
   10   -0.19435190E+03   -0.85265128E-13    0.87911323E-09

Total Energy:                     -192.3793120906 H        -5234.9074 eV
[...]
Pressure:                           -0.236943E-07 au    -0.697110E+06 Pa
>> Charges saved for restart in charges.bin

total energy  -1.9238052E+02 H       energy change -2.0875978E-06 H
gradient norm  1.0895102E-03 H/a0    max. gradient  2.9882853E-04 H/a0
step length    1.1021772E-02 a0      max. step      2.5460265E-03 a0

--------------------------------------------------------------------------------

***  Geometry step: 156

 iSCC Total electronic   Diff electronic      SCC error    
    1   -0.19435627E+03    0.00000000E+00    0.20091582E-03
    2   -0.19435623E+03    0.35336062E-04    0.86210319E-04
    3   -0.19435623E+03   -0.35504200E-07    0.25770953E-04
    4   -0.19435623E+03   -0.82068254E-08    0.25995648E-05
    5   -0.19435623E+03   -0.10803092E-09    0.77554327E-06
    6   -0.19435623E+03   -0.75885964E-11    0.10105083E-06
    7   -0.19435623E+03   -0.11368684E-12    0.17434297E-07
    8   -0.19435623E+03    0.00000000E+00    0.61909380E-08

Total Energy:                     -192.3805252680 H        -5234.9404 eV
Extrapolated to 0K:               -192.3805252680 H        -5234.9404 eV
Total Mermin free energy:         -192.3805252680 H        -5234.9404 eV
Force related energy:             -192.3805252680 H        -5234.9404 eV

Volume:                              0.100469E+05 au^3   0.148879E+04 A^3
Pressure:                           -0.242733E-07 au    -0.714144E+06 Pa
>> Charges saved for restart in charges.bin

total energy  -1.9238053E+02 H       energy change -2.0938358E-06 H
gradient norm  1.0795728E-03 H/a0    max. gradient  2.5970848E-04 H/a0
step length    7.4376302E-03 a0      max. step      1.5156876E-03 a0

--------------------------------------------------------------------------------

***  Geometry step: 157

 iSCC Total electronic   Diff electronic      SCC error    
    1   -0.19435623E+03    0.00000000E+00    0.20911492E-03
    2   -0.19435626E+03   -0.34126408E-04    0.10784354E-03
    3   -0.19435626E+03   -0.39914681E-07    0.30143945E-04
    4   -0.19435626E+03   -0.94638608E-08    0.27515026E-05
    5   -0.19435626E+03   -0.12920509E-09    0.11498943E-05
    6   -0.19435626E+03   -0.88391516E-11    0.13973879E-06
    7   -0.19435626E+03   -0.25579538E-12    0.18366535E-07
    8   -0.19435626E+03    0.28421709E-13    0.81116953E-08

Total Energy:                     -192.3805272041 H        -5234.9405 eV
Extrapolated to 0K:               -192.3805272041 H        -5234.9405 eV
Total Mermin free energy:         -192.3805272041 H        -5234.9405 eV
Force related energy:             -192.3805272041 H        -5234.9405 eV

Volume:                              0.100466E+05 au^3   0.148875E+04 A^3
Pressure:                           -0.179104E-08 au    -0.526943E+05 Pa
>> Charges saved for restart in charges.bin

total energy  -1.9238053E+02 H       energy change -1.9361190E-06 H
gradient norm  1.0317559E-03 H/a0    max. gradient  2.3959011E-04 H/a0
step length    7.9179006E-03 a0      max. step      1.5974753E-03 a0

--------------------------------------------------------------------------------

***  Geometry step: 158

 iSCC Total electronic   Diff electronic      SCC error    
    1   -0.19435626E+03    0.00000000E+00    0.19425935E-03
    2   -0.19435631E+03   -0.49544803E-04    0.82251087E-04
    3   -0.19435631E+03   -0.29295450E-07    0.22839227E-04
    4   -0.19435631E+03   -0.66357018E-08    0.31046287E-05
    5   -0.19435631E+03   -0.99817044E-10    0.88681953E-06
    6   -0.19435631E+03   -0.77875484E-11    0.13294639E-06
    7   -0.19435631E+03   -0.19895197E-12    0.17926499E-07
    8   -0.19435631E+03    0.28421709E-13    0.63199943E-08

Total Energy:                     -192.3805287768 H        -5234.9405 eV
Extrapolated to 0K:               -192.3805287768 H        -5234.9405 eV
Total Mermin free energy:         -192.3805287768 H        -5234.9405 eV
Force related energy:             -192.3805287768 H        -5234.9405 eV

Volume:                              0.100462E+05 au^3   0.148870E+04 A^3
Pressure:                            0.711741E-08 au     0.209401E+06 Pa
>> Charges saved for restart in charges.bin

total energy  -1.9238053E+02 H       energy change -1.5726998E-06 H
gradient norm  9.4761180E-04 H/a0    max. gradient  1.8627064E-04 H/a0
step length    7.7347490E-03 a0      max. step      1.6035034E-03 a0

--------------------------------------------------------------------------------

***  Geometry step: 159

 iSCC Total electronic   Diff electronic      SCC error    
    1   -0.19435631E+03    0.00000000E+00    0.20419871E-03
    2   -0.19435632E+03   -0.51522421E-05    0.88919489E-04
    3   -0.19435632E+03   -0.41755925E-07    0.27925214E-04
    4   -0.19435632E+03   -0.90422247E-08    0.35612911E-05
    5   -0.19435632E+03   -0.12599344E-09    0.77783752E-06
    6   -0.19435632E+03   -0.11112888E-10    0.14153342E-06
    7   -0.19435632E+03   -0.17053026E-12    0.22261284E-07
    8   -0.19435632E+03   -0.85265128E-13    0.83978304E-08

Total Energy:                     -192.3805304070 H        -5234.9406 eV
Extrapolated to 0K:               -192.3805304070 H        -5234.9406 eV
Total Mermin free energy:         -192.3805304070 H        -5234.9406 eV
Force related energy:             -192.3805304070 H        -5234.9406 eV

Volume:                              0.100460E+05 au^3   0.148866E+04 A^3
Pressure:                            0.242236E-07 au     0.712682E+06 Pa
>> Charges saved for restart in charges.bin

total energy  -1.9238053E+02 H       energy change -1.6302363E-06 H
gradient norm  9.4763069E-04 H/a0    max. gradient  2.0752314E-04 H/a0
step length    9.1694632E-03 a0      max. step      1.9525229E-03 a0

--------------------------------------------------------------------------------

***  Geometry step: 160

 iSCC Total electronic   Diff electronic      SCC error    
    1   -0.19435632E+03    0.00000000E+00    0.19320106E-03
    2   -0.19435620E+03    0.11539152E-03    0.84515888E-04
    3   -0.19435620E+03   -0.38683396E-07    0.28933401E-04
    4   -0.19435620E+03   -0.79852214E-08    0.34011125E-05
    5   -0.19435620E+03   -0.11678480E-09    0.57547896E-06
    6   -0.19435620E+03   -0.11056045E-10    0.84690063E-07
    7   -0.19435620E+03   -0.28421709E-13    0.14464271E-07
    8   -0.19435620E+03   -0.14210855E-12    0.56935652E-08

Total Energy:                     -192.3805320764 H        -5234.9406 eV
Extrapolated to 0K:               -192.3805320764 H        -5234.9406 eV
Total Mermin free energy:         -192.3805320764 H        -5234.9406 eV
Force related energy:             -192.3805320764 H        -5234.9406 eV

Volume:                              0.100460E+05 au^3   0.148866E+04 A^3
Pressure:                           -0.243528E-07 au    -0.716483E+06 Pa
>> Charges saved for restart in charges.bin

total energy  -1.9238053E+02 H       energy change -1.6694302E-06 H
gradient norm  9.7700215E-04 H/a0    max. gradient  2.4619633E-04 H/a0
step length    1.0297298E-02 a0      max. step      2.2765846E-03 a0

--------------------------------------------------------------------------------

***  Geometry step: 161

 iSCC Total electronic   Diff electronic      SCC error    
    1   -0.19435620E+03    0.00000000E+00    0.20306586E-03
    2   -0.19435602E+03    0.18242373E-03    0.10463033E-03
    3   -0.19435602E+03   -0.49370499E-07    0.33374908E-04
    4   -0.19435602E+03   -0.10022262E-07    0.39118736E-05
    5   -0.19435602E+03   -0.15975843E-09    0.58956397E-06
    6   -0.19435602E+03   -0.14324542E-10    0.94509597E-07
    7   -0.19435602E+03   -0.19895197E-12    0.15854312E-07
    8   -0.19435602E+03    0.85265128E-13    0.57022462E-08

Total Energy:                     -192.3805339712 H        -5234.9407 eV
Extrapolated to 0K:               -192.3805339712 H        -5234.9407 eV
Total Mermin free energy:         -192.3805339712 H        -5234.9407 eV
Force related energy:             -192.3805339712 H        -5234.9407 eV

Volume:                              0.100462E+05 au^3   0.148869E+04 A^3
Pressure:                           -0.107128E-06 au    -0.315181E+07 Pa
>> Charges saved for restart in charges.bin

total energy  -1.9238053E+02 H       energy change -1.8947768E-06 H
gradient norm  9.6728771E-04 H/a0    max. gradient  2.1665292E-04 H/a0
step length    1.1744419E-02 a0      max. step      2.4780492E-03 a0

--------------------------------------------------------------------------------

***  Geometry step: 162

 iSCC Total electronic   Diff electronic      SCC error    
    1   -0.19435602E+03    0.00000000E+00    0.18561379E-03
    2   -0.19435595E+03    0.71577318E-04    0.81152616E-04
    3   -0.19435595E+03   -0.37739483E-07    0.27514640E-04
    4   -0.19435595E+03   -0.80817131E-08    0.39442109E-05
    5   -0.19435595E+03   -0.12070700E-09    0.86398741E-06
    6   -0.19435595E+03   -0.10771828E-10    0.10289035E-06
    7   -0.19435595E+03   -0.25579538E-12    0.14204738E-07
    8   -0.19435595E+03    0.28421709E-13    0.51207447E-08

Total Energy:                     -192.3805355688 H        -5234.9407 eV
Extrapolated to 0K:               -192.3805355688 H        -5234.9407 eV
Total Mermin free energy:         -192.3805355688 H        -5234.9407 eV
Force related energy:             -192.3805355688 H        -5234.9407 eV

Volume:                              0.100462E+05 au^3   0.148870E+04 A^3
Pressure:                           -0.152655E-06 au    -0.449125E+07 Pa
>> Charges saved for restart in charges.bin

total energy  -1.9238054E+02 H       energy change -1.5976171E-06 H
gradient norm  8.8262385E-04 H/a0    max. gradient  1.7406887E-04 H/a0
step length    9.8548156E-03 a0      max. step      2.2683838E-03 a0

--------------------------------------------------------------------------------

***  Geometry step: 163

 iSCC Total electronic   Diff electronic      SCC error    
    1   -0.19435595E+03    0.00000000E+00    0.16196122E-03
    2   -0.19435608E+03   -0.12667402E-03    0.68456316E-04
    3   -0.19435608E+03   -0.26005750E-07    0.20482631E-04
    4   -0.19435608E+03   -0.59673653E-08    0.31880077E-05
    5   -0.19435608E+03   -0.70315309E-10    0.65610175E-06
    6   -0.19435608E+03   -0.60822458E-11    0.11230428E-06
    7   -0.19435608E+03   -0.85265128E-13    0.13571086E-07
    8   -0.19435608E+03    0.00000000E+00    0.47480451E-08

Total Energy:                     -192.3805368306 H        -5234.9408 eV
Extrapolated to 0K:               -192.3805368306 H        -5234.9408 eV
Total Mermin free energy:         -192.3805368306 H        -5234.9408 eV
Force related energy:             -192.3805368306 H        -5234.9408 eV

Volume:                              0.100462E+05 au^3   0.148869E+04 A^3
Pressure:                           -0.123018E-06 au    -0.361930E+07 Pa
>> Charges saved for restart in charges.bin

total energy  -1.9238054E+02 H       energy change -1.2617584E-06 H
gradient norm  8.1097970E-04 H/a0    max. gradient  1.7216820E-04 H/a0
step length    4.2512647E-03 a0      max. step      7.7693832E-04 a0

--------------------------------------------------------------------------------

***  Geometry step: 164

 iSCC Total electronic   Diff electronic      SCC error    
    1   -0.19435608E+03    0.00000000E+00    0.16243173E-03
    2   -0.19435621E+03   -0.13630201E-03    0.71031370E-04
    3   -0.19435621E+03   -0.23846923E-07    0.22948047E-04
    4   -0.19435621E+03   -0.54976113E-08    0.23111977E-05
    5   -0.19435621E+03   -0.73669071E-10    0.66379230E-06
    6   -0.19435621E+03   -0.55138116E-11    0.13470075E-06
    7   -0.19435621E+03   -0.56843419E-13    0.12622576E-07
    8   -0.19435621E+03    0.28421709E-13    0.39470387E-08

Total Energy:                     -192.3805381040 H        -5234.9408 eV
Extrapolated to 0K:               -192.3805381040 H        -5234.9408 eV
Total Mermin free energy:         -192.3805381040 H        -5234.9408 eV
Force related energy:             -192.3805381040 H        -5234.9408 eV

Volume:                              0.100460E+05 au^3   0.148867E+04 A^3
Pressure:                           -0.443777E-07 au    -0.130564E+07 Pa
>> Charges saved for restart in charges.bin

total energy  -1.9238054E+02 H       energy change -1.2733809E-06 H
gradient norm  8.9933884E-04 H/a0    max. gradient  2.5874330E-04 H/a0
step length    5.0323008E-03 a0      max. step      1.0893722E-03 a0

--------------------------------------------------------------------------------

***  Geometry step: 165

 iSCC Total electronic   Diff electronic      SCC error    
    1   -0.19435621E+03    0.00000000E+00    0.14578836E-03
    2   -0.19435628E+03   -0.69657601E-04    0.81335318E-04
    3   -0.19435628E+03   -0.18565544E-07    0.22044796E-04
    4   -0.19435628E+03   -0.42488182E-08    0.21606712E-05
    5   -0.19435628E+03   -0.82167162E-10    0.69582209E-06
    6   -0.19435628E+03   -0.46611603E-11    0.12746570E-06
    7   -0.19435628E+03   -0.85265128E-13    0.15100163E-07
    8   -0.19435628E+03    0.28421709E-13    0.41715817E-08

Total Energy:                     -192.3805393812 H        -5234.9408 eV
Extrapolated to 0K:               -192.3805393812 H        -5234.9408 eV
Total Mermin free energy:         -192.3805393812 H        -5234.9408 eV
Force related energy:             -192.3805393812 H        -5234.9408 eV

Volume:                              0.100458E+05 au^3   0.148863E+04 A^3
Pressure:                           -0.345904E-07 au    -0.101768E+07 Pa
>> Charges saved for restart in charges.bin

total energy  -1.9238054E+02 H       energy change -1.2772111E-06 H
gradient norm  8.4806822E-04 H/a0    max. gradient  1.8830764E-04 H/a0
step length    6.4745577E-03 a0      max. step      1.6058624E-03 a0

--------------------------------------------------------------------------------

***  Geometry step: 166

 iSCC Total electronic   Diff electronic      SCC error    
    1   -0.19435628E+03    0.00000000E+00    0.19404286E-03
    2   -0.19435637E+03   -0.87751228E-04    0.10005901E-03
    3   -0.19435637E+03   -0.24128013E-07    0.31064494E-04
    4   -0.19435637E+03   -0.53080669E-08    0.21189161E-05
    5   -0.19435637E+03   -0.13778845E-09    0.73931698E-06
    6   -0.19435637E+03   -0.64517280E-11    0.94763069E-07
    7   -0.19435637E+03   -0.56843419E-13    0.18656424E-07
    8   -0.19435637E+03   -0.85265128E-13    0.57047682E-08

Total Energy:                     -192.3805408952 H        -5234.9409 eV
Extrapolated to 0K:               -192.3805408952 H        -5234.9409 eV
Total Mermin free energy:         -192.3805408952 H        -5234.9409 eV
Force related energy:             -192.3805408952 H        -5234.9409 eV

Volume:                              0.100452E+05 au^3   0.148854E+04 A^3
Pressure:                            0.273064E-07 au     0.803381E+06 Pa
>> Charges saved for restart in charges.bin

total energy  -1.9238054E+02 H       energy change -1.5140207E-06 H
gradient norm  8.7373893E-04 H/a0    max. gradient  2.2479330E-04 H/a0
step length    1.2869747E-02 a0      max. step      2.8640485E-03 a0

--------------------------------------------------------------------------------

***  Geometry step: 167

 iSCC Total electronic   Diff electronic      SCC error    
    1   -0.19435637E+03    0.00000000E+00    0.16246306E-03
    2   -0.19435632E+03    0.54429047E-04    0.83459742E-04
    3   -0.19435632E+03   -0.26587145E-07    0.25736293E-04
    4   -0.19435632E+03   -0.57034129E-08    0.34693224E-05
    5   -0.19435632E+03   -0.88533625E-10    0.28986485E-06
    6   -0.19435632E+03   -0.73612227E-11    0.71125823E-07
    7   -0.19435632E+03   -0.22737368E-12    0.15090232E-07
    8   -0.19435632E+03    0.85265128E-13    0.35778047E-08

Total Energy:                     -192.3805420645 H        -5234.9409 eV
Extrapolated to 0K:               -192.3805420645 H        -5234.9409 eV
Total Mermin free energy:         -192.3805420645 H        -5234.9409 eV
Force related energy:             -192.3805420645 H        -5234.9409 eV

Volume:                              0.100448E+05 au^3   0.148848E+04 A^3
Pressure:                            0.271226E-07 au     0.797974E+06 Pa
>> Charges saved for restart in charges.bin

total energy  -1.9238054E+02 H       energy change -1.1693188E-06 H
gradient norm  7.0327622E-04 H/a0    max. gradient  1.3436109E-04 H/a0
step length    1.3706229E-02 a0      max. step      2.7998747E-03 a0

--------------------------------------------------------------------------------

***  Geometry step: 168

 iSCC Total electronic   Diff electronic      SCC error    
    1   -0.19435632E+03    0.00000000E+00    0.11665039E-03
    2   -0.19435617E+03    0.14667134E-03    0.62311550E-04
    3   -0.19435617E+03   -0.14445135E-07    0.22785705E-04
    4   -0.19435617E+03   -0.31606362E-08    0.21873698E-05
    5   -0.19435617E+03   -0.49141136E-10    0.40997846E-06
    6   -0.19435617E+03   -0.44053650E-11    0.90245176E-07
    7   -0.19435617E+03   -0.11368684E-12    0.10845383E-07
    8   -0.19435617E+03    0.85265128E-13    0.29061336E-08

Total Energy:                     -192.3805427518 H        -5234.9409 eV
Extrapolated to 0K:               -192.3805427518 H        -5234.9409 eV
Total Mermin free energy:         -192.3805427518 H        -5234.9409 eV
Force related energy:             -192.3805427518 H        -5234.9409 eV

Volume:                              0.100448E+05 au^3   0.148848E+04 A^3
Pressure:                           -0.274517E-07 au    -0.807656E+06 Pa
>> Charges saved for restart in charges.bin

total energy  -1.9238054E+02 H       energy change -6.8724768E-07 H
gradient norm  5.9900451E-04 H/a0    max. gradient  1.1359631E-04 H/a0
step length    2.0894185E-03 a0      max. step      4.6876314E-04 a0

--------------------------------------------------------------------------------

***  Geometry step: 169

 iSCC Total electronic   Diff electronic      SCC error    
    1   -0.19435617E+03    0.00000000E+00    0.15732931E-03
    2   -0.19435596E+03    0.20848327E-03    0.99201794E-04
    3   -0.19435596E+03   -0.24290387E-07    0.33467944E-04
    4   -0.19435596E+03   -0.52491771E-08    0.24237266E-05
    5   -0.19435596E+03   -0.72532202E-10    0.40400888E-06
    6   -0.19435596E+03   -0.65085715E-11    0.96717435E-07
    7   -0.19435596E+03    0.00000000E+00    0.13538264E-07
    8   -0.19435596E+03   -0.28421709E-13    0.38240100E-08

Total Energy:                     -192.3805435570 H        -5234.9409 eV
Extrapolated to 0K:               -192.3805435570 H        -5234.9409 eV
Total Mermin free energy:         -192.3805435570 H        -5234.9409 eV
Force related energy:             -192.3805435570 H        -5234.9409 eV

Volume:                              0.100448E+05 au^3   0.148849E+04 A^3
Pressure:                           -0.997724E-07 au    -0.293540E+07 Pa
>> Charges saved for restart in charges.bin

total energy  -1.9238054E+02 H       energy change -8.0523586E-07 H
gradient norm  5.8416453E-04 H/a0    max. gradient  9.7291253E-05 H/a0
step length    3.2697420E-03 a0      max. step      6.9364860E-04 a0

Geometry converged

--------------------------------------------------------------------------------
DFTB+ running times                          cpu [s]             wall clock [s]
--------------------------------------------------------------------------------
Pre-SCC initialisation                 +       5.92 (  0.2%)       2.74 (  0.8%)
SCC                                    +    2232.78 ( 92.2%)     290.64 ( 90.0%)
Post-SCC processing                    +     183.90 (  7.6%)      29.61 (  9.2%)
--------------------------------------------------------------------------------
Missing                                +       0.37 (  0.0%)       0.01 (  0.0%)
Total                                  =    2422.98 (100.0%)     322.99 (100.0%)
--------------------------------------------------------------------------------
