|===============================================================================
|
|  DFTB+ release 24.1
|
|  Copyright (C) 2006 - 2024  DFTB+ developers group
|
|===============================================================================
|
|  When publishing results obtained with DFTB+, please cite the following
|  reference:
|
|  * DFTB+, a software package for efficient approximate density functional
|    theory based atomistic simulations, J. Chem. Phys. 152, 124101 (2020).
|    [doi: 10.1063/1.5143190]
|
|  You should also cite additional publications crediting the parametrization
|  data you use. Please consult the documentation of the SK-files for the
|  references.
|
|===============================================================================

Reading input file 'dftb_in.hsd'
Parser version: 14

--------------------------------------------------------------------------------
Reading SK-files:
./SKFiles/Ge-Ge.skf
./SKFiles/Ge-Si.skf
./SKFiles/Ge-O.skf
./SKFiles/Si-Si.skf
./SKFiles/Si-O.skf
./SKFiles/O-O.skf
Done.


Processed input in HSD format written to 'dftb_pin.hsd'

Starting initialization...
--------------------------------------------------------------------------------
WARNING!
-> Dipole printed for extended system : value printed is not well defined
MPI processes:               1
OpenMP threads:              8
BLACS orbital grid size:     1 x 1
BLACS atom grid size:        1 x 1
Chosen random seed:          142630989
Current stacksize:           unlimited
Mode:                        Static calculation
Self consistent charges:     Yes
SCC-tolerance:                 0.100000E-07
Max. scc iterations:                    500
Shell resolved Hubbard:      No
Spin polarisation:           No
Nr. of up electrons:           192.000000
Nr. of down electrons:         192.000000
Periodic boundaries:         Yes
Electronic solver:           Relatively robust
Mixer:                       Broyden mixer
Mixing parameter:                  0.200000
Maximal SCC-cycles:                     500
Nr. of chrg. vec. in memory:            500
Electronic temperature:              0.100000E-07 H      0.272114E-06 eV
Initial charges:             Set automatically (system chrg:   0.000E+00)
Included shells:            Ge:  s, p, d
                            Si:  s, p, d
                             O:  s, p
K-points and weights:           1:  0.500000  0.500000  0.500000     1.000000

K-points in absolute space:     1:  0.025319  0.017606  0.037774

Extra options:
                             Mulliken analysis
Force type                   original

--------------------------------------------------------------------------------

***  Geometry step: 0

 iSCC Total electronic   Diff electronic      SCC error    
    1    0.00000000E+00    0.00000000E+00    0.14597497E+01
    2   -0.19480276E+03   -0.19480276E+03    0.99399406E+00
    3   -0.19516911E+03   -0.36635019E+00    0.59487194E-01
    4   -0.19548495E+03   -0.31583519E+00    0.27956527E-01
    5   -0.19548695E+03   -0.20031507E-02    0.76530995E-02
    6   -0.19548709E+03   -0.14476302E-03    0.17128725E-02
    7   -0.19548710E+03   -0.38835932E-05    0.48502441E-03
    8   -0.19548710E+03   -0.11204324E-05    0.63000320E-04
    9   -0.19548710E+03   -0.64979019E-07    0.34476635E-04
   10   -0.19548710E+03   -0.61334049E-10    0.15155273E-05
   11   -0.19548710E+03   -0.21245228E-09    0.42244679E-06
   12   -0.19548710E+03   -0.26147973E-11    0.22088101E-06
   13   -0.19548710E+03    0.28421709E-13    0.18979560E-07
   14   -0.19548710E+03    0.00000000E+00    0.40510320E-08

Total Energy:                     -191.8772055082 H        -5221.2444 eV
Extrapolated to 0K:               -191.8772055082 H        -5221.2444 eV
Total Mermin free energy:         -191.8772055082 H        -5221.2444 eV
Force related energy:             -191.8772055082 H        -5221.2444 eV

Volume:                              0.913789E+04 au^3   0.135410E+04 A^3
Pressure:                            0.716002E-03 au     0.210655E+11 Pa
>> Charges saved for restart in charges.bin

total energy  -1.9187721E+02 H       energy change -1.9187721E+02 H
gradient norm  9.2469165E-01 H/a0    max. gradient  4.4218378E-01 H/a0
step length    0.0000000E+00 a0      max. step      0.0000000E+00 a0

--------------------------------------------------------------------------------

***  Geometry step: 1

 iSCC Total electronic   Diff electronic      SCC error    
    1   -0.19548710E+03    0.00000000E+00    0.89666701E-01
    2   -0.19510828E+03    0.37882335E+00    0.44839111E-01
    3   -0.19511549E+03   -0.72176382E-02    0.14317104E-01
    4   -0.19511710E+03   -0.16013067E-02    0.11056739E-02
    5   -0.19511711E+03   -0.19057510E-04    0.45755079E-03
    6   -0.19511712E+03   -0.72539694E-06    0.11730431E-03
    7   -0.19511712E+03   -0.43956192E-07    0.16363497E-04
    8   -0.19511712E+03   -0.44552166E-08    0.28774783E-05
    9   -0.19511712E+03   -0.24465407E-09    0.95245162E-06
   10   -0.19511712E+03   -0.28421709E-11    0.33150318E-06
   11   -0.19511712E+03   -0.17053026E-12    0.27349146E-07
   12   -0.19511712E+03    0.85265128E-13    0.89139633E-08

Total Energy:                     -192.0486388762 H        -5225.9094 eV
Extrapolated to 0K:               -192.0486388762 H        -5225.9094 eV
Total Mermin free energy:         -192.0486388762 H        -5225.9094 eV
Force related energy:             -192.0486388762 H        -5225.9094 eV

Volume:                              0.947674E+04 au^3   0.140431E+04 A^3
Pressure:                            0.452222E-03 au     0.133048E+11 Pa
>> Charges saved for restart in charges.bin

total energy  -1.9204864E+02 H       energy change -1.7143337E-01 H
gradient norm  5.9739054E-01 H/a0    max. gradient  1.4422750E-01 H/a0
step length    5.9610768E-01 a0      max. step      2.8505626E-01 a0

--------------------------------------------------------------------------------

***  Geometry step: 2

 iSCC Total electronic   Diff electronic      SCC error    
    1   -0.19511712E+03    0.00000000E+00    0.56559851E-01
    2   -0.19504407E+03    0.73042358E-01    0.33752603E-01
    3   -0.19504690E+03   -0.28284258E-02    0.99972856E-02
    4   -0.19504754E+03   -0.64316724E-03    0.98882706E-03
    5   -0.19504755E+03   -0.69418263E-05    0.22818213E-03
    6   -0.19504755E+03   -0.42542663E-06    0.13842475E-03
    7   -0.19504755E+03   -0.19018842E-07    0.16267257E-04
    8   -0.19504755E+03   -0.21528308E-08    0.19123237E-05
    9   -0.19504755E+03   -0.14560442E-09    0.82799329E-06
   10   -0.19504755E+03   -0.23874236E-11    0.27425244E-06
   11   -0.19504755E+03   -0.56843419E-13    0.23036223E-07
   12   -0.19504755E+03    0.56843419E-13    0.51039848E-08

Total Energy:                     -192.1871373556 H        -5229.6781 eV
Extrapolated to 0K:               -192.1871373556 H        -5229.6781 eV
Total Mermin free energy:         -192.1871373556 H        -5229.6781 eV
Force related energy:             -192.1871373556 H        -5229.6781 eV

Volume:                              0.947209E+04 au^3   0.140362E+04 A^3
Pressure:                            0.378577E-03 au     0.111381E+11 Pa
>> Charges saved for restart in charges.bin

total energy  -1.9218714E+02 H       energy change -1.3849848E-01 H
gradient norm  2.8526778E-01 H/a0    max. gradient  5.6174841E-02 H/a0
step length    3.8904120E-01 a0      max. step      9.7413371E-02 a0

--------------------------------------------------------------------------------

***  Geometry step: 3

 iSCC Total electronic   Diff electronic      SCC error    
    1   -0.19504755E+03    0.00000000E+00    0.53588929E-01
    2   -0.19486056E+03    0.18699123E+00    0.32648737E-01
    3   -0.19486259E+03   -0.20314482E-02    0.89171359E-02
    4   -0.19486309E+03   -0.49925806E-03    0.13281100E-02
    5   -0.19486310E+03   -0.79877518E-05    0.27273616E-03
    6   -0.19486310E+03   -0.59499945E-06    0.14375885E-03
    7   -0.19486310E+03   -0.19438318E-07    0.23541870E-04
    8   -0.19486310E+03   -0.23104860E-08    0.17418072E-05
    9   -0.19486310E+03   -0.96974873E-10    0.72870053E-06
   10   -0.19486310E+03   -0.32969183E-11    0.14847068E-06
   11   -0.19486310E+03   -0.11368684E-12    0.30143064E-07
   12   -0.19486310E+03    0.28421709E-13    0.48992086E-08

Total Energy:                     -192.2655596794 H        -5231.8121 eV
Extrapolated to 0K:               -192.2655596794 H        -5231.8121 eV
Total Mermin free energy:         -192.2655596794 H        -5231.8121 eV
Force related energy:             -192.2655596794 H        -5231.8121 eV

Volume:                              0.955077E+04 au^3   0.141528E+04 A^3
Pressure:                            0.278422E-03 au     0.819146E+10 Pa
>> Charges saved for restart in charges.bin

total energy  -1.9226556E+02 H       energy change -7.8422324E-02 H
gradient norm  1.9140803E-01 H/a0    max. gradient  9.1176829E-02 H/a0
step length    4.5535732E-01 a0      max. step      9.3330496E-02 a0

--------------------------------------------------------------------------------

***  Geometry step: 4

 iSCC Total electronic   Diff electronic      SCC error    
    1   -0.19486310E+03    0.00000000E+00    0.45364208E-01
    2   -0.19467338E+03    0.18972037E+00    0.25719902E-01
    3   -0.19467423E+03   -0.85330244E-03    0.47789537E-02
    4   -0.19467442E+03   -0.18968768E-03    0.73182575E-03
    5   -0.19467443E+03   -0.46436079E-05    0.24945660E-03
    6   -0.19467443E+03   -0.33247292E-06    0.12640515E-03
    7   -0.19467443E+03   -0.73056299E-08    0.86969740E-05
    8   -0.19467443E+03   -0.95599262E-09    0.18933370E-05
    9   -0.19467443E+03   -0.73129058E-10    0.44735081E-06
   10   -0.19467443E+03   -0.12221335E-11    0.11818908E-06
   11   -0.19467443E+03   -0.14210855E-12    0.19305819E-07
   12   -0.19467443E+03    0.28421709E-13    0.41915027E-08

Total Energy:                     -192.3022480381 H        -5232.8104 eV
Extrapolated to 0K:               -192.3022480381 H        -5232.8104 eV
Total Mermin free energy:         -192.3022480381 H        -5232.8104 eV
Force related energy:             -192.3022480381 H        -5232.8104 eV

Volume:                              0.963541E+04 au^3   0.142782E+04 A^3
Pressure:                            0.189786E-03 au     0.558370E+10 Pa
>> Charges saved for restart in charges.bin

total energy  -1.9230225E+02 H       energy change -3.6688359E-02 H
gradient norm  2.3746672E-01 H/a0    max. gradient  1.3482201E-01 H/a0
step length    4.1777673E-01 a0      max. step      1.1028524E-01 a0

--------------------------------------------------------------------------------

***  Geometry step: 5

 iSCC Total electronic   Diff electronic      SCC error    
    1   -0.19467443E+03    0.00000000E+00    0.29012052E-01
    2   -0.19444779E+03    0.22663402E+00    0.16169667E-01
    3   -0.19444864E+03   -0.84454753E-03    0.34225965E-02
    4   -0.19444882E+03   -0.18636206E-03    0.63623690E-03
    5   -0.19444883E+03   -0.36328076E-05    0.18510420E-03
    6   -0.19444883E+03   -0.29438658E-06    0.87869641E-04
    7   -0.19444883E+03   -0.59951617E-08    0.98431889E-05
    8   -0.19444883E+03   -0.60589400E-09    0.18442116E-05
    9   -0.19444883E+03   -0.58378191E-10    0.46325164E-06
   10   -0.19444883E+03   -0.15631940E-11    0.46875802E-07
   11   -0.19444883E+03   -0.85265128E-13    0.11335228E-07
   12   -0.19444883E+03    0.28421709E-13    0.47273940E-08

Total Energy:                     -192.3252718719 H        -5233.4369 eV
Extrapolated to 0K:               -192.3252718719 H        -5233.4369 eV
Total Mermin free energy:         -192.3252718719 H        -5233.4369 eV
Force related energy:             -192.3252718719 H        -5233.4369 eV

Volume:                              0.976545E+04 au^3   0.144709E+04 A^3
Pressure:                            0.887509E-04 au     0.261114E+10 Pa
>> Charges saved for restart in charges.bin

total energy  -1.9232527E+02 H       energy change -2.3023834E-02 H
gradient norm  1.5191401E-01 H/a0    max. gradient  8.2716740E-02 H/a0
step length    3.9904927E-01 a0      max. step      1.1060501E-01 a0

--------------------------------------------------------------------------------

***  Geometry step: 6

 iSCC Total electronic   Diff electronic      SCC error    
    1   -0.19444883E+03    0.00000000E+00    0.23134974E-01
    2   -0.19439201E+03    0.56819688E-01    0.99704887E-02
    3   -0.19439238E+03   -0.36736624E-03    0.17729392E-02
    4   -0.19439245E+03   -0.78472719E-04    0.51976296E-03
    5   -0.19439246E+03   -0.65283359E-06    0.52547887E-04
    6   -0.19439246E+03   -0.34270215E-07    0.28549886E-04
    7   -0.19439246E+03   -0.19987567E-08    0.76980105E-05
    8   -0.19439246E+03   -0.18658852E-09    0.73272174E-06
    9   -0.19439246E+03   -0.77022833E-11    0.13812745E-06
   10   -0.19439246E+03   -0.39790393E-12    0.36769798E-07
   11   -0.19439246E+03    0.28421709E-13    0.31042493E-08

Total Energy:                     -192.3359561238 H        -5233.7277 eV
Extrapolated to 0K:               -192.3359561238 H        -5233.7277 eV
Total Mermin free energy:         -192.3359561238 H        -5233.7277 eV
Force related energy:             -192.3359561238 H        -5233.7277 eV

Volume:                              0.979181E+04 au^3   0.145100E+04 A^3
Pressure:                            0.609626E-04 au     0.179358E+10 Pa
>> Charges saved for restart in charges.bin

total energy  -1.9233596E+02 H       energy change -1.0684252E-02 H
gradient norm  1.1121361E-01 H/a0    max. gradient  3.9501794E-02 H/a0
step length    1.8573320E-01 a0      max. step      4.7269686E-02 a0

--------------------------------------------------------------------------------

***  Geometry step: 7

 iSCC Total electronic   Diff electronic      SCC error    
    1   -0.19439246E+03    0.00000000E+00    0.17081268E-01
    2   -0.19437858E+03    0.13873367E-01    0.10313946E-01
    3   -0.19437894E+03   -0.35777034E-03    0.29943958E-02
    4   -0.19437902E+03   -0.78102504E-04    0.59561908E-03
    5   -0.19437902E+03   -0.13459589E-05    0.10177923E-03
    6   -0.19437902E+03   -0.11487711E-06    0.32891624E-04
    7   -0.19437902E+03   -0.26664679E-08    0.93509260E-05
    8   -0.19437902E+03   -0.16765966E-09    0.10282823E-05
    9   -0.19437902E+03   -0.14807711E-10    0.27961933E-06
   10   -0.19437902E+03   -0.56843419E-12    0.29577145E-07
   11   -0.19437902E+03    0.56843419E-13    0.85931644E-08

Total Energy:                     -192.3467543243 H        -5234.0215 eV
Extrapolated to 0K:               -192.3467543243 H        -5234.0215 eV
Total Mermin free energy:         -192.3467543243 H        -5234.0215 eV
Force related energy:             -192.3467543243 H        -5234.0215 eV

Volume:                              0.978525E+04 au^3   0.145002E+04 A^3
Pressure:                            0.518044E-04 au     0.152414E+10 Pa
>> Charges saved for restart in charges.bin

total energy  -1.9234675E+02 H       energy change -1.0798200E-02 H
gradient norm  8.2395445E-02 H/a0    max. gradient  3.5265908E-02 H/a0
step length    2.2320491E-01 a0      max. step      4.6925437E-02 a0

--------------------------------------------------------------------------------

***  Geometry step: 8

 iSCC Total electronic   Diff electronic      SCC error    
    1   -0.19437902E+03    0.00000000E+00    0.20898816E-01
    2   -0.19436860E+03    0.10422228E-01    0.12255522E-01
    3   -0.19436871E+03   -0.11604292E-03    0.23083055E-02
    4   -0.19436874E+03   -0.29834884E-04    0.24481956E-03
    5   -0.19436874E+03   -0.75222746E-06    0.84845296E-04
    6   -0.19436874E+03   -0.46744162E-07    0.18533957E-04
    7   -0.19436874E+03   -0.14840396E-08    0.49746550E-05
    8   -0.19436874E+03   -0.49396931E-10    0.56437978E-06
    9   -0.19436874E+03   -0.70770056E-11    0.13693825E-06
   10   -0.19436874E+03   -0.28421709E-12    0.15698483E-07
   11   -0.19436874E+03    0.85265128E-13    0.31036107E-08

Total Energy:                     -192.3532222730 H        -5234.1975 eV
Extrapolated to 0K:               -192.3532222730 H        -5234.1975 eV
Total Mermin free energy:         -192.3532222730 H        -5234.1975 eV
Force related energy:             -192.3532222730 H        -5234.1975 eV

Volume:                              0.978775E+04 au^3   0.145039E+04 A^3
Pressure:                            0.438912E-04 au     0.129132E+10 Pa
>> Charges saved for restart in charges.bin

total energy  -1.9235322E+02 H       energy change -6.4679487E-03 H
gradient norm  5.8163429E-02 H/a0    max. gradient  2.0088125E-02 H/a0
step length    1.8778107E-01 a0      max. step      3.9361584E-02 a0

--------------------------------------------------------------------------------

***  Geometry step: 9

 iSCC Total electronic   Diff electronic      SCC error    
    1   -0.19436874E+03    0.00000000E+00    0.16521754E-01
    2   -0.19436507E+03    0.36752982E-02    0.96496895E-02
    3   -0.19436515E+03   -0.81253086E-04    0.17147651E-02
    4   -0.19436517E+03   -0.21366068E-04    0.17371335E-03
    5   -0.19436517E+03   -0.62623832E-06    0.67639701E-04
    6   -0.19436517E+03   -0.36711327E-07    0.19434526E-04
    7   -0.19436517E+03   -0.10805081E-08    0.49213111E-05
    8   -0.19436517E+03   -0.52722271E-10    0.54924545E-06
    9   -0.19436517E+03   -0.37516656E-11    0.13026237E-06
   10   -0.19436517E+03   -0.31263880E-12    0.16874837E-07
   11   -0.19436517E+03   -0.28421709E-13    0.22763649E-08

Total Energy:                     -192.3574584501 H        -5234.3128 eV
Extrapolated to 0K:               -192.3574584501 H        -5234.3128 eV
Total Mermin free energy:         -192.3574584501 H        -5234.3128 eV
Force related energy:             -192.3574584501 H        -5234.3128 eV

Volume:                              0.978635E+04 au^3   0.145019E+04 A^3
Pressure:                            0.409292E-04 au     0.120418E+10 Pa
>> Charges saved for restart in charges.bin

total energy  -1.9235746E+02 H       energy change -4.2361771E-03 H
gradient norm  4.0491962E-02 H/a0    max. gradient  9.4602250E-03 H/a0
step length    1.9103933E-01 a0      max. step      3.7966389E-02 a0

--------------------------------------------------------------------------------

***  Geometry step: 10

 iSCC Total electronic   Diff electronic      SCC error    
    1   -0.19436517E+03    0.00000000E+00    0.81402588E-02
    2   -0.19435445E+03    0.10720077E-01    0.32653429E-02
    3   -0.19435450E+03   -0.43455892E-04    0.83519785E-03
    4   -0.19435450E+03   -0.90411052E-05    0.12914112E-03
    5   -0.19435450E+03   -0.20681995E-06    0.25487912E-04
    6   -0.19435450E+03   -0.13768243E-07    0.10194221E-04
    7   -0.19435450E+03   -0.34324898E-09    0.26388327E-05
    8   -0.19435450E+03   -0.28705927E-10    0.19939780E-06
    9   -0.19435450E+03   -0.10231815E-11    0.54805486E-07
   10   -0.19435450E+03   -0.85265128E-13    0.11153891E-07
   11   -0.19435450E+03    0.00000000E+00    0.16626509E-08

Total Energy:                     -192.3598339708 H        -5234.3774 eV
Extrapolated to 0K:               -192.3598339708 H        -5234.3774 eV
Total Mermin free energy:         -192.3598339708 H        -5234.3774 eV
Force related energy:             -192.3598339708 H        -5234.3774 eV

Volume:                              0.979356E+04 au^3   0.145126E+04 A^3
Pressure:                            0.355650E-04 au     0.104636E+10 Pa
>> Charges saved for restart in charges.bin

total energy  -1.9235983E+02 H       energy change -2.3755208E-03 H
gradient norm  3.6124311E-02 H/a0    max. gradient  9.4120420E-03 H/a0
step length    1.4394144E-01 a0      max. step      2.9076339E-02 a0

--------------------------------------------------------------------------------

***  Geometry step: 11

 iSCC Total electronic   Diff electronic      SCC error    
    1   -0.19435450E+03    0.00000000E+00    0.81994133E-02
    2   -0.19434360E+03    0.10900695E-01    0.34303134E-02
    3   -0.19434365E+03   -0.46908481E-04    0.10185947E-02
    4   -0.19434366E+03   -0.99719592E-05    0.14478136E-03
    5   -0.19434366E+03   -0.23740134E-06    0.20107343E-04
    6   -0.19434366E+03   -0.17205025E-07    0.92679388E-05
    7   -0.19434366E+03   -0.20736479E-09    0.17286006E-05
    8   -0.19434366E+03   -0.25238478E-10    0.21113940E-06
    9   -0.19434366E+03   -0.82422957E-12    0.55921448E-07
   10   -0.19434366E+03   -0.85265128E-13    0.85520462E-08

Total Energy:                     -192.3619321502 H        -5234.4345 eV
Extrapolated to 0K:               -192.3619321502 H        -5234.4345 eV
Total Mermin free energy:         -192.3619321502 H        -5234.4345 eV
Force related energy:             -192.3619321502 H        -5234.4345 eV

Volume:                              0.980591E+04 au^3   0.145309E+04 A^3
Pressure:                            0.289016E-04 au     0.850315E+09 Pa
>> Charges saved for restart in charges.bin

total energy  -1.9236193E+02 H       energy change -2.0981794E-03 H
gradient norm  3.6425073E-02 H/a0    max. gradient  1.3965176E-02 H/a0
step length    1.4407580E-01 a0      max. step      3.2052358E-02 a0

--------------------------------------------------------------------------------

***  Geometry step: 12

 iSCC Total electronic   Diff electronic      SCC error    
    1   -0.19434366E+03    0.00000000E+00    0.72492245E-02
    2   -0.19433778E+03    0.58762162E-02    0.42285003E-02
    3   -0.19433782E+03   -0.37074024E-04    0.95805588E-03
    4   -0.19433783E+03   -0.87914773E-05    0.12754012E-03
    5   -0.19433783E+03   -0.30420117E-06    0.41867590E-04
    6   -0.19433783E+03   -0.17191525E-07    0.15680094E-04
    7   -0.19433783E+03   -0.17161028E-09    0.14646682E-05
    8   -0.19433783E+03   -0.19156232E-10    0.22387457E-06
    9   -0.19433783E+03   -0.14779289E-11    0.51509963E-07
   10   -0.19433783E+03   -0.85265128E-13    0.63551919E-08

Total Energy:                     -192.3638540418 H        -5234.4868 eV
Extrapolated to 0K:               -192.3638540418 H        -5234.4868 eV
Total Mermin free energy:         -192.3638540418 H        -5234.4868 eV
Force related energy:             -192.3638540418 H        -5234.4868 eV

Volume:                              0.982114E+04 au^3   0.145534E+04 A^3
Pressure:                            0.245237E-04 au     0.721511E+09 Pa
>> Charges saved for restart in charges.bin

total energy  -1.9236385E+02 H       energy change -1.9218916E-03 H
gradient norm  3.2308928E-02 H/a0    max. gradient  1.2420291E-02 H/a0
step length    1.4196343E-01 a0      max. step      3.2630928E-02 a0

--------------------------------------------------------------------------------

***  Geometry step: 13

 iSCC Total electronic   Diff electronic      SCC error    
    1   -0.19433783E+03    0.00000000E+00    0.61315223E-02
    2   -0.19433512E+03    0.27134828E-02    0.35772666E-02
    3   -0.19433514E+03   -0.24500177E-04    0.85355804E-03
    4   -0.19433515E+03   -0.59256708E-05    0.12891470E-03
    5   -0.19433515E+03   -0.25419777E-06    0.41621302E-04
    6   -0.19433515E+03   -0.13158314E-07    0.13004649E-04
    7   -0.19433515E+03   -0.21546498E-09    0.16675737E-05
    8   -0.19433515E+03   -0.14182433E-10    0.27397688E-06
    9   -0.19433515E+03   -0.14210855E-11    0.77835860E-07
   10   -0.19433515E+03   -0.28421709E-13    0.82828562E-08

Total Energy:                     -192.3653773607 H        -5234.5282 eV
Extrapolated to 0K:               -192.3653773607 H        -5234.5282 eV
Total Mermin free energy:         -192.3653773607 H        -5234.5282 eV
Force related energy:             -192.3653773607 H        -5234.5282 eV

Volume:                              0.983790E+04 au^3   0.145783E+04 A^3
Pressure:                            0.213683E-04 au     0.628676E+09 Pa
>> Charges saved for restart in charges.bin

total energy  -1.9236538E+02 H       energy change -1.5233189E-03 H
gradient norm  2.8690544E-02 H/a0    max. gradient  9.0100674E-03 H/a0
step length    1.3552506E-01 a0      max. step      3.0450814E-02 a0

--------------------------------------------------------------------------------

***  Geometry step: 14

 iSCC Total electronic   Diff electronic      SCC error    
    1   -0.19433515E+03    0.00000000E+00    0.52186561E-02
    2   -0.19433412E+03    0.10280347E-02    0.25774316E-02
    3   -0.19433414E+03   -0.20447478E-04    0.68488641E-03
    4   -0.19433414E+03   -0.43451163E-05    0.96535810E-04
    5   -0.19433414E+03   -0.14336339E-06    0.14530013E-04
    6   -0.19433414E+03   -0.80750056E-08    0.58808190E-05
    7   -0.19433414E+03   -0.16689228E-09    0.16198253E-05
    8   -0.19433414E+03   -0.11027623E-10    0.22094962E-06
    9   -0.19433414E+03   -0.54001248E-12    0.43959840E-07
   10   -0.19433414E+03    0.56843419E-13    0.75767481E-08

Total Energy:                     -192.3666044819 H        -5234.5616 eV
Extrapolated to 0K:               -192.3666044819 H        -5234.5616 eV
Total Mermin free energy:         -192.3666044819 H        -5234.5616 eV
Force related energy:             -192.3666044819 H        -5234.5616 eV

Volume:                              0.985436E+04 au^3   0.146027E+04 A^3
Pressure:                            0.185229E-04 au     0.544962E+09 Pa
>> Charges saved for restart in charges.bin

total energy  -1.9236660E+02 H       energy change -1.2271212E-03 H
gradient norm  2.5054152E-02 H/a0    max. gradient  5.7307921E-03 H/a0
step length    1.1897447E-01 a0      max. step      2.5903869E-02 a0

--------------------------------------------------------------------------------

***  Geometry step: 15

 iSCC Total electronic   Diff electronic      SCC error    
    1   -0.19433414E+03    0.00000000E+00    0.59998755E-02
    2   -0.19433671E+03   -0.25662589E-02    0.25927342E-02
    3   -0.19433674E+03   -0.32053902E-04    0.63219258E-03
    4   -0.19433675E+03   -0.67732413E-05    0.93452907E-04
    5   -0.19433675E+03   -0.11215170E-06    0.23954770E-04
    6   -0.19433675E+03   -0.10433666E-07    0.84681119E-05
    7   -0.19433675E+03   -0.25931968E-09    0.20718401E-05
    8   -0.19433675E+03   -0.14523494E-10    0.34621661E-06
    9   -0.19433675E+03   -0.79580786E-12    0.69481824E-07
   10   -0.19433675E+03   -0.17053026E-12    0.12858282E-07
   11   -0.19433675E+03    0.28421709E-13    0.10476158E-08

Total Energy:                     -192.3676892209 H        -5234.5912 eV
Extrapolated to 0K:               -192.3676892209 H        -5234.5912 eV
Total Mermin free energy:         -192.3676892209 H        -5234.5912 eV
Force related energy:             -192.3676892209 H        -5234.5912 eV

Volume:                              0.986985E+04 au^3   0.146256E+04 A^3
Pressure:                            0.169755E-04 au     0.499436E+09 Pa
>> Charges saved for restart in charges.bin

total energy  -1.9236769E+02 H       energy change -1.0847390E-03 H
gradient norm  2.4972574E-02 H/a0    max. gradient  7.3168913E-03 H/a0
step length    1.2063738E-01 a0      max. step      2.4050549E-02 a0

--------------------------------------------------------------------------------

***  Geometry step: 16

 iSCC Total electronic   Diff electronic      SCC error    
    1   -0.19433675E+03    0.00000000E+00    0.54184411E-02
    2   -0.19433936E+03   -0.26131532E-02    0.30560455E-02
    3   -0.19433938E+03   -0.21292112E-04    0.70889666E-03
    4   -0.19433939E+03   -0.43011635E-05    0.91495919E-04
    5   -0.19433939E+03   -0.80977543E-07    0.33080338E-04
    6   -0.19433939E+03   -0.66582970E-08    0.91196036E-05
    7   -0.19433939E+03   -0.16055424E-09    0.18216166E-05
    8   -0.19433939E+03   -0.66222583E-11    0.29297401E-06
    9   -0.19433939E+03   -0.11652901E-11    0.60259544E-07
   10   -0.19433939E+03   -0.56843419E-13    0.72286683E-08

Total Energy:                     -192.3685217046 H        -5234.6138 eV
Extrapolated to 0K:               -192.3685217046 H        -5234.6138 eV
Total Mermin free energy:         -192.3685217046 H        -5234.6138 eV
Force related energy:             -192.3685217046 H        -5234.6138 eV

Volume:                              0.988275E+04 au^3   0.146447E+04 A^3
Pressure:                            0.167137E-04 au     0.491734E+09 Pa
>> Charges saved for restart in charges.bin

total energy  -1.9236852E+02 H       energy change -8.3248379E-04 H
gradient norm  2.3648423E-02 H/a0    max. gradient  6.6873135E-03 H/a0
step length    1.0133138E-01 a0      max. step      2.0041395E-02 a0

--------------------------------------------------------------------------------

***  Geometry step: 17

 iSCC Total electronic   Diff electronic      SCC error    
    1   -0.19433939E+03    0.00000000E+00    0.61235542E-02
    2   -0.19433939E+03    0.25871114E-05    0.34804674E-02
    3   -0.19433940E+03   -0.17248297E-04    0.79165296E-03
    4   -0.19433941E+03   -0.37164225E-05    0.98224531E-04
    5   -0.19433941E+03   -0.69746164E-07    0.28994023E-04
    6   -0.19433941E+03   -0.54238853E-08    0.78031865E-05
    7   -0.19433941E+03   -0.11749535E-09    0.13520395E-05
    8   -0.19433941E+03   -0.56559202E-11    0.26118018E-06
    9   -0.19433941E+03   -0.10516032E-11    0.73039757E-07
   10   -0.19433941E+03   -0.28421709E-13    0.88994048E-08

Total Energy:                     -192.3693150052 H        -5234.6354 eV
Extrapolated to 0K:               -192.3693150052 H        -5234.6354 eV
Total Mermin free energy:         -192.3693150052 H        -5234.6354 eV
Force related energy:             -192.3693150052 H        -5234.6354 eV

Volume:                              0.989687E+04 au^3   0.146657E+04 A^3
Pressure:                            0.156352E-04 au     0.460003E+09 Pa
>> Charges saved for restart in charges.bin

total energy  -1.9236932E+02 H       energy change -7.9330057E-04 H
gradient norm  2.1651409E-02 H/a0    max. gradient  4.0418700E-03 H/a0
step length    1.1197266E-01 a0      max. step      2.2012842E-02 a0

--------------------------------------------------------------------------------

***  Geometry step: 18

 iSCC Total electronic   Diff electronic      SCC error    
    1   -0.19433941E+03    0.00000000E+00    0.41943459E-02
    2   -0.19433512E+03    0.42829856E-02    0.20827208E-02
    3   -0.19433514E+03   -0.16101345E-04    0.65700454E-03
    4   -0.19433514E+03   -0.33249352E-05    0.10126927E-03
    5   -0.19433514E+03   -0.62275802E-07    0.25947741E-04
    6   -0.19433514E+03   -0.58367959E-08    0.77942548E-05
    7   -0.19433514E+03   -0.12406076E-09    0.18722150E-05
    8   -0.19433514E+03   -0.40927262E-11    0.26906405E-06
    9   -0.19433514E+03   -0.82422957E-12    0.54532154E-07
   10   -0.19433514E+03    0.00000000E+00    0.58624083E-08

Total Energy:                     -192.3700297392 H        -5234.6548 eV
Extrapolated to 0K:               -192.3700297392 H        -5234.6548 eV
Total Mermin free energy:         -192.3700297392 H        -5234.6548 eV
Force related energy:             -192.3700297392 H        -5234.6548 eV

Volume:                              0.991297E+04 au^3   0.146895E+04 A^3
Pressure:                            0.129456E-04 au     0.380871E+09 Pa
>> Charges saved for restart in charges.bin

total energy  -1.9237003E+02 H       energy change -7.1473397E-04 H
gradient norm  2.1320115E-02 H/a0    max. gradient  6.0434602E-03 H/a0
step length    1.1377004E-01 a0      max. step      2.1371801E-02 a0

--------------------------------------------------------------------------------

***  Geometry step: 19

 iSCC Total electronic   Diff electronic      SCC error    
    1   -0.19433514E+03    0.00000000E+00    0.39589774E-02
    2   -0.19433238E+03    0.27686255E-02    0.17061516E-02
    3   -0.19433239E+03   -0.13765518E-04    0.49817903E-03
    4   -0.19433239E+03   -0.28222374E-05    0.72118320E-04
    5   -0.19433239E+03   -0.39361396E-07    0.81501536E-05
    6   -0.19433239E+03   -0.35217624E-08    0.35391302E-05
    7   -0.19433239E+03   -0.56559202E-10    0.13370790E-05
    8   -0.19433239E+03   -0.33537617E-11    0.18093876E-06
    9   -0.19433239E+03   -0.11368684E-12    0.20392398E-07
   10   -0.19433239E+03   -0.28421709E-13    0.54141274E-08

Total Energy:                     -192.3707049751 H        -5234.6732 eV
Extrapolated to 0K:               -192.3707049751 H        -5234.6732 eV
Total Mermin free energy:         -192.3707049751 H        -5234.6732 eV
Force related energy:             -192.3707049751 H        -5234.6732 eV

Volume:                              0.992730E+04 au^3   0.147107E+04 A^3
Pressure:                            0.111607E-04 au     0.328359E+09 Pa
>> Charges saved for restart in charges.bin

total energy  -1.9237070E+02 H       energy change -6.7523596E-04 H
gradient norm  2.1147633E-02 H/a0    max. gradient  6.3869928E-03 H/a0
step length    1.1061266E-01 a0      max. step      2.0430655E-02 a0

--------------------------------------------------------------------------------

***  Geometry step: 20

 iSCC Total electronic   Diff electronic      SCC error    
    1   -0.19433239E+03    0.00000000E+00    0.44954624E-02
    2   -0.19432810E+03    0.42909310E-02    0.23325840E-02
    3   -0.19432812E+03   -0.14282684E-04    0.50388942E-03
    4   -0.19432812E+03   -0.31672993E-05    0.67365912E-04
    5   -0.19432812E+03   -0.52639137E-07    0.24149515E-04
    6   -0.19432812E+03   -0.37482550E-08    0.72196965E-05
    7   -0.19432812E+03   -0.63494099E-10    0.90421971E-06
    8   -0.19432812E+03   -0.27284841E-11    0.19420215E-06
    9   -0.19432812E+03   -0.59685590E-12    0.58011416E-07
   10   -0.19432812E+03   -0.11368684E-12    0.64503687E-08

Total Energy:                     -192.3713453860 H        -5234.6906 eV
Extrapolated to 0K:               -192.3713453860 H        -5234.6906 eV
Total Mermin free energy:         -192.3713453860 H        -5234.6906 eV
Force related energy:             -192.3713453860 H        -5234.6906 eV

Volume:                              0.994353E+04 au^3   0.147348E+04 A^3
Pressure:                            0.874295E-05 au     0.257226E+09 Pa
>> Charges saved for restart in charges.bin

total energy  -1.9237135E+02 H       energy change -6.4041083E-04 H
gradient norm  1.9121234E-02 H/a0    max. gradient  5.3003352E-03 H/a0
step length    1.0946127E-01 a0      max. step      2.1674418E-02 a0

--------------------------------------------------------------------------------

***  Geometry step: 21

 iSCC Total electronic   Diff electronic      SCC error    
    1   -0.19432812E+03    0.00000000E+00    0.54114411E-02
    2   -0.19432472E+03    0.34009345E-02    0.30637230E-02
    3   -0.19432473E+03   -0.11827622E-04    0.53773020E-03
    4   -0.19432473E+03   -0.27894571E-05    0.64168423E-04
    5   -0.19432473E+03   -0.63757710E-07    0.28216156E-04
    6   -0.19432473E+03   -0.32732430E-08    0.63712520E-05
    7   -0.19432473E+03   -0.71594286E-10    0.10063903E-05
    8   -0.19432473E+03   -0.34390268E-11    0.23322542E-06
    9   -0.19432473E+03   -0.85265128E-12    0.52972251E-07
   10   -0.19432473E+03    0.00000000E+00    0.52615601E-08

Total Energy:                     -192.3718728021 H        -5234.7050 eV
Extrapolated to 0K:               -192.3718728021 H        -5234.7050 eV
Total Mermin free energy:         -192.3718728021 H        -5234.7050 eV
Force related energy:             -192.3718728021 H        -5234.7050 eV

Volume:                              0.995996E+04 au^3   0.147591E+04 A^3
Pressure:                            0.633802E-05 au     0.186471E+09 Pa
>> Charges saved for restart in charges.bin

total energy  -1.9237187E+02 H       energy change -5.2741614E-04 H
gradient norm  1.6354476E-02 H/a0    max. gradient  3.2069292E-03 H/a0
step length    1.0555516E-01 a0      max. step      2.1801279E-02 a0

--------------------------------------------------------------------------------

***  Geometry step: 22

 iSCC Total electronic   Diff electronic      SCC error    
    1   -0.19432473E+03    0.00000000E+00    0.25585339E-02
    2   -0.19432417E+03    0.55940667E-03    0.14552215E-02
    3   -0.19432418E+03   -0.77718566E-05    0.43683756E-03
    4   -0.19432418E+03   -0.17530418E-05    0.53391660E-04
    5   -0.19432418E+03   -0.33528892E-07    0.17829995E-04
    6   -0.19432418E+03   -0.18447963E-08    0.37649614E-05
    7   -0.19432418E+03   -0.45304205E-10    0.71051334E-06
    8   -0.19432418E+03   -0.18189894E-11    0.15749162E-06
    9   -0.19432418E+03   -0.39790393E-12    0.38700908E-07
   10   -0.19432418E+03    0.28421709E-13    0.40823611E-08

Total Energy:                     -192.3722450263 H        -5234.7151 eV
Extrapolated to 0K:               -192.3722450263 H        -5234.7151 eV
Total Mermin free energy:         -192.3722450263 H        -5234.7151 eV
Force related energy:             -192.3722450263 H        -5234.7151 eV

Volume:                              0.997189E+04 au^3   0.147768E+04 A^3
Pressure:                            0.506169E-05 au     0.148920E+09 Pa
>> Charges saved for restart in charges.bin

total energy  -1.9237225E+02 H       energy change -3.7222419E-04 H
gradient norm  1.3638440E-02 H/a0    max. gradient  3.0399840E-03 H/a0
step length    7.9070982E-02 a0      max. step      1.7699973E-02 a0

--------------------------------------------------------------------------------

***  Geometry step: 23

 iSCC Total electronic   Diff electronic      SCC error    
    1   -0.19432418E+03    0.00000000E+00    0.27590717E-02
    2   -0.19432530E+03   -0.11222275E-02    0.12804427E-02
    3   -0.19432531E+03   -0.82066124E-05    0.45826343E-03
    4   -0.19432531E+03   -0.17595270E-05    0.52017386E-04
    5   -0.19432531E+03   -0.23177108E-07    0.10046218E-04
    6   -0.19432531E+03   -0.18158062E-08    0.34397442E-05
    7   -0.19432531E+03   -0.41126214E-10    0.88797007E-06
    8   -0.19432531E+03   -0.17337243E-11    0.11328595E-06
    9   -0.19432531E+03   -0.19895197E-12    0.18584727E-07
   10   -0.19432531E+03    0.14210855E-12    0.55754414E-08

Total Energy:                     -192.3725363505 H        -5234.7231 eV
Extrapolated to 0K:               -192.3725363505 H        -5234.7231 eV
Total Mermin free energy:         -192.3725363505 H        -5234.7231 eV
Force related energy:             -192.3725363505 H        -5234.7231 eV

Volume:                              0.998173E+04 au^3   0.147914E+04 A^3
Pressure:                            0.434696E-05 au     0.127892E+09 Pa
>> Charges saved for restart in charges.bin

total energy  -1.9237254E+02 H       energy change -2.9132422E-04 H
gradient norm  1.2403340E-02 H/a0    max. gradient  2.8423078E-03 H/a0
step length    6.9262965E-02 a0      max. step      1.5118614E-02 a0

--------------------------------------------------------------------------------

***  Geometry step: 24

 iSCC Total electronic   Diff electronic      SCC error    
    1   -0.19432531E+03    0.00000000E+00    0.23474805E-02
    2   -0.19432739E+03   -0.20747920E-02    0.12737850E-02
    3   -0.19432739E+03   -0.46547064E-05    0.27112555E-03
    4   -0.19432740E+03   -0.10342632E-05    0.43438662E-04
    5   -0.19432740E+03   -0.14162822E-07    0.11046160E-04
    6   -0.19432740E+03   -0.91608854E-09    0.21537921E-05
    7   -0.19432740E+03   -0.25778490E-10    0.45714214E-06
    8   -0.19432740E+03   -0.56843419E-12    0.10421939E-06
    9   -0.19432740E+03   -0.85265128E-13    0.15621432E-07
   10   -0.19432740E+03    0.00000000E+00    0.18543318E-08

Total Energy:                     -192.3727344557 H        -5234.7284 eV
Extrapolated to 0K:               -192.3727344557 H        -5234.7284 eV
Total Mermin free energy:         -192.3727344557 H        -5234.7284 eV
Force related energy:             -192.3727344557 H        -5234.7284 eV

Volume:                              0.998803E+04 au^3   0.148007E+04 A^3
Pressure:                            0.457628E-05 au     0.134639E+09 Pa
>> Charges saved for restart in charges.bin

total energy  -1.9237273E+02 H       energy change -1.9810514E-04 H
gradient norm  1.1097800E-02 H/a0    max. gradient  2.9211964E-03 H/a0
step length    5.1394142E-02 a0      max. step      1.0067362E-02 a0

--------------------------------------------------------------------------------

***  Geometry step: 25

 iSCC Total electronic   Diff electronic      SCC error    
    1   -0.19432740E+03    0.00000000E+00    0.30394274E-02
    2   -0.19432804E+03   -0.64410982E-03    0.16737366E-02
    3   -0.19432804E+03   -0.39800489E-05    0.30505249E-03
    4   -0.19432804E+03   -0.91387778E-06    0.32406742E-04
    5   -0.19432804E+03   -0.14376894E-07    0.12236486E-04
    6   -0.19432804E+03   -0.84833118E-09    0.23184292E-05
    7   -0.19432804E+03   -0.19696245E-10    0.54813014E-06
    8   -0.19432804E+03   -0.56843419E-12    0.10567518E-06
    9   -0.19432804E+03   -0.11368684E-12    0.25159072E-07
   10   -0.19432804E+03    0.28421709E-13    0.31845238E-08

Total Energy:                     -192.3729106053 H        -5234.7332 eV
Extrapolated to 0K:               -192.3729106053 H        -5234.7332 eV
Total Mermin free energy:         -192.3729106053 H        -5234.7332 eV
Force related energy:             -192.3729106053 H        -5234.7332 eV

Volume:                              0.999472E+04 au^3   0.148106E+04 A^3
Pressure:                            0.428260E-05 au     0.125998E+09 Pa
>> Charges saved for restart in charges.bin

total energy  -1.9237291E+02 H       energy change -1.7614959E-04 H
gradient norm  1.0172275E-02 H/a0    max. gradient  1.8467534E-03 H/a0
step length    4.9711473E-02 a0      max. step      9.8539215E-03 a0

--------------------------------------------------------------------------------

***  Geometry step: 26

 iSCC Total electronic   Diff electronic      SCC error    
    1   -0.19432804E+03    0.00000000E+00    0.21951320E-02
    2   -0.19432810E+03   -0.53013821E-04    0.11925240E-02
    3   -0.19432810E+03   -0.30404468E-05    0.27093205E-03
    4   -0.19432810E+03   -0.72629700E-06    0.26121682E-04
    5   -0.19432810E+03   -0.12387972E-07    0.10479082E-04
    6   -0.19432810E+03   -0.61004357E-09    0.19014388E-05
    7   -0.19432810E+03   -0.11254997E-10    0.35749959E-06
    8   -0.19432810E+03   -0.34106051E-12    0.82335889E-07
    9   -0.19432810E+03   -0.11368684E-12    0.15911242E-07
   10   -0.19432810E+03    0.85265128E-13    0.23367601E-08

Total Energy:                     -192.3730771303 H        -5234.7378 eV
Extrapolated to 0K:               -192.3730771303 H        -5234.7378 eV
Total Mermin free energy:         -192.3730771303 H        -5234.7378 eV
Force related energy:             -192.3730771303 H        -5234.7378 eV

Volume:                              0.100012E+05 au^3   0.148202E+04 A^3
Pressure:                            0.396422E-05 au     0.116631E+09 Pa
>> Charges saved for restart in charges.bin

total energy  -1.9237308E+02 H       energy change -1.6652499E-04 H
gradient norm  1.0141269E-02 H/a0    max. gradient  2.6077295E-03 H/a0
step length    4.8764087E-02 a0      max. step      9.5059293E-03 a0

--------------------------------------------------------------------------------

***  Geometry step: 27

 iSCC Total electronic   Diff electronic      SCC error    
    1   -0.19432810E+03    0.00000000E+00    0.17531775E-02
    2   -0.19432701E+03    0.10889148E-02    0.10632849E-02
    3   -0.19432702E+03   -0.39341921E-05    0.29477398E-03
    4   -0.19432702E+03   -0.90148384E-06    0.29039084E-04
    5   -0.19432702E+03   -0.16713329E-07    0.66210606E-05
    6   -0.19432702E+03   -0.70551209E-09    0.18744145E-05
    7   -0.19432702E+03   -0.65085715E-11    0.36254299E-06
    8   -0.19432702E+03   -0.31263880E-12    0.82403423E-07
    9   -0.19432702E+03   -0.28421709E-13    0.13514249E-07
   10   -0.19432702E+03    0.28421709E-13    0.16792492E-08

Total Energy:                     -192.3732686876 H        -5234.7430 eV
Extrapolated to 0K:               -192.3732686876 H        -5234.7430 eV
Total Mermin free energy:         -192.3732686876 H        -5234.7430 eV
Force related energy:             -192.3732686876 H        -5234.7430 eV

Volume:                              0.100106E+05 au^3   0.148341E+04 A^3
Pressure:                            0.291895E-05 au     0.858783E+08 Pa
>> Charges saved for restart in charges.bin

total energy  -1.9237327E+02 H       energy change -1.9155732E-04 H
gradient norm  1.1247947E-02 H/a0    max. gradient  3.1497612E-03 H/a0
step length    6.5219415E-02 a0      max. step      1.3216143E-02 a0

--------------------------------------------------------------------------------

***  Geometry step: 28

 iSCC Total electronic   Diff electronic      SCC error    
    1   -0.19432702E+03    0.00000000E+00    0.17420136E-02
    2   -0.19432591E+03    0.11116875E-02    0.95193866E-03
    3   -0.19432591E+03   -0.33952748E-05    0.30383376E-03
    4   -0.19432591E+03   -0.75851949E-06    0.28441996E-04
    5   -0.19432591E+03   -0.18456575E-07    0.66266914E-05
    6   -0.19432591E+03   -0.83400664E-09    0.19221749E-05
    7   -0.19432591E+03   -0.72759576E-11    0.40714542E-06
    8   -0.19432591E+03   -0.28421709E-12    0.88008695E-07
    9   -0.19432591E+03   -0.14210855E-12    0.22166623E-07
   10   -0.19432591E+03    0.00000000E+00    0.20370647E-08

Total Energy:                     -192.3734573420 H        -5234.7481 eV
Extrapolated to 0K:               -192.3734573420 H        -5234.7481 eV
Total Mermin free energy:         -192.3734573420 H        -5234.7481 eV
Force related energy:             -192.3734573420 H        -5234.7481 eV

Volume:                              0.100204E+05 au^3   0.148488E+04 A^3
Pressure:                            0.169355E-05 au     0.498261E+08 Pa
>> Charges saved for restart in charges.bin

total energy  -1.9237346E+02 H       energy change -1.8865445E-04 H
gradient norm  1.1673535E-02 H/a0    max. gradient  2.9523360E-03 H/a0
step length    6.9017421E-02 a0      max. step      1.5096450E-02 a0

--------------------------------------------------------------------------------

***  Geometry step: 29

 iSCC Total electronic   Diff electronic      SCC error    
    1   -0.19432591E+03    0.00000000E+00    0.21759738E-02
    2   -0.19432572E+03    0.19391957E-03    0.12755553E-02
    3   -0.19432572E+03   -0.36502632E-05    0.35320219E-03
    4   -0.19432572E+03   -0.77148599E-06    0.37628201E-04
    5   -0.19432572E+03   -0.25744669E-07    0.14199226E-04
    6   -0.19432572E+03   -0.11888517E-08    0.27030228E-05
    7   -0.19432572E+03   -0.20236257E-10    0.42638608E-06
    8   -0.19432572E+03   -0.82422957E-12    0.13957445E-06
    9   -0.19432572E+03   -0.28421709E-13    0.27437668E-07
   10   -0.19432572E+03   -0.28421709E-13    0.31560443E-08

Total Energy:                     -192.3736703846 H        -5234.7539 eV
Extrapolated to 0K:               -192.3736703846 H        -5234.7539 eV
Total Mermin free energy:         -192.3736703846 H        -5234.7539 eV
Force related energy:             -192.3736703846 H        -5234.7539 eV

Volume:                              0.100308E+05 au^3   0.148641E+04 A^3
Pressure:                            0.528143E-06 au     0.155385E+08 Pa
>> Charges saved for restart in charges.bin

total energy  -1.9237367E+02 H       energy change -2.1304255E-04 H
gradient norm  1.1048622E-02 H/a0    max. gradient  1.9792727E-03 H/a0
step length    8.1619955E-02 a0      max. step      1.8625881E-02 a0

--------------------------------------------------------------------------------

***  Geometry step: 30

 iSCC Total electronic   Diff electronic      SCC error    
    1   -0.19432572E+03    0.00000000E+00    0.24370007E-02
    2   -0.19432713E+03   -0.14136403E-02    0.14021868E-02
    3   -0.19432714E+03   -0.40272460E-05    0.32442636E-03
    4   -0.19432714E+03   -0.85291802E-06    0.48738246E-04
    5   -0.19432714E+03   -0.22946978E-07    0.15466933E-04
    6   -0.19432714E+03   -0.15067769E-08    0.30461055E-05
    7   -0.19432714E+03   -0.31434411E-10    0.64568790E-06
    8   -0.19432714E+03   -0.85265128E-12    0.13703920E-06
    9   -0.19432714E+03   -0.85265128E-13    0.27821900E-07
   10   -0.19432714E+03   -0.28421709E-13    0.42235824E-08

Total Energy:                     -192.3738771698 H        -5234.7595 eV
Extrapolated to 0K:               -192.3738771698 H        -5234.7595 eV
Total Mermin free energy:         -192.3738771698 H        -5234.7595 eV
Force related energy:             -192.3738771698 H        -5234.7595 eV

Volume:                              0.100394E+05 au^3   0.148769E+04 A^3
Pressure:                            0.664849E-07 au     0.195605E+07 Pa
>> Charges saved for restart in charges.bin

total energy  -1.9237388E+02 H       energy change -2.0678522E-04 H
gradient norm  1.0742266E-02 H/a0    max. gradient  2.4501406E-03 H/a0
step length    8.5382688E-02 a0      max. step      1.9457219E-02 a0

--------------------------------------------------------------------------------

***  Geometry step: 31

 iSCC Total electronic   Diff electronic      SCC error    
    1   -0.19432714E+03    0.00000000E+00    0.23460050E-02
    2   -0.19432908E+03   -0.19383550E-02    0.11022032E-02
    3   -0.19432908E+03   -0.50539354E-05    0.26559974E-03
    4   -0.19432908E+03   -0.10411442E-05    0.45411725E-04
    5   -0.19432908E+03   -0.15249725E-07    0.12367441E-04
    6   -0.19432908E+03   -0.13601209E-08    0.30878487E-05
    7   -0.19432908E+03   -0.25778490E-10    0.71740782E-06
    8   -0.19432908E+03   -0.56843419E-12    0.91272355E-07
    9   -0.19432908E+03   -0.19895197E-12    0.20550441E-07
   10   -0.19432908E+03   -0.28421709E-13    0.31549678E-08

Total Energy:                     -192.3740786161 H        -5234.7650 eV
Extrapolated to 0K:               -192.3740786161 H        -5234.7650 eV
Total Mermin free energy:         -192.3740786161 H        -5234.7650 eV
Force related energy:             -192.3740786161 H        -5234.7650 eV

Volume:                              0.100459E+05 au^3   0.148864E+04 A^3
Pressure:                           -0.942569E-07 au    -0.277313E+07 Pa
>> Charges saved for restart in charges.bin

total energy  -1.9237408E+02 H       energy change -2.0144630E-04 H
gradient norm  1.1384587E-02 H/a0    max. gradient  2.7734838E-03 H/a0
step length    8.6679977E-02 a0      max. step      1.8794886E-02 a0

--------------------------------------------------------------------------------

***  Geometry step: 32

 iSCC Total electronic   Diff electronic      SCC error    
    1   -0.19432908E+03    0.00000000E+00    0.20850606E-02
    2   -0.19433150E+03   -0.24174283E-02    0.83968334E-03
    3   -0.19433150E+03   -0.43324114E-05    0.22352491E-03
    4   -0.19433151E+03   -0.89957393E-06    0.32320032E-04
    5   -0.19433151E+03   -0.83981320E-08    0.52748167E-05
    6   -0.19433151E+03   -0.88880370E-09    0.15956893E-05
    7   -0.19433151E+03   -0.16626700E-10    0.46497668E-06
    8   -0.19433151E+03   -0.22737368E-12    0.74905037E-07
    9   -0.19433151E+03   -0.85265128E-13    0.15269929E-07
   10   -0.19433151E+03    0.56843419E-13    0.20793691E-08

Total Energy:                     -192.3742861464 H        -5234.7707 eV
Extrapolated to 0K:               -192.3742861464 H        -5234.7707 eV
Total Mermin free energy:         -192.3742861464 H        -5234.7707 eV
Force related energy:             -192.3742861464 H        -5234.7707 eV

Volume:                              0.100499E+05 au^3   0.148924E+04 A^3
Pressure:                           -0.305601E-07 au    -0.899108E+06 Pa
>> Charges saved for restart in charges.bin

total energy  -1.9237429E+02 H       energy change -2.0753029E-04 H
gradient norm  1.1674213E-02 H/a0    max. gradient  2.7163155E-03 H/a0
step length    8.6545460E-02 a0      max. step      1.7417653E-02 a0

--------------------------------------------------------------------------------

***  Geometry step: 33

 iSCC Total electronic   Diff electronic      SCC error    
    1   -0.19433151E+03    0.00000000E+00    0.23167268E-02
    2   -0.19433506E+03   -0.35554796E-02    0.98765793E-03
    3   -0.19433507E+03   -0.55077480E-05    0.32303948E-03
    4   -0.19433507E+03   -0.12076721E-05    0.45030623E-04
    5   -0.19433507E+03   -0.11886300E-07    0.63107718E-05
    6   -0.19433507E+03   -0.12342980E-08    0.17140457E-05
    7   -0.19433507E+03   -0.19639401E-10    0.67007150E-06
    8   -0.19433507E+03   -0.36948222E-12    0.97016702E-07
    9   -0.19433507E+03   -0.11368684E-12    0.14731252E-07
   10   -0.19433507E+03   -0.11368684E-12    0.27831000E-08

Total Energy:                     -192.3745183030 H        -5234.7770 eV
Extrapolated to 0K:               -192.3745183030 H        -5234.7770 eV
Total Mermin free energy:         -192.3745183030 H        -5234.7770 eV
Force related energy:             -192.3745183030 H        -5234.7770 eV

Volume:                              0.100520E+05 au^3   0.148955E+04 A^3
Pressure:                            0.950163E-06 au     0.279548E+08 Pa
>> Charges saved for restart in charges.bin

total energy  -1.9237452E+02 H       energy change -2.3215661E-04 H
gradient norm  1.1788332E-02 H/a0    max. gradient  2.5146848E-03 H/a0
step length    1.0673851E-01 a0      max. step      2.1698154E-02 a0

--------------------------------------------------------------------------------

***  Geometry step: 34

 iSCC Total electronic   Diff electronic      SCC error    
    1   -0.19433507E+03    0.00000000E+00    0.14337802E-02
    2   -0.19433630E+03   -0.12302155E-02    0.79732423E-03
    3   -0.19433630E+03   -0.24505641E-05    0.24571119E-03
    4   -0.19433630E+03   -0.55101188E-06    0.29639710E-04
    5   -0.19433630E+03   -0.12518910E-07    0.71767915E-05
    6   -0.19433630E+03   -0.83088025E-09    0.19060628E-05
    7   -0.19433630E+03   -0.16598278E-10    0.50964322E-06
    8   -0.19433630E+03   -0.31263880E-12    0.12149317E-06
    9   -0.19433630E+03   -0.56843419E-13    0.21175805E-07
   10   -0.19433630E+03    0.28421709E-13    0.24609719E-08

Total Energy:                     -192.3747185246 H        -5234.7824 eV
Extrapolated to 0K:               -192.3747185246 H        -5234.7824 eV
Total Mermin free energy:         -192.3747185246 H        -5234.7824 eV
Force related energy:             -192.3747185246 H        -5234.7824 eV

Volume:                              0.100533E+05 au^3   0.148974E+04 A^3
Pressure:                            0.125150E-05 au     0.368203E+08 Pa
>> Charges saved for restart in charges.bin

total energy  -1.9237472E+02 H       energy change -2.0022160E-04 H
gradient norm  1.1368689E-02 H/a0    max. gradient  1.9634758E-03 H/a0
step length    9.0372648E-02 a0      max. step      1.8339169E-02 a0

--------------------------------------------------------------------------------

***  Geometry step: 35

 iSCC Total electronic   Diff electronic      SCC error    
    1   -0.19433630E+03    0.00000000E+00    0.20911028E-02
    2   -0.19433682E+03   -0.52050994E-03    0.10823112E-02
    3   -0.19433683E+03   -0.50486651E-05    0.34137133E-03
    4   -0.19433683E+03   -0.11834646E-05    0.31944346E-04
    5   -0.19433683E+03   -0.30949110E-07    0.86750736E-05
    6   -0.19433683E+03   -0.17079174E-08    0.26226429E-05
    7   -0.19433683E+03   -0.23192115E-10    0.66906333E-06
    8   -0.19433683E+03   -0.93791641E-12    0.15138029E-06
    9   -0.19433683E+03   -0.11368684E-12    0.24798874E-07
   10   -0.19433683E+03   -0.28421709E-13    0.21416104E-08

Total Energy:                     -192.3749703774 H        -5234.7893 eV
Extrapolated to 0K:               -192.3749703774 H        -5234.7893 eV
Total Mermin free energy:         -192.3749703774 H        -5234.7893 eV
Force related energy:             -192.3749703774 H        -5234.7893 eV

Volume:                              0.100542E+05 au^3   0.148987E+04 A^3
Pressure:                            0.138559E-05 au     0.407656E+08 Pa
>> Charges saved for restart in charges.bin

total energy  -1.9237497E+02 H       energy change -2.5185277E-04 H
gradient norm  1.1329660E-02 H/a0    max. gradient  2.6626297E-03 H/a0
step length    1.1806512E-01 a0      max. step      2.3769764E-02 a0

--------------------------------------------------------------------------------

***  Geometry step: 36

 iSCC Total electronic   Diff electronic      SCC error    
    1   -0.19433683E+03    0.00000000E+00    0.22380100E-02
    2   -0.19433725E+03   -0.41767194E-03    0.12011649E-02
    3   -0.19433725E+03   -0.43750954E-05    0.27386045E-03
    4   -0.19433725E+03   -0.10101413E-05    0.39661404E-04
    5   -0.19433725E+03   -0.24117099E-07    0.96691272E-05
    6   -0.19433725E+03   -0.13315571E-08    0.29404258E-05
    7   -0.19433725E+03   -0.19099389E-10    0.53828085E-06
    8   -0.19433725E+03   -0.76738615E-12    0.14840525E-06
    9   -0.19433725E+03   -0.14210855E-12    0.32993534E-07
   10   -0.19433725E+03    0.00000000E+00    0.32540846E-08

Total Energy:                     -192.3751680689 H        -5234.7947 eV
Extrapolated to 0K:               -192.3751680689 H        -5234.7947 eV
Total Mermin free energy:         -192.3751680689 H        -5234.7947 eV
Force related energy:             -192.3751680689 H        -5234.7947 eV

Volume:                              0.100541E+05 au^3   0.148986E+04 A^3
Pressure:                            0.157826E-05 au     0.464340E+08 Pa
>> Charges saved for restart in charges.bin

total energy  -1.9237517E+02 H       energy change -1.9769153E-04 H
gradient norm  1.1261590E-02 H/a0    max. gradient  3.5912175E-03 H/a0
step length    9.5410223E-02 a0      max. step      1.8647783E-02 a0

--------------------------------------------------------------------------------

***  Geometry step: 37

 iSCC Total electronic   Diff electronic      SCC error    
    1   -0.19433725E+03    0.00000000E+00    0.21670588E-02
    2   -0.19433789E+03   -0.63599704E-03    0.10686233E-02
    3   -0.19433789E+03   -0.42623033E-05    0.28982281E-03
    4   -0.19433789E+03   -0.97964417E-06    0.39960411E-04
    5   -0.19433789E+03   -0.19716566E-07    0.93125600E-05
    6   -0.19433789E+03   -0.12541648E-08    0.27729612E-05
    7   -0.19433789E+03   -0.18246737E-10    0.59900413E-06
    8   -0.19433789E+03   -0.51159077E-12    0.12071056E-06
    9   -0.19433789E+03   -0.22737368E-12    0.30403712E-07
   10   -0.19433789E+03    0.11368684E-12    0.30608964E-08

Total Energy:                     -192.3753538291 H        -5234.7997 eV
Extrapolated to 0K:               -192.3753538291 H        -5234.7997 eV
Total Mermin free energy:         -192.3753538291 H        -5234.7997 eV
Force related energy:             -192.3753538291 H        -5234.7997 eV

Volume:                              0.100540E+05 au^3   0.148985E+04 A^3
Pressure:                            0.171636E-05 au     0.504971E+08 Pa
>> Charges saved for restart in charges.bin

total energy  -1.9237535E+02 H       energy change -1.8576019E-04 H
gradient norm  1.0023900E-02 H/a0    max. gradient  2.5416173E-03 H/a0
step length    9.1029358E-02 a0      max. step      1.6768342E-02 a0

--------------------------------------------------------------------------------

***  Geometry step: 38

 iSCC Total electronic   Diff electronic      SCC error    
    1   -0.19433789E+03    0.00000000E+00    0.15184780E-02
    2   -0.19433929E+03   -0.13974344E-02    0.88170745E-03
    3   -0.19433929E+03   -0.26568601E-05    0.24737516E-03
    4   -0.19433929E+03   -0.59523811E-06    0.29180927E-04
    5   -0.19433929E+03   -0.10462344E-07    0.72730076E-05
    6   -0.19433929E+03   -0.83630880E-09    0.18852814E-05
    7   -0.19433929E+03   -0.11937118E-10    0.40310943E-06
    8   -0.19433929E+03   -0.34106051E-12    0.91985961E-07
    9   -0.19433929E+03    0.00000000E+00    0.19737000E-07
   10   -0.19433929E+03   -0.14210855E-12    0.19673658E-08

Total Energy:                     -192.3755051675 H        -5234.8038 eV
Extrapolated to 0K:               -192.3755051675 H        -5234.8038 eV
Total Mermin free energy:         -192.3755051675 H        -5234.8038 eV
Force related energy:             -192.3755051675 H        -5234.8038 eV

Volume:                              0.100545E+05 au^3   0.148992E+04 A^3
Pressure:                            0.196066E-05 au     0.576845E+08 Pa
>> Charges saved for restart in charges.bin

total energy  -1.9237551E+02 H       energy change -1.5133838E-04 H
gradient norm  8.7533778E-03 H/a0    max. gradient  1.6817937E-03 H/a0
step length    8.0134438E-02 a0      max. step      1.4868510E-02 a0

--------------------------------------------------------------------------------

***  Geometry step: 39

 iSCC Total electronic   Diff electronic      SCC error    
    1   -0.19433929E+03    0.00000000E+00    0.12962303E-02
    2   -0.19434103E+03   -0.17414701E-02    0.61272970E-03
    3   -0.19434104E+03   -0.19789348E-05    0.17289276E-03
    4   -0.19434104E+03   -0.44885837E-06    0.27571579E-04
    5   -0.19434104E+03   -0.65657275E-08    0.75154455E-05
    6   -0.19434104E+03   -0.59122840E-09    0.16378223E-05
    7   -0.19434104E+03   -0.16314061E-10    0.26242594E-06
    8   -0.19434104E+03   -0.28421709E-12    0.76296887E-07
    9   -0.19434104E+03   -0.11368684E-12    0.19538283E-07
   10   -0.19434104E+03    0.28421709E-13    0.25871341E-08

Total Energy:                     -192.3756266432 H        -5234.8071 eV
Extrapolated to 0K:               -192.3756266432 H        -5234.8071 eV
Total Mermin free energy:         -192.3756266432 H        -5234.8071 eV
Force related energy:             -192.3756266432 H        -5234.8071 eV

Volume:                              0.100558E+05 au^3   0.149011E+04 A^3
Pressure:                            0.224059E-05 au     0.659204E+08 Pa
>> Charges saved for restart in charges.bin

total energy  -1.9237563E+02 H       energy change -1.2147574E-04 H
gradient norm  8.2082415E-03 H/a0    max. gradient  1.9713842E-03 H/a0
step length    6.7272860E-02 a0      max. step      1.2720159E-02 a0

--------------------------------------------------------------------------------

***  Geometry step: 40

 iSCC Total electronic   Diff electronic      SCC error    
    1   -0.19434104E+03    0.00000000E+00    0.17458901E-02
    2   -0.19434285E+03   -0.18087069E-02    0.95301023E-03
    3   -0.19434285E+03   -0.23656229E-05    0.23715244E-03
    4   -0.19434285E+03   -0.54837787E-06    0.35601007E-04
    5   -0.19434285E+03   -0.73435729E-08    0.63857821E-05
    6   -0.19434285E+03   -0.57326588E-09    0.13822123E-05
    7   -0.19434285E+03   -0.18587798E-10    0.30661376E-06
    8   -0.19434285E+03   -0.51159077E-12    0.99087392E-07
    9   -0.19434285E+03   -0.56843419E-13    0.23833734E-07
   10   -0.19434285E+03    0.00000000E+00    0.27888802E-08

Total Energy:                     -192.3757339948 H        -5234.8101 eV
Extrapolated to 0K:               -192.3757339948 H        -5234.8101 eV
Total Mermin free energy:         -192.3757339948 H        -5234.8101 eV
Force related energy:             -192.3757339948 H        -5234.8101 eV

Volume:                              0.100576E+05 au^3   0.149038E+04 A^3
Pressure:                            0.261999E-05 au     0.770829E+08 Pa
>> Charges saved for restart in charges.bin

total energy  -1.9237573E+02 H       energy change -1.0735157E-04 H
gradient norm  7.6035207E-03 H/a0    max. gradient  2.0554409E-03 H/a0
step length    6.3042338E-02 a0      max. step      1.2401428E-02 a0

--------------------------------------------------------------------------------

***  Geometry step: 41

 iSCC Total electronic   Diff electronic      SCC error    
    1   -0.19434285E+03    0.00000000E+00    0.16509836E-02
    2   -0.19434359E+03   -0.74275708E-03    0.94818837E-03
    3   -0.19434359E+03   -0.18617989E-05    0.22273713E-03
    4   -0.19434359E+03   -0.43959693E-06    0.30561316E-04
    5   -0.19434359E+03   -0.53197198E-08    0.60250371E-05
    6   -0.19434359E+03   -0.43738169E-09    0.12771068E-05
    7   -0.19434359E+03   -0.11880275E-10    0.26302497E-06
    8   -0.19434359E+03   -0.36948222E-12    0.89673371E-07
    9   -0.19434359E+03   -0.28421709E-13    0.21643193E-07
   10   -0.19434359E+03   -0.56843419E-13    0.22881594E-08

Total Energy:                     -192.3758191511 H        -5234.8124 eV
Extrapolated to 0K:               -192.3758191511 H        -5234.8124 eV
Total Mermin free energy:         -192.3758191511 H        -5234.8124 eV
Force related energy:             -192.3758191511 H        -5234.8124 eV

Volume:                              0.100603E+05 au^3   0.149079E+04 A^3
Pressure:                            0.247963E-05 au     0.729531E+08 Pa
>> Charges saved for restart in charges.bin

total energy  -1.9237582E+02 H       energy change -8.5156350E-05 H
gradient norm  7.2052953E-03 H/a0    max. gradient  1.6849465E-03 H/a0
step length    5.6383297E-02 a0      max. step      1.1427665E-02 a0

--------------------------------------------------------------------------------

***  Geometry step: 42

 iSCC Total electronic   Diff electronic      SCC error    
    1   -0.19434359E+03    0.00000000E+00    0.14151092E-02
    2   -0.19434435E+03   -0.76133581E-03    0.79800546E-03
    3   -0.19434436E+03   -0.17099826E-05    0.19662096E-03
    4   -0.19434436E+03   -0.39191815E-06    0.26188760E-04
    5   -0.19434436E+03   -0.48894435E-08    0.57099267E-05
    6   -0.19434436E+03   -0.41544013E-09    0.14741016E-05
    7   -0.19434436E+03   -0.90381036E-11    0.26972685E-06
    8   -0.19434436E+03   -0.36948222E-12    0.80292994E-07
    9   -0.19434436E+03   -0.28421709E-13    0.18601461E-07
   10   -0.19434436E+03    0.28421709E-13    0.16745640E-08

Total Energy:                     -192.3759033585 H        -5234.8147 eV
Extrapolated to 0K:               -192.3759033585 H        -5234.8147 eV
Total Mermin free energy:         -192.3759033585 H        -5234.8147 eV
Force related energy:             -192.3759033585 H        -5234.8147 eV

Volume:                              0.100633E+05 au^3   0.149122E+04 A^3
Pressure:                            0.247834E-05 au     0.729151E+08 Pa
>> Charges saved for restart in charges.bin

total energy  -1.9237590E+02 H       energy change -8.4207371E-05 H
gradient norm  6.8543564E-03 H/a0    max. gradient  1.3325013E-03 H/a0
step length    5.7802952E-02 a0      max. step      1.2388271E-02 a0

--------------------------------------------------------------------------------

***  Geometry step: 43

 iSCC Total electronic   Diff electronic      SCC error    
    1   -0.19434436E+03    0.00000000E+00    0.14056419E-02
    2   -0.19434435E+03    0.64539051E-05    0.54176131E-03
    3   -0.19434435E+03   -0.16395624E-05    0.14655586E-03
    4   -0.19434435E+03   -0.34557888E-06    0.32611014E-04
    5   -0.19434435E+03   -0.43504542E-08    0.43360743E-05
    6   -0.19434435E+03   -0.38110670E-09    0.12247877E-05
    7   -0.19434435E+03   -0.87538865E-11    0.26506576E-06
    8   -0.19434435E+03   -0.25579538E-12    0.57999694E-07
    9   -0.19434435E+03    0.11368684E-12    0.13228338E-07
   10   -0.19434435E+03   -0.11368684E-12    0.17357129E-08

Total Energy:                     -192.3759870612 H        -5234.8170 eV
Extrapolated to 0K:               -192.3759870612 H        -5234.8170 eV
Total Mermin free energy:         -192.3759870612 H        -5234.8170 eV
Force related energy:             -192.3759870612 H        -5234.8170 eV

Volume:                              0.100671E+05 au^3   0.149179E+04 A^3
Pressure:                            0.209904E-05 au     0.617560E+08 Pa
>> Charges saved for restart in charges.bin

total energy  -1.9237599E+02 H       energy change -8.3702718E-05 H
gradient norm  7.3034320E-03 H/a0    max. gradient  1.5848544E-03 H/a0
step length    5.8570951E-02 a0      max. step      1.3118053E-02 a0

--------------------------------------------------------------------------------

***  Geometry step: 44

 iSCC Total electronic   Diff electronic      SCC error    
    1   -0.19434435E+03    0.00000000E+00    0.16548800E-02
    2   -0.19434427E+03    0.83486323E-04    0.65049617E-03
    3   -0.19434427E+03   -0.20283235E-05    0.17132856E-03
    4   -0.19434427E+03   -0.41546852E-06    0.30819382E-04
    5   -0.19434427E+03   -0.42014676E-08    0.40873189E-05
    6   -0.19434427E+03   -0.38610892E-09    0.70142262E-06
    7   -0.19434427E+03   -0.84696694E-11    0.22987272E-06
    8   -0.19434427E+03   -0.56843419E-13    0.53504167E-07
    9   -0.19434427E+03    0.00000000E+00    0.84574450E-08

Total Energy:                     -192.3760808683 H        -5234.8195 eV
Extrapolated to 0K:               -192.3760808683 H        -5234.8195 eV
Total Mermin free energy:         -192.3760808683 H        -5234.8195 eV
Force related energy:             -192.3760808683 H        -5234.8195 eV

Volume:                              0.100718E+05 au^3   0.149249E+04 A^3
Pressure:                            0.162727E-05 au     0.478758E+08 Pa
>> Charges saved for restart in charges.bin

total energy  -1.9237608E+02 H       energy change -9.3807094E-05 H
gradient norm  7.8277671E-03 H/a0    max. gradient  2.3419698E-03 H/a0
step length    6.6490933E-02 a0      max. step      1.5422275E-02 a0

--------------------------------------------------------------------------------

***  Geometry step: 45

 iSCC Total electronic   Diff electronic      SCC error    
    1   -0.19434427E+03    0.00000000E+00    0.15291077E-02
    2   -0.19434389E+03    0.37735808E-03    0.60674028E-03
    3   -0.19434390E+03   -0.16728372E-05    0.15307376E-03
    4   -0.19434390E+03   -0.35846915E-06    0.25641932E-04
    5   -0.19434390E+03   -0.38355950E-08    0.47012720E-05
    6   -0.19434390E+03   -0.31630520E-09    0.12683419E-05
    7   -0.19434390E+03   -0.94075858E-11    0.27715397E-06
    8   -0.19434390E+03   -0.22737368E-12    0.52766040E-07
    9   -0.19434390E+03   -0.56843419E-13    0.13125201E-07
   10   -0.19434390E+03    0.00000000E+00    0.17572375E-08

Total Energy:                     -192.3761699516 H        -5234.8219 eV
Extrapolated to 0K:               -192.3761699516 H        -5234.8219 eV
Total Mermin free energy:         -192.3761699516 H        -5234.8219 eV
Force related energy:             -192.3761699516 H        -5234.8219 eV

Volume:                              0.100772E+05 au^3   0.149329E+04 A^3
Pressure:                            0.102663E-05 au     0.302044E+08 Pa
>> Charges saved for restart in charges.bin

total energy  -1.9237617E+02 H       energy change -8.9083250E-05 H
gradient norm  7.3185981E-03 H/a0    max. gradient  1.8667875E-03 H/a0
step length    6.7498698E-02 a0      max. step      1.5875672E-02 a0

--------------------------------------------------------------------------------

***  Geometry step: 46

 iSCC Total electronic   Diff electronic      SCC error    
    1   -0.19434390E+03    0.00000000E+00    0.11212231E-02
    2   -0.19434396E+03   -0.68050107E-04    0.53957095E-03
    3   -0.19434397E+03   -0.15008406E-05    0.15461492E-03
    4   -0.19434397E+03   -0.34788579E-06    0.22837374E-04
    5   -0.19434397E+03   -0.46292143E-08    0.60189741E-05
    6   -0.19434397E+03   -0.33784886E-09    0.12904926E-05
    7   -0.19434397E+03   -0.80433438E-11    0.20428245E-06
    8   -0.19434397E+03   -0.19895197E-12    0.62045915E-07
    9   -0.19434397E+03    0.00000000E+00    0.17120428E-07
   10   -0.19434397E+03   -0.85265128E-13    0.14255788E-08

Total Energy:                     -192.3762532103 H        -5234.8242 eV
Extrapolated to 0K:               -192.3762532103 H        -5234.8242 eV
Total Mermin free energy:         -192.3762532103 H        -5234.8242 eV
Force related energy:             -192.3762532103 H        -5234.8242 eV

Volume:                              0.100824E+05 au^3   0.149405E+04 A^3
Pressure:                            0.682582E-06 au     0.200822E+08 Pa
>> Charges saved for restart in charges.bin

total energy  -1.9237625E+02 H       energy change -8.3258761E-05 H
gradient norm  6.4332198E-03 H/a0    max. gradient  1.4220703E-03 H/a0
step length    6.7752722E-02 a0      max. step      1.6139377E-02 a0

--------------------------------------------------------------------------------

***  Geometry step: 47

 iSCC Total electronic   Diff electronic      SCC error    
    1   -0.19434397E+03    0.00000000E+00    0.10085283E-02
    2   -0.19434405E+03   -0.88340156E-04    0.43958465E-03
    3   -0.19434406E+03   -0.11051858E-05    0.12878339E-03
    4   -0.19434406E+03   -0.26816721E-06    0.15769188E-04
    5   -0.19434406E+03   -0.37425139E-08    0.46454343E-05
    6   -0.19434406E+03   -0.25499958E-09    0.66708820E-06
    7   -0.19434406E+03   -0.29274361E-11    0.18153069E-06
    8   -0.19434406E+03   -0.11368684E-12    0.40469502E-07
    9   -0.19434406E+03    0.11368684E-12    0.85420000E-08

Total Energy:                     -192.3763228341 H        -5234.8261 eV
Extrapolated to 0K:               -192.3763228341 H        -5234.8261 eV
Total Mermin free energy:         -192.3763228341 H        -5234.8261 eV
Force related energy:             -192.3763228341 H        -5234.8261 eV

Volume:                              0.100866E+05 au^3   0.149468E+04 A^3
Pressure:                            0.196818E-06 au     0.579058E+07 Pa
>> Charges saved for restart in charges.bin

total energy  -1.9237632E+02 H       energy change -6.9623801E-05 H
gradient norm  6.4118302E-03 H/a0    max. gradient  1.2045259E-03 H/a0
step length    6.1359033E-02 a0      max. step      1.4749403E-02 a0

--------------------------------------------------------------------------------

***  Geometry step: 48

 iSCC Total electronic   Diff electronic      SCC error    
    1   -0.19434406E+03    0.00000000E+00    0.92886418E-03
    2   -0.19434524E+03   -0.11890282E-02    0.43493412E-03
    3   -0.19434525E+03   -0.92521131E-06    0.12896409E-03
    4   -0.19434525E+03   -0.22008612E-06    0.14144741E-04
    5   -0.19434525E+03   -0.42829242E-08    0.45860681E-05
    6   -0.19434525E+03   -0.24800784E-09    0.66172208E-06
    7   -0.19434525E+03   -0.28990144E-11    0.18986565E-06
    8   -0.19434525E+03   -0.11368684E-12    0.42678594E-07
    9   -0.19434525E+03    0.00000000E+00    0.10230281E-07
   10   -0.19434525E+03    0.00000000E+00    0.83521190E-09

Total Energy:                     -192.3763950479 H        -5234.8281 eV
Extrapolated to 0K:               -192.3763950479 H        -5234.8281 eV
Total Mermin free energy:         -192.3763950479 H        -5234.8281 eV
Force related energy:             -192.3763950479 H        -5234.8281 eV

Volume:                              0.100892E+05 au^3   0.149506E+04 A^3
Pressure:                            0.202386E-06 au     0.595441E+07 Pa
>> Charges saved for restart in charges.bin

total energy  -1.9237640E+02 H       energy change -7.2213737E-05 H
gradient norm  6.8229963E-03 H/a0    max. gradient  1.4467777E-03 H/a0
step length    6.0253175E-02 a0      max. step      1.4733733E-02 a0

--------------------------------------------------------------------------------

***  Geometry step: 49

 iSCC Total electronic   Diff electronic      SCC error    
    1   -0.19434525E+03    0.00000000E+00    0.10704945E-02
    2   -0.19434680E+03   -0.15565743E-02    0.63431260E-03
    3   -0.19434680E+03   -0.12514361E-05    0.16280587E-03
    4   -0.19434680E+03   -0.26622598E-06    0.22046479E-04
    5   -0.19434680E+03   -0.57335399E-08    0.77365038E-05
    6   -0.19434680E+03   -0.33443825E-09    0.95601853E-06
    7   -0.19434680E+03   -0.41211479E-11    0.21753674E-06
    8   -0.19434680E+03   -0.28421709E-12    0.69085646E-07
    9   -0.19434680E+03    0.28421709E-13    0.16528249E-07
   10   -0.19434680E+03   -0.17053026E-12    0.13794983E-08

Total Energy:                     -192.3764743125 H        -5234.8302 eV
Extrapolated to 0K:               -192.3764743125 H        -5234.8302 eV
Total Mermin free energy:         -192.3764743125 H        -5234.8302 eV
Force related energy:             -192.3764743125 H        -5234.8302 eV

Volume:                              0.100910E+05 au^3   0.149533E+04 A^3
Pressure:                            0.481028E-06 au     0.141523E+08 Pa
>> Charges saved for restart in charges.bin

total energy  -1.9237647E+02 H       energy change -7.9264662E-05 H
gradient norm  6.8393439E-03 H/a0    max. gradient  1.4290407E-03 H/a0
step length    6.7243664E-02 a0      max. step      1.6415195E-02 a0

--------------------------------------------------------------------------------

***  Geometry step: 50

 iSCC Total electronic   Diff electronic      SCC error    
    1   -0.19434680E+03    0.00000000E+00    0.13877746E-02
    2   -0.19434734E+03   -0.53450696E-03    0.54140328E-03
    3   -0.19434734E+03   -0.83394141E-06    0.16135974E-03
    4   -0.19434734E+03   -0.15902765E-06    0.19443583E-04
    5   -0.19434734E+03   -0.31249954E-08    0.44893878E-05
    6   -0.19434734E+03   -0.22362201E-09    0.55630757E-06
    7   -0.19434734E+03   -0.24442670E-11    0.19912241E-06
    8   -0.19434734E+03   -0.28421709E-13    0.43554399E-07
    9   -0.19434734E+03   -0.85265128E-13    0.88190757E-08

Total Energy:                     -192.3765390672 H        -5234.8320 eV
Extrapolated to 0K:               -192.3765390672 H        -5234.8320 eV
Total Mermin free energy:         -192.3765390672 H        -5234.8320 eV
Force related energy:             -192.3765390672 H        -5234.8320 eV

Volume:                              0.100922E+05 au^3   0.149551E+04 A^3
Pressure:                            0.456094E-06 au     0.134187E+08 Pa
>> Charges saved for restart in charges.bin

total energy  -1.9237654E+02 H       energy change -6.4754676E-05 H
gradient norm  6.6319774E-03 H/a0    max. gradient  1.5005136E-03 H/a0
step length    5.3080928E-02 a0      max. step      1.3010907E-02 a0

--------------------------------------------------------------------------------

***  Geometry step: 51

 iSCC Total electronic   Diff electronic      SCC error    
    1   -0.19434734E+03    0.00000000E+00    0.24793824E-02
    2   -0.19434788E+03   -0.53593410E-03    0.94162452E-03
    3   -0.19434788E+03   -0.18854419E-05    0.21747582E-03
    4   -0.19434788E+03   -0.37234176E-06    0.31570003E-04
    5   -0.19434788E+03   -0.61475589E-08    0.27639749E-05
    6   -0.19434788E+03   -0.56760996E-09    0.55440347E-06
    7   -0.19434788E+03   -0.52580162E-11    0.25617248E-06
    8   -0.19434788E+03   -0.28421709E-13    0.42078959E-07
    9   -0.19434788E+03   -0.56843419E-13    0.96679025E-08

Total Energy:                     -192.3766210058 H        -5234.8342 eV
Extrapolated to 0K:               -192.3766210058 H        -5234.8342 eV
Total Mermin free energy:         -192.3766210058 H        -5234.8342 eV
Force related energy:             -192.3766210058 H        -5234.8342 eV

Volume:                              0.100930E+05 au^3   0.149563E+04 A^3
Pressure:                            0.533398E-06 au     0.156931E+08 Pa
>> Charges saved for restart in charges.bin

total energy  -1.9237662E+02 H       energy change -8.1938614E-05 H
gradient norm  6.3645032E-03 H/a0    max. gradient  1.4506274E-03 H/a0
step length    6.6292526E-02 a0      max. step      1.5751671E-02 a0

--------------------------------------------------------------------------------

***  Geometry step: 52

 iSCC Total electronic   Diff electronic      SCC error    
    1   -0.19434788E+03    0.00000000E+00    0.20434755E-02
    2   -0.19434774E+03    0.13363492E-03    0.75436859E-03
    3   -0.19434775E+03   -0.17653235E-05    0.18092873E-03
    4   -0.19434775E+03   -0.36209627E-06    0.27883932E-04
    5   -0.19434775E+03   -0.54648694E-08    0.19350200E-05
[...]
    6   -0.19434099E+03   -0.10743406E-10    0.74677982E-07
    7   -0.19434099E+03   -0.22737368E-12    0.17528774E-07
    8   -0.19434099E+03    0.85265128E-13    0.40432142E-08

Total Energy:                     -192.3790159297 H        -5234.8994 eV
Extrapolated to 0K:               -192.3790159297 H        -5234.8994 eV
Total Mermin free energy:         -192.3790159297 H        -5234.8994 eV
Force related energy:             -192.3790159297 H        -5234.8994 eV

Volume:                              0.998650E+04 au^3   0.147985E+04 A^3
Pressure:                           -0.706152E-07 au    -0.207757E+07 Pa
>> Charges saved for restart in charges.bin

total energy  -1.9237902E+02 H       energy change -9.9272836E-07 H
gradient norm  7.4894432E-04 H/a0    max. gradient  2.0269809E-04 H/a0
step length    4.5918214E-03 a0      max. step      1.0073227E-03 a0

--------------------------------------------------------------------------------

***  Geometry step: 178

 iSCC Total electronic   Diff electronic      SCC error    
    1   -0.19434099E+03    0.00000000E+00    0.18845037E-03
    2   -0.19434100E+03   -0.37650141E-05    0.81696131E-04
    3   -0.19434100E+03   -0.19664327E-07    0.19408603E-04
    4   -0.19434100E+03   -0.41082728E-08    0.23592059E-05
    5   -0.19434100E+03   -0.66222583E-10    0.46231673E-06
    6   -0.19434100E+03   -0.43200998E-11    0.85326979E-07
    7   -0.19434100E+03   -0.11368684E-12    0.11065179E-07
    8   -0.19434100E+03    0.28421709E-13    0.28587994E-08

Total Energy:                     -192.3790169081 H        -5234.8994 eV
Extrapolated to 0K:               -192.3790169081 H        -5234.8994 eV
Total Mermin free energy:         -192.3790169081 H        -5234.8994 eV
Force related energy:             -192.3790169081 H        -5234.8994 eV

Volume:                              0.998671E+04 au^3   0.147988E+04 A^3
Pressure:                           -0.111309E-06 au    -0.327483E+07 Pa
>> Charges saved for restart in charges.bin

total energy  -1.9237902E+02 H       energy change -9.7842025E-07 H
gradient norm  7.9607681E-04 H/a0    max. gradient  2.4567124E-04 H/a0
step length    1.4364205E-02 a0      max. step      3.0430836E-03 a0

--------------------------------------------------------------------------------

***  Geometry step: 179

 iSCC Total electronic   Diff electronic      SCC error    
    1   -0.19434100E+03    0.00000000E+00    0.89146855E-04
    2   -0.19434102E+03   -0.20971121E-04    0.43443958E-04
    3   -0.19434102E+03   -0.73387412E-08    0.11111315E-04
    4   -0.19434102E+03   -0.14553336E-08    0.17276223E-05
    5   -0.19434102E+03   -0.17507773E-10    0.22145698E-06
    6   -0.19434102E+03   -0.15631940E-11    0.60614547E-07
    7   -0.19434102E+03   -0.56843419E-13    0.56750249E-08

Total Energy:                     -192.3790176008 H        -5234.8994 eV
Extrapolated to 0K:               -192.3790176008 H        -5234.8994 eV
Total Mermin free energy:         -192.3790176008 H        -5234.8994 eV
Force related energy:             -192.3790176008 H        -5234.8994 eV

Volume:                              0.998670E+04 au^3   0.147988E+04 A^3
Pressure:                           -0.123523E-06 au    -0.363418E+07 Pa
>> Charges saved for restart in charges.bin

total energy  -1.9237902E+02 H       energy change -6.9269822E-07 H
gradient norm  7.0011920E-04 H/a0    max. gradient  2.4720513E-04 H/a0
step length    3.0316491E-03 a0      max. step      8.2418192E-04 a0

--------------------------------------------------------------------------------

***  Geometry step: 180

 iSCC Total electronic   Diff electronic      SCC error    
    1   -0.19434102E+03    0.00000000E+00    0.20505723E-03
    2   -0.19434119E+03   -0.17354367E-03    0.91994837E-04
    3   -0.19434119E+03   -0.40339927E-07    0.21066456E-04
    4   -0.19434119E+03   -0.82809777E-08    0.30960717E-05
    5   -0.19434119E+03   -0.10095391E-09    0.75034098E-06
    6   -0.19434119E+03   -0.87254648E-11    0.18906063E-06
    7   -0.19434119E+03   -0.19895197E-12    0.15817116E-07
    8   -0.19434119E+03    0.00000000E+00    0.58417191E-08

Total Energy:                     -192.3790188051 H        -5234.8995 eV
Extrapolated to 0K:               -192.3790188051 H        -5234.8995 eV
Total Mermin free energy:         -192.3790188051 H        -5234.8995 eV
Force related energy:             -192.3790188051 H        -5234.8995 eV

Volume:                              0.998651E+04 au^3   0.147985E+04 A^3
Pressure:                           -0.517345E-07 au    -0.152208E+07 Pa
>> Charges saved for restart in charges.bin

total energy  -1.9237902E+02 H       energy change -1.2042939E-06 H
gradient norm  5.8541073E-04 H/a0    max. gradient  1.2852751E-04 H/a0
step length    8.5300519E-03 a0      max. step      2.6953803E-03 a0

--------------------------------------------------------------------------------

***  Geometry step: 181

 iSCC Total electronic   Diff electronic      SCC error    
    1   -0.19434119E+03    0.00000000E+00    0.51811744E-04
    2   -0.19434130E+03   -0.11086661E-03    0.33339257E-04
    3   -0.19434130E+03   -0.35859387E-08    0.98712398E-05
    4   -0.19434130E+03   -0.96198960E-09    0.89551469E-06
    5   -0.19434130E+03   -0.18900437E-10    0.98998910E-07
    6   -0.19434130E+03   -0.88107299E-12    0.23539600E-07
    7   -0.19434130E+03    0.00000000E+00    0.50062203E-08

Total Energy:                     -192.3790191968 H        -5234.8995 eV
Extrapolated to 0K:               -192.3790191968 H        -5234.8995 eV
Total Mermin free energy:         -192.3790191968 H        -5234.8995 eV
Force related energy:             -192.3790191968 H        -5234.8995 eV

Volume:                              0.998637E+04 au^3   0.147983E+04 A^3
Pressure:                           -0.256782E-07 au    -0.755478E+06 Pa
>> Charges saved for restart in charges.bin

total energy  -1.9237902E+02 H       energy change -3.9165209E-07 H
gradient norm  5.1774794E-04 H/a0    max. gradient  1.2565606E-04 H/a0
step length    1.1953814E-03 a0      max. step      2.5223379E-04 a0

--------------------------------------------------------------------------------

***  Geometry step: 182

 iSCC Total electronic   Diff electronic      SCC error    
    1   -0.19434130E+03    0.00000000E+00    0.22816214E-03
    2   -0.19434134E+03   -0.42674115E-04    0.14170345E-03
    3   -0.19434134E+03   -0.26071774E-07    0.42833447E-04
    4   -0.19434134E+03   -0.60090883E-08    0.34126251E-05
    5   -0.19434134E+03   -0.13017143E-09    0.32266268E-06
    6   -0.19434134E+03   -0.94360075E-11    0.71764769E-07
    7   -0.19434134E+03   -0.17053026E-12    0.12549910E-07
    8   -0.19434134E+03    0.56843419E-13    0.41321733E-08

Total Energy:                     -192.3790202014 H        -5234.8995 eV
Extrapolated to 0K:               -192.3790202014 H        -5234.8995 eV
Total Mermin free energy:         -192.3790202014 H        -5234.8995 eV
Force related energy:             -192.3790202014 H        -5234.8995 eV

Volume:                              0.998557E+04 au^3   0.147971E+04 A^3
Pressure:                            0.137329E-07 au     0.404036E+06 Pa
>> Charges saved for restart in charges.bin

total energy  -1.9237902E+02 H       energy change -1.0046509E-06 H
gradient norm  6.0632634E-04 H/a0    max. gradient  1.2373151E-04 H/a0
step length    1.3928700E-02 a0      max. step      3.3638033E-03 a0

--------------------------------------------------------------------------------

***  Geometry step: 183

 iSCC Total electronic   Diff electronic      SCC error    
    1   -0.19434134E+03    0.00000000E+00    0.84331171E-04
    2   -0.19434140E+03   -0.59992029E-04    0.34702409E-04
    3   -0.19434140E+03   -0.58415992E-08    0.10036508E-04
    4   -0.19434140E+03   -0.12064731E-08    0.10171554E-05
    5   -0.19434140E+03   -0.17763568E-10    0.31200533E-06
    6   -0.19434140E+03   -0.14210855E-11    0.35057377E-07
    7   -0.19434140E+03    0.00000000E+00    0.38383994E-08

Total Energy:                     -192.3790206554 H        -5234.8995 eV
Extrapolated to 0K:               -192.3790206554 H        -5234.8995 eV
Total Mermin free energy:         -192.3790206554 H        -5234.8995 eV
Force related energy:             -192.3790206554 H        -5234.8995 eV

Volume:                              0.998544E+04 au^3   0.147969E+04 A^3
Pressure:                            0.298754E-07 au     0.878965E+06 Pa
>> Charges saved for restart in charges.bin

total energy  -1.9237902E+02 H       energy change -4.5394873E-07 H
gradient norm  5.6156230E-04 H/a0    max. gradient  1.7599364E-04 H/a0
step length    2.1606177E-03 a0      max. step      4.7056111E-04 a0

--------------------------------------------------------------------------------

***  Geometry step: 184

 iSCC Total electronic   Diff electronic      SCC error    
    1   -0.19434140E+03    0.00000000E+00    0.16588204E-03
    2   -0.19434142E+03   -0.19311165E-04    0.68115532E-04
    3   -0.19434142E+03   -0.18580380E-07    0.19556949E-04
    4   -0.19434142E+03   -0.35310563E-08    0.20851063E-05
    5   -0.19434142E+03   -0.44650506E-10    0.50632917E-06
    6   -0.19434142E+03   -0.28705927E-11    0.77035001E-07
    7   -0.19434142E+03    0.00000000E+00    0.88211478E-08

Total Energy:                     -192.3790213115 H        -5234.8995 eV
Extrapolated to 0K:               -192.3790213115 H        -5234.8995 eV
Total Mermin free energy:         -192.3790213115 H        -5234.8995 eV
Force related energy:             -192.3790213115 H        -5234.8995 eV

Volume:                              0.998527E+04 au^3   0.147966E+04 A^3
Pressure:                            0.475408E-07 au     0.139870E+07 Pa
>> Charges saved for restart in charges.bin

total energy  -1.9237902E+02 H       energy change -6.5615325E-07 H
gradient norm  5.3119746E-04 H/a0    max. gradient  1.3378430E-04 H/a0
step length    4.5856160E-03 a0      max. step      1.1007346E-03 a0

--------------------------------------------------------------------------------

***  Geometry step: 185

 iSCC Total electronic   Diff electronic      SCC error    
    1   -0.19434142E+03    0.00000000E+00    0.20504158E-03
    2   -0.19434123E+03    0.19325919E-03    0.83513523E-04
    3   -0.19434123E+03   -0.40292292E-07    0.15112669E-04
    4   -0.19434123E+03   -0.75978051E-08    0.30589535E-05
    5   -0.19434123E+03   -0.68439476E-10    0.45273389E-06
    6   -0.19434123E+03   -0.52011728E-11    0.10710599E-06
    7   -0.19434123E+03   -0.56843419E-13    0.12621087E-07
    8   -0.19434123E+03    0.85265128E-13    0.54109583E-08

Total Energy:                     -192.3790222023 H        -5234.8995 eV
Extrapolated to 0K:               -192.3790222023 H        -5234.8995 eV
Total Mermin free energy:         -192.3790222023 H        -5234.8995 eV
Force related energy:             -192.3790222023 H        -5234.8995 eV

Volume:                              0.998420E+04 au^3   0.147951E+04 A^3
Pressure:                            0.247507E-07 au     0.728189E+06 Pa
>> Charges saved for restart in charges.bin

total energy  -1.9237902E+02 H       energy change -8.9081436E-07 H
gradient norm  6.8506050E-04 H/a0    max. gradient  1.4988435E-04 H/a0
step length    2.4964454E-02 a0      max. step      5.9402745E-03 a0

--------------------------------------------------------------------------------

***  Geometry step: 186

 iSCC Total electronic   Diff electronic      SCC error    
    1   -0.19434123E+03    0.00000000E+00    0.57725275E-04
    2   -0.19434117E+03    0.60335742E-04    0.25314283E-04
    3   -0.19434117E+03   -0.37242671E-08    0.84053168E-05
    4   -0.19434117E+03   -0.87825924E-09    0.11569997E-05
    5   -0.19434117E+03   -0.10260237E-10    0.21636927E-06
    6   -0.19434117E+03   -0.12789769E-11    0.53636086E-07
    7   -0.19434117E+03    0.56843419E-13    0.48379576E-08

Total Energy:                     -192.3790226425 H        -5234.8996 eV
Extrapolated to 0K:               -192.3790226425 H        -5234.8996 eV
Total Mermin free energy:         -192.3790226425 H        -5234.8996 eV
Force related energy:             -192.3790226425 H        -5234.8996 eV

Volume:                              0.998420E+04 au^3   0.147951E+04 A^3
Pressure:                           -0.121142E-07 au    -0.356411E+06 Pa
>> Charges saved for restart in charges.bin

total energy  -1.9237902E+02 H       energy change -4.4013834E-07 H
gradient norm  5.6745967E-04 H/a0    max. gradient  1.1981040E-04 H/a0
step length    1.1206632E-03 a0      max. step      2.3691353E-04 a0

--------------------------------------------------------------------------------

***  Geometry step: 187

 iSCC Total electronic   Diff electronic      SCC error    
    1   -0.19434117E+03    0.00000000E+00    0.17175063E-03
    2   -0.19434117E+03   -0.30257354E-07    0.77483158E-04
    3   -0.19434117E+03   -0.29689630E-07    0.22543165E-04
    4   -0.19434117E+03   -0.68231714E-08    0.30443501E-05
    5   -0.19434117E+03   -0.89158902E-10    0.58560771E-06
    6   -0.19434117E+03   -0.77591267E-11    0.15235015E-06
    7   -0.19434117E+03   -0.11368684E-12    0.12671907E-07
    8   -0.19434117E+03    0.00000000E+00    0.46138848E-08

Total Energy:                     -192.3790236646 H        -5234.8996 eV
Extrapolated to 0K:               -192.3790236646 H        -5234.8996 eV
Total Mermin free energy:         -192.3790236646 H        -5234.8996 eV
Force related energy:             -192.3790236646 H        -5234.8996 eV

Volume:                              0.998397E+04 au^3   0.147947E+04 A^3
Pressure:                            0.138487E-07 au     0.407444E+06 Pa
>> Charges saved for restart in charges.bin

total energy  -1.9237902E+02 H       energy change -1.0221618E-06 H
gradient norm  6.5827726E-04 H/a0    max. gradient  2.0389351E-04 H/a0
step length    5.6577397E-03 a0      max. step      1.1756968E-03 a0

--------------------------------------------------------------------------------

***  Geometry step: 188

 iSCC Total electronic   Diff electronic      SCC error    
    1   -0.19434117E+03    0.00000000E+00    0.17921894E-03
    2   -0.19434119E+03   -0.20659575E-04    0.74953809E-04
    3   -0.19434119E+03   -0.11171807E-07    0.14000283E-04
    4   -0.19434119E+03   -0.23058533E-08    0.24020206E-05
    5   -0.19434119E+03   -0.26631142E-10    0.22811549E-06
    6   -0.19434119E+03   -0.27284841E-11    0.71836324E-07
    7   -0.19434119E+03    0.28421709E-13    0.96280410E-08

Total Energy:                     -192.3790241911 H        -5234.8996 eV
Extrapolated to 0K:               -192.3790241911 H        -5234.8996 eV
Total Mermin free energy:         -192.3790241911 H        -5234.8996 eV
Force related energy:             -192.3790241911 H        -5234.8996 eV

Volume:                              0.998360E+04 au^3   0.147942E+04 A^3
Pressure:                            0.326417E-07 au     0.960351E+06 Pa
>> Charges saved for restart in charges.bin

total energy  -1.9237902E+02 H       energy change -5.2646880E-07 H
gradient norm  5.1547413E-04 H/a0    max. gradient  1.6713343E-04 H/a0
step length    6.3488917E-03 a0      max. step      1.5852355E-03 a0

--------------------------------------------------------------------------------

***  Geometry step: 189

 iSCC Total electronic   Diff electronic      SCC error    
    1   -0.19434119E+03    0.00000000E+00    0.69114871E-04
    2   -0.19434118E+03    0.11426696E-04    0.32637666E-04
    3   -0.19434118E+03   -0.45775153E-08    0.10271138E-04
    4   -0.19434118E+03   -0.93930907E-09    0.18184725E-05
    5   -0.19434118E+03   -0.17564616E-10    0.12281596E-06
    6   -0.19434118E+03   -0.15347723E-11    0.39632846E-07
    7   -0.19434118E+03    0.28421709E-13    0.64152852E-08

Total Energy:                     -192.3790244815 H        -5234.8996 eV
Extrapolated to 0K:               -192.3790244815 H        -5234.8996 eV
Total Mermin free energy:         -192.3790244815 H        -5234.8996 eV
Force related energy:             -192.3790244815 H        -5234.8996 eV

Volume:                              0.998353E+04 au^3   0.147941E+04 A^3
Pressure:                            0.232216E-07 au     0.683202E+06 Pa
>> Charges saved for restart in charges.bin

total energy  -1.9237902E+02 H       energy change -2.9036053E-07 H
gradient norm  4.1618641E-04 H/a0    max. gradient  1.7673405E-04 H/a0
step length    1.7504687E-03 a0      max. step      4.5924857E-04 a0

--------------------------------------------------------------------------------

***  Geometry step: 190

 iSCC Total electronic   Diff electronic      SCC error    
    1   -0.19434118E+03    0.00000000E+00    0.15069037E-03
    2   -0.19434127E+03   -0.90560387E-04    0.65525406E-04
    3   -0.19434127E+03   -0.16033056E-07    0.17517742E-04
    4   -0.19434127E+03   -0.30814817E-08    0.23982954E-05
    5   -0.19434127E+03   -0.45560000E-10    0.38277625E-06
    6   -0.19434127E+03   -0.37516656E-11    0.71921481E-07
    7   -0.19434127E+03   -0.85265128E-13    0.87934233E-08

Total Energy:                     -192.3790249557 H        -5234.8996 eV
Extrapolated to 0K:               -192.3790249557 H        -5234.8996 eV
Total Mermin free energy:         -192.3790249557 H        -5234.8996 eV
Force related energy:             -192.3790249557 H        -5234.8996 eV

Volume:                              0.998321E+04 au^3   0.147936E+04 A^3
Pressure:                            0.590431E-07 au     0.173711E+07 Pa
>> Charges saved for restart in charges.bin

total energy  -1.9237902E+02 H       energy change -4.7419348E-07 H
gradient norm  4.4650453E-04 H/a0    max. gradient  1.1646093E-04 H/a0
step length    1.1043036E-02 a0      max. step      3.3899725E-03 a0

--------------------------------------------------------------------------------

***  Geometry step: 191

 iSCC Total electronic   Diff electronic      SCC error    
    1   -0.19434127E+03    0.00000000E+00    0.51476154E-04
    2   -0.19434128E+03   -0.11081404E-04    0.21628506E-04
    3   -0.19434128E+03   -0.16725039E-08    0.65218329E-05
    4   -0.19434128E+03   -0.39668180E-09    0.77259576E-06
    5   -0.19434128E+03   -0.59401373E-11    0.11767510E-06
    6   -0.19434128E+03   -0.68212103E-12    0.25919591E-07
    7   -0.19434128E+03    0.14210855E-12    0.32971763E-08

Total Energy:                     -192.3790251810 H        -5234.8996 eV
Extrapolated to 0K:               -192.3790251810 H        -5234.8996 eV
Total Mermin free energy:         -192.3790251810 H        -5234.8996 eV
Force related energy:             -192.3790251810 H        -5234.8996 eV

Volume:                              0.998321E+04 au^3   0.147936E+04 A^3
Pressure:                            0.650328E-07 au     0.191333E+07 Pa
>> Charges saved for restart in charges.bin

total energy  -1.9237903E+02 H       energy change -2.2532811E-07 H
gradient norm  4.1250857E-04 H/a0    max. gradient  9.6594400E-05 H/a0
step length    7.7425294E-04 a0      max. step      1.9476478E-04 a0

Geometry converged

--------------------------------------------------------------------------------
DFTB+ running times                          cpu [s]             wall clock [s]
--------------------------------------------------------------------------------
Pre-SCC initialisation                 +      16.57 (  1.0%)       2.46 (  1.2%)
SCC                                    +    1489.65 ( 88.1%)     188.23 ( 89.3%)
Post-SCC processing                    +     183.80 ( 10.9%)      20.14 (  9.6%)
--------------------------------------------------------------------------------
Missing                                +       0.07 (  0.0%)       0.01 (  0.0%)
Total                                  =    1690.08 (100.0%)     210.83 (100.0%)
--------------------------------------------------------------------------------
