|===============================================================================
|
|  DFTB+ release 24.1
|
|  Copyright (C) 2006 - 2024  DFTB+ developers group
|
|===============================================================================
|
|  When publishing results obtained with DFTB+, please cite the following
|  reference:
|
|  * DFTB+, a software package for efficient approximate density functional
|    theory based atomistic simulations, J. Chem. Phys. 152, 124101 (2020).
|    [doi: 10.1063/1.5143190]
|
|  You should also cite additional publications crediting the parametrization
|  data you use. Please consult the documentation of the SK-files for the
|  references.
|
|===============================================================================

Reading input file 'dftb_in.hsd'
Parser version: 14

--------------------------------------------------------------------------------
Reading SK-files:
./SKFiles/Ge-Ge.skf
./SKFiles/Ge-Si.skf
./SKFiles/Ge-O.skf
./SKFiles/Si-Si.skf
./SKFiles/Si-O.skf
./SKFiles/O-O.skf
Done.


Processed input in HSD format written to 'dftb_pin.hsd'

Starting initialization...
--------------------------------------------------------------------------------
WARNING!
-> Dipole printed for extended system : value printed is not well defined
MPI processes:               1
OpenMP threads:              8
BLACS orbital grid size:     1 x 1
BLACS atom grid size:        1 x 1
Chosen random seed:          145002450
Current stacksize:           unlimited
Mode:                        Static calculation
Self consistent charges:     Yes
SCC-tolerance:                 0.100000E-07
Max. scc iterations:                    500
Shell resolved Hubbard:      No
Spin polarisation:           No
Nr. of up electrons:           192.000000
Nr. of down electrons:         192.000000
Periodic boundaries:         Yes
Electronic solver:           Relatively robust
Mixer:                       Broyden mixer
Mixing parameter:                  0.200000
Maximal SCC-cycles:                     500
Nr. of chrg. vec. in memory:            500
Electronic temperature:              0.100000E-07 H      0.272114E-06 eV
Initial charges:             Set automatically (system chrg:   0.000E+00)
Included shells:            Ge:  s, p, d
                            Si:  s, p, d
                             O:  s, p
K-points and weights:           1:  0.500000  0.500000  0.500000     1.000000

K-points in absolute space:     1:  0.025319  0.017606  0.037774

Extra options:
                             Mulliken analysis
Force type                   original

--------------------------------------------------------------------------------

***  Geometry step: 0

 iSCC Total electronic   Diff electronic      SCC error    
    1    0.00000000E+00    0.00000000E+00    0.14597332E+01
    2   -0.19480276E+03   -0.19480276E+03    0.99399552E+00
    3   -0.19516916E+03   -0.36640290E+00    0.61335290E-01
    4   -0.19548498E+03   -0.31582180E+00    0.28317877E-01
    5   -0.19548700E+03   -0.20170745E-02    0.79247080E-02
    6   -0.19548714E+03   -0.14580742E-03    0.17177173E-02
    7   -0.19548715E+03   -0.39185956E-05    0.48034363E-03
    8   -0.19548715E+03   -0.11135067E-05    0.63638631E-04
    9   -0.19548715E+03   -0.63714140E-07    0.33506454E-04
   10   -0.19548715E+03   -0.95440100E-10    0.15700106E-05
   11   -0.19548715E+03   -0.22177460E-09    0.44164615E-06
   12   -0.19548715E+03   -0.24442670E-11    0.24304645E-06
   13   -0.19548715E+03    0.00000000E+00    0.20172097E-07
   14   -0.19548715E+03   -0.28421709E-13    0.50614033E-08

Total Energy:                     -191.8772333623 H        -5221.2452 eV
Extrapolated to 0K:               -191.8772333623 H        -5221.2452 eV
Total Mermin free energy:         -191.8772333623 H        -5221.2452 eV
Force related energy:             -191.8772333623 H        -5221.2452 eV

Volume:                              0.913789E+04 au^3   0.135410E+04 A^3
Pressure:                            0.716003E-03 au     0.210655E+11 Pa
>> Charges saved for restart in charges.bin

total energy  -1.9187723E+02 H       energy change -1.9187723E+02 H
gradient norm  9.5249104E-01 H/a0    max. gradient  4.8859014E-01 H/a0
step length    0.0000000E+00 a0      max. step      0.0000000E+00 a0

--------------------------------------------------------------------------------

***  Geometry step: 1

 iSCC Total electronic   Diff electronic      SCC error    
    1   -0.19548715E+03    0.00000000E+00    0.11965858E+00
    2   -0.19509012E+03    0.39702741E+00    0.66637105E-01
    3   -0.19509873E+03   -0.86054601E-02    0.18322863E-01
    4   -0.19510050E+03   -0.17700775E-02    0.10570923E-02
    5   -0.19510052E+03   -0.25459062E-04    0.45699212E-03
    6   -0.19510052E+03   -0.10001737E-05    0.18996169E-03
    7   -0.19510052E+03   -0.61916523E-07    0.24048236E-04
    8   -0.19510052E+03   -0.54106408E-08    0.47073168E-05
    9   -0.19510052E+03   -0.29564262E-09    0.18495195E-05
   10   -0.19510052E+03   -0.40927262E-11    0.49116308E-06
   11   -0.19510052E+03   -0.34106051E-12    0.35727779E-07
   12   -0.19510052E+03    0.00000000E+00    0.87477194E-08

Total Energy:                     -192.0252631630 H        -5225.2733 eV
Extrapolated to 0K:               -192.0252631630 H        -5225.2733 eV
Total Mermin free energy:         -192.0252631630 H        -5225.2733 eV
Force related energy:             -192.0252631630 H        -5225.2733 eV

Volume:                              0.949571E+04 au^3   0.140712E+04 A^3
Pressure:                            0.453540E-03 au     0.133436E+11 Pa
>> Charges saved for restart in charges.bin

total energy  -1.9202526E+02 H       energy change -1.4802980E-01 H
gradient norm  6.2295648E-01 H/a0    max. gradient  2.4767269E-01 H/a0
step length    6.0446818E-01 a0      max. step      3.1006821E-01 a0

--------------------------------------------------------------------------------

***  Geometry step: 2

 iSCC Total electronic   Diff electronic      SCC error    
    1   -0.19510052E+03    0.00000000E+00    0.51610194E-01
    2   -0.19503175E+03    0.68773911E-01    0.20023652E-01
    3   -0.19503450E+03   -0.27508302E-02    0.44870116E-02
    4   -0.19503507E+03   -0.57362164E-03    0.87673353E-03
    5   -0.19503508E+03   -0.51764248E-05    0.16486666E-03
    6   -0.19503508E+03   -0.28547282E-06    0.97419452E-04
    7   -0.19503508E+03   -0.16845348E-07    0.19212451E-04
    8   -0.19503508E+03   -0.18956428E-08    0.13612949E-05
    9   -0.19503508E+03   -0.71423756E-10    0.32962376E-06
   10   -0.19503508E+03   -0.19610980E-11    0.17475596E-06
   11   -0.19503508E+03   -0.28421709E-13    0.23731584E-07
   12   -0.19503508E+03    0.00000000E+00    0.41150505E-08

Total Energy:                     -192.1744904770 H        -5229.3340 eV
Extrapolated to 0K:               -192.1744904770 H        -5229.3340 eV
Total Mermin free energy:         -192.1744904770 H        -5229.3340 eV
Force related energy:             -192.1744904770 H        -5229.3340 eV

Volume:                              0.948668E+04 au^3   0.140578E+04 A^3
Pressure:                            0.377347E-03 au     0.111019E+11 Pa
>> Charges saved for restart in charges.bin

total energy  -1.9217449E+02 H       energy change -1.4922731E-01 H
gradient norm  3.2422255E-01 H/a0    max. gradient  8.0665069E-02 H/a0
step length    3.7535537E-01 a0      max. step      8.0773640E-02 a0

--------------------------------------------------------------------------------

***  Geometry step: 3

 iSCC Total electronic   Diff electronic      SCC error    
    1   -0.19503508E+03    0.00000000E+00    0.66723713E-01
    2   -0.19489797E+03    0.13711377E+00    0.29017232E-01
    3   -0.19490067E+03   -0.27046671E-02    0.67867504E-02
    4   -0.19490126E+03   -0.58819897E-03    0.10500883E-02
    5   -0.19490126E+03   -0.57846819E-05    0.17436590E-03
    6   -0.19490126E+03   -0.51185802E-06    0.14574808E-03
    7   -0.19490126E+03   -0.13338536E-07    0.20984201E-04
    8   -0.19490126E+03   -0.24006113E-08    0.21778999E-05
    9   -0.19490126E+03   -0.91233687E-10    0.50240610E-06
   10   -0.19490126E+03   -0.25295321E-11    0.20798508E-06
   11   -0.19490126E+03    0.00000000E+00    0.26866585E-07
   12   -0.19490126E+03    0.28421709E-13    0.39346246E-08

Total Energy:                     -192.2552000797 H        -5231.5302 eV
Extrapolated to 0K:               -192.2552000797 H        -5231.5302 eV
Total Mermin free energy:         -192.2552000797 H        -5231.5302 eV
Force related energy:             -192.2552000797 H        -5231.5302 eV

Volume:                              0.951258E+04 au^3   0.140962E+04 A^3
Pressure:                            0.300906E-03 au     0.885295E+10 Pa
>> Charges saved for restart in charges.bin

total energy  -1.9225520E+02 H       energy change -8.0709603E-02 H
gradient norm  3.0830022E-01 H/a0    max. gradient  2.2485146E-01 H/a0
step length    4.8074620E-01 a0      max. step      8.8537539E-02 a0

--------------------------------------------------------------------------------

***  Geometry step: 4

 iSCC Total electronic   Diff electronic      SCC error    
    1   -0.19490126E+03    0.00000000E+00    0.54404378E-01
    2   -0.19469318E+03    0.20808169E+00    0.31371692E-01
    3   -0.19469453E+03   -0.13475347E-02    0.72207385E-02
    4   -0.19469486E+03   -0.32749563E-03    0.10083207E-02
    5   -0.19469486E+03   -0.55448475E-05    0.19586776E-03
    6   -0.19469486E+03   -0.47301677E-06    0.12278502E-03
    7   -0.19469486E+03   -0.95818393E-08    0.16551546E-04
    8   -0.19469486E+03   -0.13546355E-08    0.15690902E-05
    9   -0.19469486E+03   -0.93677954E-10    0.42539793E-06
   10   -0.19469486E+03   -0.22168933E-11    0.72430922E-07
   11   -0.19469486E+03    0.00000000E+00    0.18726349E-07
   12   -0.19469486E+03    0.00000000E+00    0.51292854E-08

Total Energy:                     -192.2937353821 H        -5232.5788 eV
Extrapolated to 0K:               -192.2937353821 H        -5232.5788 eV
Total Mermin free energy:         -192.2937353821 H        -5232.5788 eV
Force related energy:             -192.2937353821 H        -5232.5788 eV

Volume:                              0.962375E+04 au^3   0.142609E+04 A^3
Pressure:                            0.202350E-03 au     0.595336E+10 Pa
>> Charges saved for restart in charges.bin

total energy  -1.9229374E+02 H       energy change -3.8535302E-02 H
gradient norm  2.4080261E-01 H/a0    max. gradient  1.1447317E-01 H/a0
step length    3.7946330E-01 a0      max. step      1.3897468E-01 a0

--------------------------------------------------------------------------------

***  Geometry step: 5

 iSCC Total electronic   Diff electronic      SCC error    
    1   -0.19469486E+03    0.00000000E+00    0.37093135E-01
    2   -0.19448598E+03    0.20888629E+00    0.20645162E-01
    3   -0.19448679E+03   -0.80945400E-03    0.47953762E-02
    4   -0.19448697E+03   -0.17893750E-03    0.42702885E-03
    5   -0.19448697E+03   -0.32675465E-05    0.16892854E-03
    6   -0.19448697E+03   -0.16772384E-06    0.90715737E-04
    7   -0.19448697E+03   -0.25946463E-08    0.64108417E-05
    8   -0.19448697E+03   -0.69420025E-09    0.16568275E-05
    9   -0.19448697E+03   -0.29189096E-10    0.25187470E-06
   10   -0.19448697E+03   -0.36948222E-12    0.25823339E-07
   11   -0.19448697E+03   -0.85265128E-13    0.96488386E-08

Total Energy:                     -192.3200736136 H        -5233.2955 eV
Extrapolated to 0K:               -192.3200736136 H        -5233.2955 eV
Total Mermin free energy:         -192.3200736136 H        -5233.2955 eV
Force related energy:             -192.3200736136 H        -5233.2955 eV

Volume:                              0.974467E+04 au^3   0.144401E+04 A^3
Pressure:                            0.108068E-03 au     0.317946E+10 Pa
>> Charges saved for restart in charges.bin

total energy  -1.9232007E+02 H       energy change -2.6338231E-02 H
gradient norm  1.5525699E-01 H/a0    max. gradient  8.1579576E-02 H/a0
step length    3.7173995E-01 a0      max. step      1.1852863E-01 a0

--------------------------------------------------------------------------------

***  Geometry step: 6

 iSCC Total electronic   Diff electronic      SCC error    
    1   -0.19448697E+03    0.00000000E+00    0.28699987E-01
    2   -0.19440262E+03    0.84351608E-01    0.12822299E-01
    3   -0.19440304E+03   -0.42605799E-03    0.23468629E-02
    4   -0.19440314E+03   -0.96788728E-04    0.46466911E-03
    5   -0.19440314E+03   -0.12627181E-05    0.98589742E-04
    6   -0.19440314E+03   -0.11474046E-06    0.28910746E-04
    7   -0.19440314E+03   -0.34648622E-08    0.83201490E-05
    8   -0.19440314E+03   -0.29641001E-09    0.11971824E-05
    9   -0.19440314E+03   -0.15461410E-10    0.22731929E-06
   10   -0.19440314E+03   -0.79580786E-12    0.56126712E-07
   11   -0.19440314E+03    0.28421709E-13    0.10010330E-07
   12   -0.19440314E+03   -0.11368684E-12    0.24642963E-08

Total Energy:                     -192.3338537226 H        -5233.6704 eV
Extrapolated to 0K:               -192.3338537226 H        -5233.6704 eV
Total Mermin free energy:         -192.3338537226 H        -5233.6704 eV
Force related energy:             -192.3338537226 H        -5233.6704 eV

Volume:                              0.978047E+04 au^3   0.144932E+04 A^3
Pressure:                            0.668970E-04 au     0.196818E+10 Pa
>> Charges saved for restart in charges.bin

total energy  -1.9233385E+02 H       energy change -1.3780109E-02 H
gradient norm  9.5914306E-02 H/a0    max. gradient  3.6507706E-02 H/a0
step length    2.4797894E-01 a0      max. step      4.9039738E-02 a0

--------------------------------------------------------------------------------

***  Geometry step: 7

 iSCC Total electronic   Diff electronic      SCC error    
    1   -0.19440314E+03    0.00000000E+00    0.11916458E-01
    2   -0.19438936E+03    0.13781981E-01    0.73107591E-02
    3   -0.19438951E+03   -0.14677455E-03    0.20116270E-02
    4   -0.19438954E+03   -0.36277774E-04    0.23426577E-03
    5   -0.19438954E+03   -0.38364612E-06    0.47911485E-04
    6   -0.19438954E+03   -0.22969971E-07    0.22730517E-04
    7   -0.19438954E+03   -0.40066084E-09    0.33777777E-05
    8   -0.19438954E+03   -0.55138116E-10    0.47984742E-06
    9   -0.19438954E+03   -0.44622084E-11    0.11720301E-06
   10   -0.19438954E+03   -0.28421709E-13    0.12705396E-07
   11   -0.19438954E+03    0.56843419E-13    0.26297560E-08

Total Energy:                     -192.3421579920 H        -5233.8964 eV
Extrapolated to 0K:               -192.3421579920 H        -5233.8964 eV
Total Mermin free energy:         -192.3421579920 H        -5233.8964 eV
Force related energy:             -192.3421579920 H        -5233.8964 eV

Volume:                              0.977424E+04 au^3   0.144839E+04 A^3
Pressure:                            0.583750E-04 au     0.171745E+10 Pa
>> Charges saved for restart in charges.bin

total energy  -1.9234216E+02 H       energy change -8.3042695E-03 H
gradient norm  7.2999874E-02 H/a0    max. gradient  1.6033357E-02 H/a0
step length    1.6644763E-01 a0      max. step      4.0663676E-02 a0

--------------------------------------------------------------------------------

***  Geometry step: 8

 iSCC Total electronic   Diff electronic      SCC error    
    1   -0.19438954E+03    0.00000000E+00    0.25476701E-01
    2   -0.19437126E+03    0.18280618E-01    0.14355049E-01
    3   -0.19437144E+03   -0.17246267E-03    0.21995663E-02
    4   -0.19437148E+03   -0.41811384E-04    0.28968493E-03
    5   -0.19437148E+03   -0.10763818E-05    0.11622824E-03
    6   -0.19437148E+03   -0.56819204E-07    0.27646555E-04
    7   -0.19437148E+03   -0.15918431E-08    0.49587764E-05
    8   -0.19437148E+03   -0.10032863E-09    0.72800354E-06
    9   -0.19437148E+03   -0.11397105E-10    0.16547400E-06
   10   -0.19437148E+03   -0.34106051E-12    0.20374833E-07
   11   -0.19437148E+03   -0.85265128E-13    0.46644408E-08

Total Energy:                     -192.3513315731 H        -5234.1460 eV
Extrapolated to 0K:               -192.3513315731 H        -5234.1460 eV
Total Mermin free energy:         -192.3513315731 H        -5234.1460 eV
Force related energy:             -192.3513315731 H        -5234.1460 eV

Volume:                              0.977846E+04 au^3   0.144902E+04 A^3
Pressure:                            0.467736E-04 au     0.137613E+10 Pa
>> Charges saved for restart in charges.bin

total energy  -1.9235133E+02 H       energy change -9.1735811E-03 H
gradient norm  5.5183729E-02 H/a0    max. gradient  1.4829519E-02 H/a0
step length    2.6121550E-01 a0      max. step      6.1972297E-02 a0

--------------------------------------------------------------------------------

***  Geometry step: 9

 iSCC Total electronic   Diff electronic      SCC error    
    1   -0.19437148E+03    0.00000000E+00    0.14930526E-01
    2   -0.19436553E+03    0.59468476E-02    0.84758265E-02
    3   -0.19436561E+03   -0.78106951E-04    0.14712333E-02
    4   -0.19436563E+03   -0.19405321E-04    0.17487522E-03
    5   -0.19436563E+03   -0.54644553E-06    0.71292428E-04
    6   -0.19436563E+03   -0.34902314E-07    0.19667044E-04
    7   -0.19436563E+03   -0.11427232E-08    0.43196875E-05
    8   -0.19436563E+03   -0.49311666E-10    0.54047985E-06
    9   -0.19436563E+03   -0.34390268E-11    0.87500019E-07
   10   -0.19436563E+03   -0.19895197E-12    0.17479058E-07
   11   -0.19436563E+03    0.00000000E+00    0.25152023E-08

Total Energy:                     -192.3552565537 H        -5234.2528 eV
Extrapolated to 0K:               -192.3552565537 H        -5234.2528 eV
Total Mermin free energy:         -192.3552565537 H        -5234.2528 eV
Force related energy:             -192.3552565537 H        -5234.2528 eV

Volume:                              0.977942E+04 au^3   0.144916E+04 A^3
Pressure:                            0.426399E-04 au     0.125451E+10 Pa
>> Charges saved for restart in charges.bin

total energy  -1.9235526E+02 H       energy change -3.9249806E-03 H
gradient norm  4.2952572E-02 H/a0    max. gradient  9.8169555E-03 H/a0
step length    1.8075175E-01 a0      max. step      3.6804856E-02 a0

--------------------------------------------------------------------------------

***  Geometry step: 10

 iSCC Total electronic   Diff electronic      SCC error    
    1   -0.19436563E+03    0.00000000E+00    0.95562403E-02
    2   -0.19435549E+03    0.10136949E-01    0.39621192E-02
    3   -0.19435555E+03   -0.60963469E-04    0.10381837E-02
    4   -0.19435557E+03   -0.12500482E-04    0.13916987E-03
    5   -0.19435557E+03   -0.34835710E-06    0.47005562E-04
    6   -0.19435557E+03   -0.26577567E-07    0.14904015E-04
    7   -0.19435557E+03   -0.77574214E-09    0.35475970E-05
    8   -0.19435557E+03   -0.44110493E-10    0.27829205E-06
    9   -0.19435557E+03   -0.20463631E-11    0.61526022E-07
   10   -0.19435557E+03    0.28421709E-13    0.16448661E-07
   11   -0.19435557E+03   -0.28421709E-13    0.22151703E-08

Total Energy:                     -192.3578574311 H        -5234.3236 eV
Extrapolated to 0K:               -192.3578574311 H        -5234.3236 eV
Total Mermin free energy:         -192.3578574311 H        -5234.3236 eV
Force related energy:             -192.3578574311 H        -5234.3236 eV

Volume:                              0.978773E+04 au^3   0.145039E+04 A^3
Pressure:                            0.370218E-04 au     0.108922E+10 Pa
>> Charges saved for restart in charges.bin

total energy  -1.9235786E+02 H       energy change -2.6008774E-03 H
gradient norm  3.5194984E-02 H/a0    max. gradient  6.6232726E-03 H/a0
step length    1.5538929E-01 a0      max. step      2.7636649E-02 a0

--------------------------------------------------------------------------------

***  Geometry step: 11

 iSCC Total electronic   Diff electronic      SCC error    
    1   -0.19435557E+03    0.00000000E+00    0.82289981E-02
    2   -0.19434558E+03    0.99833507E-02    0.38482822E-02
    3   -0.19434563E+03   -0.50566064E-04    0.13463969E-02
    4   -0.19434565E+03   -0.11094207E-04    0.14156877E-03
    5   -0.19434565E+03   -0.26066610E-06    0.20014880E-04
    6   -0.19434565E+03   -0.20906185E-07    0.60546515E-05
    7   -0.19434565E+03   -0.39884185E-09    0.18435657E-05
    8   -0.19434565E+03   -0.33878678E-10    0.29899334E-06
    9   -0.19434565E+03   -0.14495072E-11    0.78040510E-07
   10   -0.19434565E+03    0.28421709E-13    0.12128452E-07
   11   -0.19434565E+03   -0.56843419E-13    0.19134969E-08

Total Energy:                     -192.3600420300 H        -5234.3831 eV
Extrapolated to 0K:               -192.3600420300 H        -5234.3831 eV
Total Mermin free energy:         -192.3600420300 H        -5234.3831 eV
Force related energy:             -192.3600420300 H        -5234.3831 eV

Volume:                              0.980087E+04 au^3   0.145234E+04 A^3
Pressure:                            0.303233E-04 au     0.892142E+09 Pa
>> Charges saved for restart in charges.bin

total energy  -1.9236004E+02 H       energy change -2.1845989E-03 H
gradient norm  3.4952734E-02 H/a0    max. gradient  9.5209668E-03 H/a0
step length    1.4168217E-01 a0      max. step      2.8918783E-02 a0

--------------------------------------------------------------------------------

***  Geometry step: 12

 iSCC Total electronic   Diff electronic      SCC error    
    1   -0.19434565E+03    0.00000000E+00    0.84371423E-02
    2   -0.19433863E+03    0.70132762E-02    0.48775257E-02
    3   -0.19433868E+03   -0.43238850E-04    0.13574530E-02
    4   -0.19433869E+03   -0.10238769E-04    0.13327548E-03
    5   -0.19433869E+03   -0.34321980E-06    0.37934119E-04
    6   -0.19433869E+03   -0.20170290E-07    0.15843479E-04
    7   -0.19433869E+03   -0.17573143E-09    0.23116012E-05
    8   -0.19433869E+03   -0.19753088E-10    0.20239691E-06
    9   -0.19433869E+03   -0.15063506E-11    0.55585188E-07
   10   -0.19433869E+03   -0.56843419E-13    0.73452391E-08

Total Energy:                     -192.3621613585 H        -5234.4407 eV
Extrapolated to 0K:               -192.3621613585 H        -5234.4407 eV
Total Mermin free energy:         -192.3621613585 H        -5234.4407 eV
Force related energy:             -192.3621613585 H        -5234.4407 eV

Volume:                              0.981843E+04 au^3   0.145494E+04 A^3
Pressure:                            0.255945E-04 au     0.753017E+09 Pa
>> Charges saved for restart in charges.bin

total energy  -1.9236216E+02 H       energy change -2.1193285E-03 H
gradient norm  3.4012982E-02 H/a0    max. gradient  9.7685456E-03 H/a0
step length    1.5232022E-01 a0      max. step      3.1153271E-02 a0

--------------------------------------------------------------------------------

***  Geometry step: 13

 iSCC Total electronic   Diff electronic      SCC error    
    1   -0.19433869E+03    0.00000000E+00    0.59131690E-02
    2   -0.19433336E+03    0.53225784E-02    0.36484027E-02
    3   -0.19433339E+03   -0.28384875E-04    0.92665634E-03
    4   -0.19433340E+03   -0.65888221E-05    0.12564398E-03
    5   -0.19433340E+03   -0.25478673E-06    0.42391537E-04
    6   -0.19433340E+03   -0.13180738E-07    0.13137795E-04
    7   -0.19433340E+03   -0.20031621E-09    0.19323426E-05
    8   -0.19433340E+03   -0.12732926E-10    0.25244248E-06
    9   -0.19433340E+03   -0.17905677E-11    0.64321490E-07
   10   -0.19433340E+03    0.56843419E-13    0.97743555E-08

Total Energy:                     -192.3638082774 H        -5234.4856 eV
Extrapolated to 0K:               -192.3638082774 H        -5234.4856 eV
Total Mermin free energy:         -192.3638082774 H        -5234.4856 eV
Force related energy:             -192.3638082774 H        -5234.4856 eV

Volume:                              0.983671E+04 au^3   0.145765E+04 A^3
Pressure:                            0.217167E-04 au     0.638927E+09 Pa
>> Charges saved for restart in charges.bin

total energy  -1.9236381E+02 H       energy change -1.6469189E-03 H
gradient norm  3.0188029E-02 H/a0    max. gradient  6.4647444E-03 H/a0
step length    1.4097952E-01 a0      max. step      2.7376518E-02 a0

--------------------------------------------------------------------------------

***  Geometry step: 14

 iSCC Total electronic   Diff electronic      SCC error    
    1   -0.19433340E+03    0.00000000E+00    0.49666593E-02
    2   -0.19432990E+03    0.34941596E-02    0.29098843E-02
    3   -0.19432993E+03   -0.25259682E-04    0.88526882E-03
    4   -0.19432994E+03   -0.52522422E-05    0.13272821E-03
    5   -0.19432994E+03   -0.14949637E-06    0.22590696E-04
    6   -0.19432994E+03   -0.10300511E-07    0.85563793E-05
    7   -0.19432994E+03   -0.27671376E-09    0.19158897E-05
    8   -0.19432994E+03   -0.19042545E-10    0.30923704E-06
    9   -0.19432994E+03   -0.71054274E-12    0.67215256E-07
   10   -0.19432994E+03   -0.11368684E-12    0.11235402E-07
   11   -0.19432994E+03    0.85265128E-13    0.15375385E-08

Total Energy:                     -192.3651619496 H        -5234.5224 eV
Extrapolated to 0K:               -192.3651619496 H        -5234.5224 eV
Total Mermin free energy:         -192.3651619496 H        -5234.5224 eV
Force related energy:             -192.3651619496 H        -5234.5224 eV

Volume:                              0.985490E+04 au^3   0.146035E+04 A^3
Pressure:                            0.184575E-04 au     0.543040E+09 Pa
>> Charges saved for restart in charges.bin

total energy  -1.9236516E+02 H       energy change -1.3536722E-03 H
gradient norm  2.6212069E-02 H/a0    max. gradient  5.1879354E-03 H/a0
step length    1.2620194E-01 a0      max. step      2.4111180E-02 a0

--------------------------------------------------------------------------------

***  Geometry step: 15

 iSCC Total electronic   Diff electronic      SCC error    
    1   -0.19432994E+03    0.00000000E+00    0.61299439E-02
    2   -0.19433112E+03   -0.11835271E-02    0.25418641E-02
    3   -0.19433115E+03   -0.35886578E-04    0.85349008E-03
    4   -0.19433116E+03   -0.72926965E-05    0.11368477E-03
    5   -0.19433116E+03   -0.13374728E-06    0.20304650E-04
    6   -0.19433116E+03   -0.13771341E-07    0.73851607E-05
    7   -0.19433116E+03   -0.46642867E-09    0.23344554E-05
    8   -0.19433116E+03   -0.19809931E-10    0.40117767E-06
    9   -0.19433116E+03   -0.12505552E-11    0.85302680E-07
   10   -0.19433116E+03   -0.85265128E-13    0.13067916E-07
   11   -0.19433116E+03    0.56843419E-13    0.13414714E-08

Total Energy:                     -192.3663591936 H        -5234.5550 eV
Extrapolated to 0K:               -192.3663591936 H        -5234.5550 eV
Total Mermin free energy:         -192.3663591936 H        -5234.5550 eV
Force related energy:             -192.3663591936 H        -5234.5550 eV

Volume:                              0.987039E+04 au^3   0.146264E+04 A^3
Pressure:                            0.164408E-04 au     0.483706E+09 Pa
>> Charges saved for restart in charges.bin

total energy  -1.9236636E+02 H       energy change -1.1972440E-03 H
gradient norm  2.5835741E-02 H/a0    max. gradient  7.3920179E-03 H/a0
step length    1.2561998E-01 a0      max. step      2.5897685E-02 a0

--------------------------------------------------------------------------------

***  Geometry step: 16

 iSCC Total electronic   Diff electronic      SCC error    
    1   -0.19433116E+03    0.00000000E+00    0.58866847E-02
    2   -0.19433421E+03   -0.30510183E-02    0.32736777E-02
    3   -0.19433425E+03   -0.32914236E-04    0.72281372E-03
    4   -0.19433425E+03   -0.69653713E-05    0.12299826E-03
    5   -0.19433425E+03   -0.11654333E-06    0.38566648E-04
    6   -0.19433425E+03   -0.11443433E-07    0.11535415E-04
    7   -0.19433425E+03   -0.30510705E-09    0.26593744E-05
    8   -0.19433425E+03   -0.11397105E-10    0.37390289E-06
    9   -0.19433425E+03   -0.13642421E-11    0.88294339E-07
   10   -0.19433425E+03   -0.85265128E-13    0.95275308E-08

Total Energy:                     -192.3674145493 H        -5234.5837 eV
Extrapolated to 0K:               -192.3674145493 H        -5234.5837 eV
Total Mermin free energy:         -192.3674145493 H        -5234.5837 eV
Force related energy:             -192.3674145493 H        -5234.5837 eV

Volume:                              0.988520E+04 au^3   0.146484E+04 A^3
Pressure:                            0.158764E-04 au     0.467099E+09 Pa
>> Charges saved for restart in charges.bin

total energy  -1.9236741E+02 H       energy change -1.0553557E-03 H
gradient norm  2.5032119E-02 H/a0    max. gradient  7.6426780E-03 H/a0
step length    1.2704617E-01 a0      max. step      2.7367536E-02 a0

--------------------------------------------------------------------------------

***  Geometry step: 17

 iSCC Total electronic   Diff electronic      SCC error    
    1   -0.19433425E+03    0.00000000E+00    0.61013294E-02
    2   -0.19433545E+03   -0.11946660E-02    0.34042039E-02
    3   -0.19433546E+03   -0.16213160E-04    0.67138844E-03
    4   -0.19433547E+03   -0.35871015E-05    0.10401561E-03
    5   -0.19433547E+03   -0.72116308E-07    0.30595981E-04
    6   -0.19433547E+03   -0.67336998E-08    0.79980198E-05
    7   -0.19433547E+03   -0.12190071E-09    0.17546905E-05
    8   -0.19433547E+03   -0.53148597E-11    0.23732761E-06
    9   -0.19433547E+03   -0.10231815E-11    0.58844786E-07
   10   -0.19433547E+03    0.28421709E-13    0.66607013E-08

Total Energy:                     -192.3682905400 H        -5234.6075 eV
Extrapolated to 0K:               -192.3682905400 H        -5234.6075 eV
Total Mermin free energy:         -192.3682905400 H        -5234.6075 eV
Force related energy:             -192.3682905400 H        -5234.6075 eV

Volume:                              0.989820E+04 au^3   0.146676E+04 A^3
Pressure:                            0.152812E-04 au     0.449589E+09 Pa
>> Charges saved for restart in charges.bin

total energy  -1.9236829E+02 H       energy change -8.7599071E-04 H
gradient norm  2.2895799E-02 H/a0    max. gradient  4.9086955E-03 H/a0
step length    1.1235552E-01 a0      max. step      2.3854446E-02 a0

--------------------------------------------------------------------------------

***  Geometry step: 18

 iSCC Total electronic   Diff electronic      SCC error    
    1   -0.19433547E+03    0.00000000E+00    0.44842223E-02
    2   -0.19433197E+03    0.34944342E-02    0.23502402E-02
    3   -0.19433199E+03   -0.16425721E-04    0.53747150E-03
    4   -0.19433199E+03   -0.36014536E-05    0.74064711E-04
    5   -0.19433199E+03   -0.65149806E-07    0.27088257E-04
    6   -0.19433199E+03   -0.50367248E-08    0.77064810E-05
    7   -0.19433199E+03   -0.82906126E-10    0.13037435E-05
    8   -0.19433199E+03   -0.30411229E-11    0.21724177E-06
    9   -0.19433199E+03   -0.82422957E-12    0.62657155E-07
   10   -0.19433199E+03   -0.11368684E-12    0.58517373E-08

Total Energy:                     -192.3691655477 H        -5234.6313 eV
Extrapolated to 0K:               -192.3691655477 H        -5234.6313 eV
Total Mermin free energy:         -192.3691655477 H        -5234.6313 eV
Force related energy:             -192.3691655477 H        -5234.6313 eV

Volume:                              0.991520E+04 au^3   0.146928E+04 A^3
Pressure:                            0.128453E-04 au     0.377923E+09 Pa
>> Charges saved for restart in charges.bin

total energy  -1.9236917E+02 H       energy change -8.7500770E-04 H
gradient norm  2.0557633E-02 H/a0    max. gradient  5.9023758E-03 H/a0
step length    1.2498229E-01 a0      max. step      2.3753723E-02 a0

--------------------------------------------------------------------------------

***  Geometry step: 19

 iSCC Total electronic   Diff electronic      SCC error    
    1   -0.19433199E+03    0.00000000E+00    0.37707183E-02
    2   -0.19432898E+03    0.30174312E-02    0.18146447E-02
    3   -0.19432899E+03   -0.10956024E-04    0.49388318E-03
    4   -0.19432899E+03   -0.24539937E-05    0.51351630E-04
    5   -0.19432899E+03   -0.36996767E-07    0.76121845E-05
    6   -0.19432899E+03   -0.26628015E-08    0.31937280E-05
    7   -0.19432899E+03   -0.50647486E-10    0.10992287E-05
    8   -0.19432899E+03   -0.25863756E-11    0.13620839E-06
    9   -0.19432899E+03   -0.17053026E-12    0.26430403E-07
   10   -0.19432899E+03   -0.11368684E-12    0.45807353E-08

Total Energy:                     -192.3698607082 H        -5234.6502 eV
Extrapolated to 0K:               -192.3698607082 H        -5234.6502 eV
Total Mermin free energy:         -192.3698607082 H        -5234.6502 eV
Force related energy:             -192.3698607082 H        -5234.6502 eV

Volume:                              0.993051E+04 au^3   0.147155E+04 A^3
Pressure:                            0.105537E-04 au     0.310501E+09 Pa
>> Charges saved for restart in charges.bin

total energy  -1.9236986E+02 H       energy change -6.9516048E-04 H
gradient norm  2.0344847E-02 H/a0    max. gradient  5.8918542E-03 H/a0
step length    1.0958341E-01 a0      max. step      1.8640231E-02 a0

--------------------------------------------------------------------------------

***  Geometry step: 20

 iSCC Total electronic   Diff electronic      SCC error    
    1   -0.19432899E+03    0.00000000E+00    0.41965626E-02
    2   -0.19432640E+03    0.25849658E-02    0.18818964E-02
    3   -0.19432642E+03   -0.12783824E-04    0.53165677E-03
    4   -0.19432642E+03   -0.29491520E-05    0.54035047E-04
    5   -0.19432642E+03   -0.52486570E-07    0.14545231E-04
    6   -0.19432642E+03   -0.33726621E-08    0.52253676E-05
    7   -0.19432642E+03   -0.55365490E-10    0.73669422E-06
    8   -0.19432642E+03   -0.37232439E-11    0.16475440E-06
    9   -0.19432642E+03   -0.42632564E-12    0.53190981E-07
   10   -0.19432642E+03    0.56843419E-13    0.66253238E-08

Total Energy:                     -192.3705297508 H        -5234.6685 eV
Extrapolated to 0K:               -192.3705297508 H        -5234.6685 eV
Total Mermin free energy:         -192.3705297508 H        -5234.6685 eV
Force related energy:             -192.3705297508 H        -5234.6685 eV

Volume:                              0.994632E+04 au^3   0.147389E+04 A^3
Pressure:                            0.849031E-05 au     0.249793E+09 Pa
>> Charges saved for restart in charges.bin

total energy  -1.9237053E+02 H       energy change -6.6904255E-04 H
gradient norm  1.9857911E-02 H/a0    max. gradient  5.5582009E-03 H/a0
step length    1.1100236E-01 a0      max. step      2.0258819E-02 a0

--------------------------------------------------------------------------------

***  Geometry step: 21

 iSCC Total electronic   Diff electronic      SCC error    
    1   -0.19432642E+03    0.00000000E+00    0.39297535E-02
    2   -0.19432434E+03    0.20777250E-02    0.18496816E-02
    3   -0.19432435E+03   -0.98589849E-05    0.51736066E-03
    4   -0.19432435E+03   -0.22597852E-05    0.62664542E-04
    5   -0.19432435E+03   -0.65937741E-07    0.21684501E-04
    6   -0.19432435E+03   -0.30413787E-08    0.62595662E-05
    7   -0.19432435E+03   -0.50221161E-10    0.65893370E-06
    8   -0.19432435E+03   -0.30695446E-11    0.18459808E-06
    9   -0.19432435E+03   -0.42632564E-12    0.45764432E-07
   10   -0.19432435E+03   -0.28421709E-13    0.40040984E-08

Total Energy:                     -192.3711255541 H        -5234.6847 eV
Extrapolated to 0K:               -192.3711255541 H        -5234.6847 eV
Total Mermin free energy:         -192.3711255541 H        -5234.6847 eV
Force related energy:             -192.3711255541 H        -5234.6847 eV

Volume:                              0.996194E+04 au^3   0.147621E+04 A^3
Pressure:                            0.656789E-05 au     0.193234E+09 Pa
>> Charges saved for restart in charges.bin

total energy  -1.9237113E+02 H       energy change -5.9580339E-04 H
gradient norm  1.7242506E-02 H/a0    max. gradient  3.8178229E-03 H/a0
step length    1.0997700E-01 a0      max. step      2.3242747E-02 a0

--------------------------------------------------------------------------------

***  Geometry step: 22

 iSCC Total electronic   Diff electronic      SCC error    
    1   -0.19432435E+03    0.00000000E+00    0.27216652E-02
    2   -0.19432319E+03    0.11607351E-02    0.14857762E-02
    3   -0.19432320E+03   -0.91323095E-05    0.51728473E-03
    4   -0.19432320E+03   -0.19335025E-05    0.40750481E-04
    5   -0.19432321E+03   -0.47774364E-07    0.17936119E-04
    6   -0.19432321E+03   -0.22298821E-08    0.48763713E-05
    7   -0.19432321E+03   -0.39534598E-10    0.70680332E-06
    8   -0.19432321E+03   -0.19326762E-11    0.15983812E-06
    9   -0.19432321E+03   -0.31263880E-12    0.38340987E-07
   10   -0.19432321E+03    0.00000000E+00    0.34728584E-08

Total Energy:                     -192.3715854789 H        -5234.6972 eV
Extrapolated to 0K:               -192.3715854789 H        -5234.6972 eV
Total Mermin free energy:         -192.3715854789 H        -5234.6972 eV
Force related energy:             -192.3715854789 H        -5234.6972 eV

Volume:                              0.997532E+04 au^3   0.147819E+04 A^3
Pressure:                            0.485626E-05 au     0.142876E+09 Pa
>> Charges saved for restart in charges.bin

total energy  -1.9237159E+02 H       energy change -4.5992480E-04 H
gradient norm  1.4681989E-02 H/a0    max. gradient  2.5935013E-03 H/a0
step length    9.4792385E-02 a0      max. step      2.1232213E-02 a0

--------------------------------------------------------------------------------

***  Geometry step: 23

 iSCC Total electronic   Diff electronic      SCC error    
    1   -0.19432321E+03    0.00000000E+00    0.28546398E-02
    2   -0.19432477E+03   -0.15628728E-02    0.14916010E-02
    3   -0.19432478E+03   -0.88723132E-05    0.42771603E-03
    4   -0.19432478E+03   -0.18787496E-05    0.49897260E-04
    5   -0.19432478E+03   -0.24078844E-07    0.11813240E-04
    6   -0.19432478E+03   -0.16126194E-08    0.39500220E-05
    7   -0.19432478E+03   -0.36237680E-10    0.95176987E-06
    8   -0.19432478E+03   -0.12505552E-11    0.12657472E-06
    9   -0.19432478E+03   -0.22737368E-12    0.31107259E-07
   10   -0.19432478E+03    0.28421709E-13    0.28809977E-08

Total Energy:                     -192.3719134319 H        -5234.7061 eV
Extrapolated to 0K:               -192.3719134319 H        -5234.7061 eV
Total Mermin free energy:         -192.3719134319 H        -5234.7061 eV
Force related energy:             -192.3719134319 H        -5234.7061 eV

Volume:                              0.998461E+04 au^3   0.147957E+04 A^3
Pressure:                            0.473886E-05 au     0.139422E+09 Pa
>> Charges saved for restart in charges.bin

total energy  -1.9237191E+02 H       energy change -3.2795300E-04 H
gradient norm  1.2280051E-02 H/a0    max. gradient  4.3155802E-03 H/a0
step length    7.7051817E-02 a0      max. step      1.6938053E-02 a0

--------------------------------------------------------------------------------

***  Geometry step: 24

 iSCC Total electronic   Diff electronic      SCC error    
    1   -0.19432478E+03    0.00000000E+00    0.23431994E-02
    2   -0.19432559E+03   -0.81073797E-03    0.12536595E-02
    3   -0.19432559E+03   -0.46035103E-05    0.22758864E-03
    4   -0.19432560E+03   -0.99081382E-06    0.29362163E-04
    5   -0.19432560E+03   -0.11846709E-07    0.10756816E-04
    6   -0.19432560E+03   -0.61933747E-09    0.22432667E-05
    7   -0.19432560E+03   -0.11596057E-10    0.31494484E-06
    8   -0.19432560E+03   -0.54001248E-12    0.66411496E-07
    9   -0.19432560E+03   -0.56843419E-13    0.15380194E-07
   10   -0.19432560E+03   -0.56843419E-13    0.20319790E-08

Total Energy:                     -192.3721199194 H        -5234.7117 eV
Extrapolated to 0K:               -192.3721199194 H        -5234.7117 eV
Total Mermin free energy:         -192.3721199194 H        -5234.7117 eV
Force related energy:             -192.3721199194 H        -5234.7117 eV

Volume:                              0.999146E+04 au^3   0.148058E+04 A^3
Pressure:                            0.470064E-05 au     0.138297E+09 Pa
>> Charges saved for restart in charges.bin

total energy  -1.9237212E+02 H       energy change -2.0648741E-04 H
gradient norm  1.0744792E-02 H/a0    max. gradient  3.3634079E-03 H/a0
step length    5.2306516E-02 a0      max. step      9.5310772E-03 a0

--------------------------------------------------------------------------------

***  Geometry step: 25

 iSCC Total electronic   Diff electronic      SCC error    
    1   -0.19432560E+03    0.00000000E+00    0.31676404E-02
    2   -0.19432545E+03    0.14823468E-03    0.17288760E-02
    3   -0.19432545E+03   -0.30601961E-05    0.30183269E-03
    4   -0.19432545E+03   -0.69601489E-06    0.31587012E-04
    5   -0.19432545E+03   -0.14926371E-07    0.12110722E-04
    6   -0.19432545E+03   -0.62641448E-09    0.18529549E-05
    7   -0.19432545E+03   -0.11567636E-10    0.26642562E-06
    8   -0.19432545E+03   -0.51159077E-12    0.75351718E-07
    9   -0.19432545E+03   -0.11368684E-12    0.13304036E-07
   10   -0.19432545E+03   -0.56843419E-13    0.16138859E-08

Total Energy:                     -192.3723013864 H        -5234.7167 eV
Extrapolated to 0K:               -192.3723013864 H        -5234.7167 eV
Total Mermin free energy:         -192.3723013864 H        -5234.7167 eV
Force related energy:             -192.3723013864 H        -5234.7167 eV

Volume:                              0.999790E+04 au^3   0.148154E+04 A^3
Pressure:                            0.432689E-05 au     0.127301E+09 Pa
>> Charges saved for restart in charges.bin

total energy  -1.9237230E+02 H       energy change -1.8146702E-04 H
gradient norm  9.7630704E-03 H/a0    max. gradient  1.8555346E-03 H/a0
step length    4.6461585E-02 a0      max. step      7.9327330E-03 a0

--------------------------------------------------------------------------------

***  Geometry step: 26

 iSCC Total electronic   Diff electronic      SCC error    
    1   -0.19432545E+03    0.00000000E+00    0.30449146E-02
    2   -0.19432465E+03    0.80383241E-03    0.16810961E-02
    3   -0.19432465E+03   -0.28394204E-05    0.33802910E-03
    4   -0.19432465E+03   -0.64902292E-06    0.41451956E-04
    5   -0.19432465E+03   -0.18733715E-07    0.13594062E-04
    6   -0.19432465E+03   -0.81664098E-09    0.21976625E-05
    7   -0.19432465E+03   -0.13386625E-10    0.34142384E-06
    8   -0.19432465E+03   -0.73896445E-12    0.10408821E-06
    9   -0.19432465E+03    0.00000000E+00    0.20573509E-07
   10   -0.19432465E+03    0.00000000E+00    0.21596351E-08

Total Energy:                     -192.3724748531 H        -5234.7214 eV
Extrapolated to 0K:               -192.3724748531 H        -5234.7214 eV
Total Mermin free energy:         -192.3724748531 H        -5234.7214 eV
Force related energy:             -192.3724748531 H        -5234.7214 eV

Volume:                              0.100053E+05 au^3   0.148263E+04 A^3
Pressure:                            0.368169E-05 au     0.108319E+09 Pa
>> Charges saved for restart in charges.bin

total energy  -1.9237247E+02 H       energy change -1.7346677E-04 H
gradient norm  1.0214680E-02 H/a0    max. gradient  1.8125280E-03 H/a0
step length    5.0304852E-02 a0      max. step      9.1990749E-03 a0

--------------------------------------------------------------------------------

***  Geometry step: 27

 iSCC Total electronic   Diff electronic      SCC error    
    1   -0.19432465E+03    0.00000000E+00    0.23099789E-02
    2   -0.19432332E+03    0.13307466E-02    0.12945083E-02
    3   -0.19432332E+03   -0.30686791E-05    0.33800882E-03
    4   -0.19432332E+03   -0.68101724E-06    0.38251665E-04
    5   -0.19432332E+03   -0.21456856E-07    0.12631785E-04
    6   -0.19432332E+03   -0.83855412E-09    0.22362903E-05
    7   -0.19432332E+03   -0.12192913E-10    0.41897758E-06
    8   -0.19432332E+03   -0.59685590E-12    0.10692634E-06
    9   -0.19432332E+03   -0.11368684E-12    0.24157029E-07
   10   -0.19432332E+03   -0.11368684E-12    0.20791218E-08

Total Energy:                     -192.3726605172 H        -5234.7264 eV
Extrapolated to 0K:               -192.3726605172 H        -5234.7264 eV
Total Mermin free energy:         -192.3726605172 H        -5234.7264 eV
Force related energy:             -192.3726605172 H        -5234.7264 eV

Volume:                              0.100144E+05 au^3   0.148399E+04 A^3
Pressure:                            0.248761E-05 au     0.731879E+08 Pa
>> Charges saved for restart in charges.bin

total energy  -1.9237266E+02 H       energy change -1.8566403E-04 H
gradient norm  1.0764873E-02 H/a0    max. gradient  2.2368839E-03 H/a0
step length    6.0210481E-02 a0      max. step      1.1507588E-02 a0

--------------------------------------------------------------------------------

***  Geometry step: 28

 iSCC Total electronic   Diff electronic      SCC error    
    1   -0.19432332E+03    0.00000000E+00    0.22199431E-02
    2   -0.19432263E+03    0.69584571E-03    0.99923346E-03
    3   -0.19432263E+03   -0.39069997E-05    0.30797499E-03
    4   -0.19432263E+03   -0.80831609E-06    0.27798176E-04
    5   -0.19432263E+03   -0.19986146E-07    0.88429149E-05
    6   -0.19432263E+03   -0.87450758E-09    0.18542222E-05
    7   -0.19432263E+03   -0.97486463E-11    0.41466836E-06
    8   -0.19432263E+03   -0.45474735E-12    0.98709383E-07
    9   -0.19432263E+03   -0.85265128E-13    0.19833269E-07
   10   -0.19432263E+03    0.00000000E+00    0.16947341E-08

Total Energy:                     -192.3728609458 H        -5234.7319 eV
Extrapolated to 0K:               -192.3728609458 H        -5234.7319 eV
Total Mermin free energy:         -192.3728609458 H        -5234.7319 eV
Force related energy:             -192.3728609458 H        -5234.7319 eV

Volume:                              0.100244E+05 au^3   0.148547E+04 A^3
Pressure:                            0.128033E-05 au     0.376687E+08 Pa
>> Charges saved for restart in charges.bin

total energy  -1.9237286E+02 H       energy change -2.0042865E-04 H
gradient norm  1.1041995E-02 H/a0    max. gradient  2.3854818E-03 H/a0
step length    7.3266904E-02 a0      max. step      1.4453688E-02 a0

--------------------------------------------------------------------------------

***  Geometry step: 29

 iSCC Total electronic   Diff electronic      SCC error    
    1   -0.19432263E+03    0.00000000E+00    0.18179107E-02
    2   -0.19432320E+03   -0.56712083E-03    0.81724603E-03
    3   -0.19432320E+03   -0.35736797E-05    0.25440126E-03
    4   -0.19432320E+03   -0.70541188E-06    0.29220328E-04
    5   -0.19432320E+03   -0.11978699E-07    0.84849022E-05
    6   -0.19432320E+03   -0.73805495E-09    0.22140530E-05
    7   -0.19432320E+03   -0.71906925E-11    0.34885907E-06
    8   -0.19432320E+03   -0.34106051E-12    0.90576331E-07
    9   -0.19432320E+03   -0.85265128E-13    0.19122538E-07
   10   -0.19432320E+03    0.28421709E-13    0.19985169E-08

Total Energy:                     -192.3730567948 H        -5234.7372 eV
Extrapolated to 0K:               -192.3730567948 H        -5234.7372 eV
Total Mermin free energy:         -192.3730567948 H        -5234.7372 eV
Force related energy:             -192.3730567948 H        -5234.7372 eV

Volume:                              0.100328E+05 au^3   0.148670E+04 A^3
Pressure:                            0.401228E-06 au     0.118045E+08 Pa
>> Charges saved for restart in charges.bin

total energy  -1.9237306E+02 H       energy change -1.9584893E-04 H
gradient norm  1.0591722E-02 H/a0    max. gradient  2.4119527E-03 H/a0
step length    7.2514641E-02 a0      max. step      1.4334455E-02 a0

--------------------------------------------------------------------------------

***  Geometry step: 30

 iSCC Total electronic   Diff electronic      SCC error    
    1   -0.19432320E+03    0.00000000E+00    0.17739298E-02
    2   -0.19432581E+03   -0.26022199E-02    0.10429875E-02
    3   -0.19432581E+03   -0.42793264E-05    0.31960825E-03
    4   -0.19432581E+03   -0.83218808E-06    0.42264412E-04
    5   -0.19432581E+03   -0.12681340E-07    0.71871980E-05
    6   -0.19432581E+03   -0.11855548E-08    0.21154368E-05
    7   -0.19432581E+03   -0.19838353E-10    0.67178071E-06
    8   -0.19432581E+03   -0.25579538E-12    0.82545999E-07
    9   -0.19432581E+03   -0.85265128E-13    0.17668932E-07
   10   -0.19432581E+03    0.00000000E+00    0.28947311E-08

Total Energy:                     -192.3732589009 H        -5234.7427 eV
Extrapolated to 0K:               -192.3732589009 H        -5234.7427 eV
Total Mermin free energy:         -192.3732589009 H        -5234.7427 eV
Force related energy:             -192.3732589009 H        -5234.7427 eV

Volume:                              0.100395E+05 au^3   0.148770E+04 A^3
Pressure:                            0.441570E-06 au     0.129914E+08 Pa
>> Charges saved for restart in charges.bin

total energy  -1.9237326E+02 H       energy change -2.0210615E-04 H
gradient norm  1.0365339E-02 H/a0    max. gradient  2.6338660E-03 H/a0
step length    8.2534316E-02 a0      max. step      1.6034504E-02 a0

--------------------------------------------------------------------------------

***  Geometry step: 31

 iSCC Total electronic   Diff electronic      SCC error    
    1   -0.19432581E+03    0.00000000E+00    0.15054748E-02
    2   -0.19432817E+03   -0.23588863E-02    0.84742272E-03
    3   -0.19432817E+03   -0.30745604E-05    0.29819477E-03
    4   -0.19432817E+03   -0.63709811E-06    0.39973926E-04
    5   -0.19432817E+03   -0.93248786E-08    0.35409887E-05
    6   -0.19432817E+03   -0.97531938E-09    0.80663120E-06
    7   -0.19432817E+03   -0.19667823E-10    0.35056749E-06
    8   -0.19432817E+03   -0.39790393E-12    0.87121687E-07
    9   -0.19432817E+03   -0.28421709E-13    0.10466634E-07
   10   -0.19432817E+03    0.56843419E-13    0.29352032E-08

Total Energy:                     -192.3734305046 H        -5234.7474 eV
Extrapolated to 0K:               -192.3734305046 H        -5234.7474 eV
Total Mermin free energy:         -192.3734305046 H        -5234.7474 eV
Force related energy:             -192.3734305046 H        -5234.7474 eV

Volume:                              0.100437E+05 au^3   0.148832E+04 A^3
Pressure:                            0.421174E-06 au     0.123914E+08 Pa
>> Charges saved for restart in charges.bin

total energy  -1.9237343E+02 H       energy change -1.7160373E-04 H
gradient norm  1.0760656E-02 H/a0    max. gradient  2.9241331E-03 H/a0
step length    7.1254115E-02 a0      max. step      1.3680565E-02 a0

--------------------------------------------------------------------------------

***  Geometry step: 32

 iSCC Total electronic   Diff electronic      SCC error    
    1   -0.19432817E+03    0.00000000E+00    0.18727158E-02
    2   -0.19433139E+03   -0.32118693E-02    0.90106780E-03
    3   -0.19433139E+03   -0.39650307E-05    0.30731327E-03
    4   -0.19433139E+03   -0.83689918E-06    0.35587956E-04
    5   -0.19433139E+03   -0.10277518E-07    0.49828248E-05
    6   -0.19433139E+03   -0.11540635E-08    0.13415226E-05
    7   -0.19433139E+03   -0.25892177E-10    0.42977074E-06
    8   -0.19433139E+03   -0.36948222E-12    0.75067693E-07
    9   -0.19433139E+03   -0.56843419E-13    0.18652893E-07
   10   -0.19433139E+03    0.00000000E+00    0.29763876E-08

Total Energy:                     -192.3736232603 H        -5234.7526 eV
Extrapolated to 0K:               -192.3736232603 H        -5234.7526 eV
Total Mermin free energy:         -192.3736232603 H        -5234.7526 eV
Force related energy:             -192.3736232603 H        -5234.7526 eV

Volume:                              0.100460E+05 au^3   0.148866E+04 A^3
Pressure:                            0.109961E-05 au     0.323517E+08 Pa
>> Charges saved for restart in charges.bin

total energy  -1.9237362E+02 H       energy change -1.9275566E-04 H
gradient norm  1.0493399E-02 H/a0    max. gradient  2.7480342E-03 H/a0
step length    8.0666804E-02 a0      max. step      1.5592229E-02 a0

--------------------------------------------------------------------------------

***  Geometry step: 33

 iSCC Total electronic   Diff electronic      SCC error    
    1   -0.19433139E+03    0.00000000E+00    0.17546233E-02
    2   -0.19433351E+03   -0.21193219E-02    0.78507091E-03
    3   -0.19433351E+03   -0.32773480E-05    0.22362556E-03
    4   -0.19433351E+03   -0.70199255E-06    0.35452729E-04
    5   -0.19433351E+03   -0.83458929E-08    0.60588116E-05
    6   -0.19433351E+03   -0.69849193E-09    0.16624146E-05
    7   -0.19433351E+03   -0.10828671E-10    0.54212110E-06
    8   -0.19433351E+03   -0.22737368E-12    0.88461250E-07
    9   -0.19433351E+03   -0.14210855E-12    0.21596158E-07
   10   -0.19433351E+03    0.28421709E-13    0.18413848E-08

Total Energy:                     -192.3737970471 H        -5234.7574 eV
Extrapolated to 0K:               -192.3737970471 H        -5234.7574 eV
Total Mermin free energy:         -192.3737970471 H        -5234.7574 eV
Force related energy:             -192.3737970471 H        -5234.7574 eV

Volume:                              0.100470E+05 au^3   0.148881E+04 A^3
Pressure:                            0.184544E-05 au     0.542946E+08 Pa
>> Charges saved for restart in charges.bin

total energy  -1.9237380E+02 H       energy change -1.7378678E-04 H
gradient norm  9.8829821E-03 H/a0    max. gradient  1.8546619E-03 H/a0
step length    7.5040807E-02 a0      max. step      1.4390752E-02 a0

--------------------------------------------------------------------------------

***  Geometry step: 34

 iSCC Total electronic   Diff electronic      SCC error    
    1   -0.19433351E+03    0.00000000E+00    0.15526369E-02
    2   -0.19433412E+03   -0.60731916E-03    0.83531352E-03
    3   -0.19433412E+03   -0.31137712E-05    0.26558780E-03
    4   -0.19433412E+03   -0.66952921E-06    0.31469260E-04
    5   -0.19433412E+03   -0.11681408E-07    0.63211530E-05
    6   -0.19433412E+03   -0.80126483E-09    0.22721762E-05
    7   -0.19433412E+03   -0.69917405E-11    0.64439430E-06
    8   -0.19433412E+03   -0.11368684E-12    0.75528241E-07
    9   -0.19433412E+03   -0.14210855E-12    0.18738022E-07
   10   -0.19433412E+03    0.85265128E-13    0.17746924E-08

Total Energy:                     -192.3739697765 H        -5234.7621 eV
Extrapolated to 0K:               -192.3739697765 H        -5234.7621 eV
Total Mermin free energy:         -192.3739697765 H        -5234.7621 eV
Force related energy:             -192.3739697765 H        -5234.7621 eV

Volume:                              0.100481E+05 au^3   0.148898E+04 A^3
Pressure:                            0.212828E-05 au     0.626161E+08 Pa
>> Charges saved for restart in charges.bin

total energy  -1.9237397E+02 H       energy change -1.7272940E-04 H
gradient norm  1.0128001E-02 H/a0    max. gradient  1.9024695E-03 H/a0
step length    8.1076006E-02 a0      max. step      1.5801898E-02 a0

--------------------------------------------------------------------------------

***  Geometry step: 35

 iSCC Total electronic   Diff electronic      SCC error    
    1   -0.19433412E+03    0.00000000E+00    0.16477010E-02
    2   -0.19433425E+03   -0.12955019E-03    0.99645346E-03
    3   -0.19433426E+03   -0.30005029E-05    0.27879569E-03
    4   -0.19433426E+03   -0.65400616E-06    0.37847375E-04
    5   -0.19433426E+03   -0.17756179E-07    0.76000943E-05
    6   -0.19433426E+03   -0.10496706E-08    0.26128255E-05
    7   -0.19433426E+03   -0.13272938E-10    0.82440389E-06
    8   -0.19433426E+03   -0.34106051E-12    0.98435827E-07
    9   -0.19433426E+03   -0.11368684E-12    0.18682333E-07
   10   -0.19433426E+03   -0.28421709E-13    0.30918392E-08

Total Energy:                     -192.3741513061 H        -5234.7670 eV
Extrapolated to 0K:               -192.3741513061 H        -5234.7670 eV
Total Mermin free energy:         -192.3741513061 H        -5234.7670 eV
Force related energy:             -192.3741513061 H        -5234.7670 eV

Volume:                              0.100486E+05 au^3   0.148905E+04 A^3
Pressure:                            0.243797E-05 au     0.717274E+08 Pa
>> Charges saved for restart in charges.bin

total energy  -1.9237415E+02 H       energy change -1.8152959E-04 H
gradient norm  1.0398909E-02 H/a0    max. gradient  2.2298451E-03 H/a0
step length    8.6973484E-02 a0      max. step      1.7457824E-02 a0

--------------------------------------------------------------------------------

***  Geometry step: 36

 iSCC Total electronic   Diff electronic      SCC error    
    1   -0.19433426E+03    0.00000000E+00    0.19457870E-02
    2   -0.19433400E+03    0.25580053E-03    0.11997906E-02
    3   -0.19433401E+03   -0.34922823E-05    0.34623917E-03
    4   -0.19433401E+03   -0.76322507E-06    0.44180914E-04
    5   -0.19433401E+03   -0.26659507E-07    0.79059059E-05
    6   -0.19433401E+03   -0.14210286E-08    0.25670833E-05
    7   -0.19433401E+03   -0.25011104E-10    0.93462544E-06
    8   -0.19433401E+03   -0.62527761E-12    0.16904105E-06
    9   -0.19433401E+03   -0.14210855E-12    0.26901844E-07
   10   -0.19433401E+03    0.00000000E+00    0.26346090E-08

Total Energy:                     -192.3743370185 H        -5234.7721 eV
Extrapolated to 0K:               -192.3743370185 H        -5234.7721 eV
Total Mermin free energy:         -192.3743370185 H        -5234.7721 eV
Force related energy:             -192.3743370185 H        -5234.7721 eV

Volume:                              0.100496E+05 au^3   0.148920E+04 A^3
Pressure:                            0.210595E-05 au     0.619591E+08 Pa
>> Charges saved for restart in charges.bin

total energy  -1.9237434E+02 H       energy change -1.8571240E-04 H
gradient norm  1.0209392E-02 H/a0    max. gradient  2.7300907E-03 H/a0
step length    1.0110839E-01 a0      max. step      2.0336542E-02 a0

--------------------------------------------------------------------------------

***  Geometry step: 37

 iSCC Total electronic   Diff electronic      SCC error    
    1   -0.19433401E+03    0.00000000E+00    0.18245949E-02
    2   -0.19433559E+03   -0.15819238E-02    0.11289033E-02
    3   -0.19433559E+03   -0.26476651E-05    0.31704505E-03
    4   -0.19433559E+03   -0.59597707E-06    0.33785323E-04
    5   -0.19433559E+03   -0.15837060E-07    0.59315024E-05
    6   -0.19433559E+03   -0.83656460E-09    0.14799370E-05
    7   -0.19433559E+03   -0.15205615E-10    0.45772757E-06
    8   -0.19433559E+03   -0.48316906E-12    0.12262350E-06
    9   -0.19433559E+03    0.28421709E-13    0.22964306E-07
   10   -0.19433559E+03   -0.56843419E-13    0.18935014E-08

Total Energy:                     -192.3744833596 H        -5234.7760 eV
Extrapolated to 0K:               -192.3744833596 H        -5234.7760 eV
Total Mermin free energy:         -192.3744833596 H        -5234.7760 eV
Force related energy:             -192.3744833596 H        -5234.7760 eV

Volume:                              0.100489E+05 au^3   0.148909E+04 A^3
Pressure:                            0.246863E-05 au     0.726295E+08 Pa
>> Charges saved for restart in charges.bin

total energy  -1.9237448E+02 H       energy change -1.4634117E-04 H
gradient norm  8.8779126E-03 H/a0    max. gradient  2.2175985E-03 H/a0
step length    7.6494718E-02 a0      max. step      1.6302310E-02 a0

--------------------------------------------------------------------------------

***  Geometry step: 38

 iSCC Total electronic   Diff electronic      SCC error    
    1   -0.19433559E+03    0.00000000E+00    0.20309558E-02
    2   -0.19433815E+03   -0.25540628E-02    0.96701396E-03
    3   -0.19433815E+03   -0.26464826E-05    0.29962979E-03
    4   -0.19433815E+03   -0.57712316E-06    0.25978550E-04
    5   -0.19433815E+03   -0.97007842E-08    0.63871135E-05
    6   -0.19433815E+03   -0.78225071E-09    0.17622356E-05
    7   -0.19433815E+03   -0.11340262E-10    0.39331382E-06
    8   -0.19433815E+03   -0.28421709E-12    0.73265830E-07
    9   -0.19433815E+03    0.00000000E+00    0.20297394E-07
   10   -0.19433815E+03    0.00000000E+00    0.12919115E-08

Total Energy:                     -192.3746089713 H        -5234.7795 eV
Extrapolated to 0K:               -192.3746089713 H        -5234.7795 eV
Total Mermin free energy:         -192.3746089713 H        -5234.7795 eV
Force related energy:             -192.3746089713 H        -5234.7795 eV

Volume:                              0.100484E+05 au^3   0.148901E+04 A^3
Pressure:                            0.312982E-05 au     0.920825E+08 Pa
>> Charges saved for restart in charges.bin

total energy  -1.9237461E+02 H       energy change -1.2561169E-04 H
gradient norm  7.6425852E-03 H/a0    max. gradient  1.3914451E-03 H/a0
step length    6.7337613E-02 a0      max. step      1.4590904E-02 a0

--------------------------------------------------------------------------------

***  Geometry step: 39

 iSCC Total electronic   Diff electronic      SCC error    
    1   -0.19433815E+03    0.00000000E+00    0.14663896E-02
    2   -0.19433985E+03   -0.16999837E-02    0.63857619E-03
    3   -0.19433985E+03   -0.16637666E-05    0.15228045E-03
    4   -0.19433985E+03   -0.37020314E-06    0.21439975E-04
    5   -0.19433985E+03   -0.47907633E-08    0.30815706E-05
    6   -0.19433985E+03   -0.40483883E-09    0.86170489E-06
    7   -0.19433985E+03   -0.86686214E-11    0.26015498E-06
    8   -0.19433985E+03   -0.25579538E-12    0.48834648E-07
    9   -0.19433985E+03    0.28421709E-13    0.10724405E-07
   10   -0.19433985E+03   -0.28421709E-13    0.20631843E-08

Total Energy:                     -192.3747025961 H        -5234.7820 eV
Extrapolated to 0K:               -192.3747025961 H        -5234.7820 eV
Total Mermin free energy:         -192.3747025961 H        -5234.7820 eV
Force related energy:             -192.3747025961 H        -5234.7820 eV

Volume:                              0.100494E+05 au^3   0.148917E+04 A^3
Pressure:                            0.337678E-05 au     0.993482E+08 Pa
>> Charges saved for restart in charges.bin

total energy  -1.9237470E+02 H       energy change -9.3624758E-05 H
gradient norm  7.4088433E-03 H/a0    max. gradient  1.3805306E-03 H/a0
step length    4.9967872E-02 a0      max. step      1.1013067E-02 a0

--------------------------------------------------------------------------------

***  Geometry step: 40

 iSCC Total electronic   Diff electronic      SCC error    
    1   -0.19433985E+03    0.00000000E+00    0.14011430E-02
    2   -0.19434153E+03   -0.16769343E-02    0.58297379E-03
    3   -0.19434153E+03   -0.19262836E-05    0.16353621E-03
    4   -0.19434153E+03   -0.42495913E-06    0.23344611E-04
    5   -0.19434153E+03   -0.55161138E-08    0.36632260E-05
    6   -0.19434153E+03   -0.48413540E-09    0.12650094E-05
    7   -0.19434153E+03   -0.12306600E-10    0.40287956E-06
    8   -0.19434153E+03   -0.31263880E-12    0.77163558E-07
    9   -0.19434153E+03    0.28421709E-13    0.15821159E-07
   10   -0.19434153E+03    0.00000000E+00    0.18586110E-08

Total Energy:                     -192.3748034579 H        -5234.7847 eV
Extrapolated to 0K:               -192.3748034579 H        -5234.7847 eV
Total Mermin free energy:         -192.3748034579 H        -5234.7847 eV
Force related energy:             -192.3748034579 H        -5234.7847 eV

Volume:                              0.100515E+05 au^3   0.148948E+04 A^3
Pressure:                            0.353462E-05 au     0.103992E+09 Pa
>> Charges saved for restart in charges.bin

total energy  -1.9237480E+02 H       energy change -1.0086185E-04 H
gradient norm  7.7819435E-03 H/a0    max. gradient  1.6942385E-03 H/a0
step length    6.0239745E-02 a0      max. step      1.3991537E-02 a0

--------------------------------------------------------------------------------

***  Geometry step: 41

 iSCC Total electronic   Diff electronic      SCC error    
    1   -0.19434153E+03    0.00000000E+00    0.11589469E-02
    2   -0.19434212E+03   -0.59005678E-03    0.60094945E-03
    3   -0.19434212E+03   -0.13593369E-05    0.14834116E-03
    4   -0.19434212E+03   -0.29414420E-06    0.26019544E-04
    5   -0.19434212E+03   -0.51582560E-08    0.51200381E-05
    6   -0.19434212E+03   -0.36686743E-09    0.94355107E-06
    7   -0.19434212E+03   -0.14665602E-10    0.29309143E-06
    8   -0.19434212E+03   -0.34106051E-12    0.88673491E-07
    9   -0.19434212E+03   -0.56843419E-13    0.14443684E-07
   10   -0.19434212E+03    0.11368684E-12    0.14075932E-08

Total Energy:                     -192.3748889459 H        -5234.7871 eV
Extrapolated to 0K:               -192.3748889459 H        -5234.7871 eV
Total Mermin free energy:         -192.3748889459 H        -5234.7871 eV
Force related energy:             -192.3748889459 H        -5234.7871 eV

Volume:                              0.100544E+05 au^3   0.148991E+04 A^3
Pressure:                            0.346222E-05 au     0.101862E+09 Pa
>> Charges saved for restart in charges.bin

total energy  -1.9237489E+02 H       energy change -8.5488001E-05 H
gradient norm  7.3782050E-03 H/a0    max. gradient  1.5184066E-03 H/a0
step length    5.3675407E-02 a0      max. step      1.3047879E-02 a0

--------------------------------------------------------------------------------

***  Geometry step: 42

 iSCC Total electronic   Diff electronic      SCC error    
    1   -0.19434212E+03    0.00000000E+00    0.16569325E-02
    2   -0.19434180E+03    0.32532643E-03    0.75854014E-03
    3   -0.19434180E+03   -0.23306744E-05    0.22490672E-03
    4   -0.19434180E+03   -0.47096282E-06    0.41108731E-04
    5   -0.19434180E+03   -0.74776949E-08    0.72787434E-05
    6   -0.19434180E+03   -0.57269745E-09    0.15210197E-05
    7   -0.19434180E+03   -0.18332003E-10    0.33934098E-06
    8   -0.19434180E+03   -0.39790393E-12    0.10585073E-06
    9   -0.19434180E+03   -0.85265128E-13    0.19324033E-07
   10   -0.19434180E+03    0.28421709E-13    0.20682744E-08

Total Energy:                     -192.3749820524 H        -5234.7896 eV
Extrapolated to 0K:               -192.3749820524 H        -5234.7896 eV
Total Mermin free energy:         -192.3749820524 H        -5234.7896 eV
Force related energy:             -192.3749820524 H        -5234.7896 eV

Volume:                              0.100591E+05 au^3   0.149060E+04 A^3
Pressure:                            0.305561E-05 au     0.898991E+08 Pa
>> Charges saved for restart in charges.bin

total energy  -1.9237498E+02 H       energy change -9.3106494E-05 H
gradient norm  6.8058785E-03 H/a0    max. gradient  1.3038276E-03 H/a0
step length    6.4520552E-02 a0      max. step      1.5991694E-02 a0

--------------------------------------------------------------------------------

***  Geometry step: 43

 iSCC Total electronic   Diff electronic      SCC error    
    1   -0.19434180E+03    0.00000000E+00    0.17029256E-02
    2   -0.19434114E+03    0.66338815E-03    0.59838515E-03
    3   -0.19434114E+03   -0.19017308E-05    0.17824761E-03
    4   -0.19434114E+03   -0.35982646E-06    0.34540069E-04
    5   -0.19434114E+03   -0.54567693E-08    0.59679012E-05
    6   -0.19434114E+03   -0.45477577E-09    0.15441072E-05
    7   -0.19434114E+03   -0.12221335E-10    0.29822561E-06
    8   -0.19434114E+03   -0.31263880E-12    0.74150591E-07
    9   -0.19434114E+03    0.28421709E-13    0.16908120E-07
   10   -0.19434114E+03   -0.56843419E-13    0.21980986E-08

Total Energy:                     -192.3750612303 H        -5234.7918 eV
Extrapolated to 0K:               -192.3750612303 H        -5234.7918 eV
Total Mermin free energy:         -192.3750612303 H        -5234.7918 eV
Force related energy:             -192.3750612303 H        -5234.7918 eV

Volume:                              0.100641E+05 au^3   0.149135E+04 A^3
Pressure:                            0.256164E-05 au     0.753661E+08 Pa
>> Charges saved for restart in charges.bin

total energy  -1.9237506E+02 H       energy change -7.9177836E-05 H
gradient norm  6.9342267E-03 H/a0    max. gradient  1.7142782E-03 H/a0
step length    5.8648855E-02 a0      max. step      1.4892678E-02 a0

--------------------------------------------------------------------------------

***  Geometry step: 44

 iSCC Total electronic   Diff electronic      SCC error    
    1   -0.19434114E+03    0.00000000E+00    0.17753266E-02
    2   -0.19434042E+03    0.71377112E-03    0.61014517E-03
    3   -0.19434043E+03   -0.21319385E-05    0.19055236E-03
    4   -0.19434043E+03   -0.41236717E-06    0.36207783E-04
    5   -0.19434043E+03   -0.66515042E-08    0.49663744E-05
    6   -0.19434043E+03   -0.64747496E-09    0.11307715E-05
    7   -0.19434043E+03   -0.16655122E-10    0.31518077E-06
    8   -0.19434043E+03   -0.17053026E-12    0.64609734E-07
    9   -0.19434043E+03   -0.56843419E-13    0.16251889E-07
   10   -0.19434043E+03    0.28421709E-13    0.26751197E-08

Total Energy:                     -192.3751513110 H        -5234.7942 eV
Extrapolated to 0K:               -192.3751513110 H        -5234.7942 eV
Total Mermin free energy:         -192.3751513110 H        -5234.7942 eV
Force related energy:             -192.3751513110 H        -5234.7942 eV

Volume:                              0.100703E+05 au^3   0.149226E+04 A^3
Pressure:                            0.185606E-05 au     0.546070E+08 Pa
>> Charges saved for restart in charges.bin

total energy  -1.9237515E+02 H       energy change -9.0080775E-05 H
gradient norm  7.4493409E-03 H/a0    max. gradient  1.7603066E-03 H/a0
step length    6.8543970E-02 a0      max. step      1.7848685E-02 a0

--------------------------------------------------------------------------------

***  Geometry step: 45

 iSCC Total electronic   Diff electronic      SCC error    
    1   -0.19434043E+03    0.00000000E+00    0.11692479E-02
    2   -0.19434039E+03    0.33701102E-04    0.60394929E-03
    3   -0.19434040E+03   -0.17538519E-05    0.19602231E-03
    4   -0.19434040E+03   -0.35883443E-06    0.30357556E-04
    5   -0.19434040E+03   -0.53867666E-08    0.34857086E-05
    6   -0.19434040E+03   -0.58665250E-09    0.60069721E-06
    7   -0.19434040E+03   -0.12420287E-10    0.20535446E-06
    8   -0.19434040E+03   -0.11368684E-12    0.42732504E-07
    9   -0.19434040E+03    0.56843419E-13    0.12247399E-07
   10   -0.19434040E+03    0.28421709E-13    0.19746538E-08

Total Energy:                     -192.3752449716 H        -5234.7968 eV
Extrapolated to 0K:               -192.3752449716 H        -5234.7968 eV
Total Mermin free energy:         -192.3752449716 H        -5234.7968 eV
Force related energy:             -192.3752449716 H        -5234.7968 eV

Volume:                              0.100766E+05 au^3   0.149319E+04 A^3
Pressure:                            0.143423E-05 au     0.421966E+08 Pa
>> Charges saved for restart in charges.bin

total energy  -1.9237524E+02 H       energy change -9.3660563E-05 H
gradient norm  7.2717064E-03 H/a0    max. gradient  1.8468126E-03 H/a0
step length    7.0743746E-02 a0      max. step      1.8378555E-02 a0

--------------------------------------------------------------------------------

***  Geometry step: 46

 iSCC Total electronic   Diff electronic      SCC error    
    1   -0.19434040E+03    0.00000000E+00    0.11778643E-02
    2   -0.19434072E+03   -0.32223869E-03    0.52438381E-03
    3   -0.19434072E+03   -0.15562408E-05    0.13197764E-03
    4   -0.19434072E+03   -0.34647081E-06    0.17078309E-04
    5   -0.19434072E+03   -0.38170640E-08    0.34404183E-05
    6   -0.19434072E+03   -0.34134473E-09    0.84875955E-06
    7   -0.19434072E+03   -0.73896445E-11    0.19601754E-06
    8   -0.19434072E+03   -0.85265128E-13    0.47588232E-07
    9   -0.19434072E+03    0.00000000E+00    0.14273029E-07
   10   -0.19434072E+03    0.00000000E+00    0.16719781E-08

Total Energy:                     -192.3753290711 H        -5234.7990 eV
Extrapolated to 0K:               -192.3753290711 H        -5234.7990 eV
Total Mermin free energy:         -192.3753290711 H        -5234.7990 eV
Force related energy:             -192.3753290711 H        -5234.7990 eV

Volume:                              0.100824E+05 au^3   0.149405E+04 A^3
Pressure:                            0.998562E-06 au     0.293787E+08 Pa
>> Charges saved for restart in charges.bin

total energy  -1.9237533E+02 H       energy change -8.4099537E-05 H
gradient norm  6.6336102E-03 H/a0    max. gradient  1.8128023E-03 H/a0
step length    7.1336774E-02 a0      max. step      1.8584153E-02 a0

--------------------------------------------------------------------------------

***  Geometry step: 47

 iSCC Total electronic   Diff electronic      SCC error    
    1   -0.19434072E+03    0.00000000E+00    0.15199584E-02
    2   -0.19434199E+03   -0.12674541E-02    0.66724425E-03
    3   -0.19434199E+03   -0.13608276E-05    0.12822457E-03
    4   -0.19434199E+03   -0.29718910E-06    0.15604808E-04
    5   -0.19434199E+03   -0.26694806E-08    0.39276090E-05
    6   -0.19434199E+03   -0.20139623E-09    0.84977933E-06
    7   -0.19434199E+03   -0.35527137E-11    0.16658831E-06
    8   -0.19434199E+03    0.00000000E+00    0.45404498E-07
    9   -0.19434199E+03   -0.85265128E-13    0.15567312E-07
   10   -0.19434199E+03    0.56843419E-13    0.16462227E-08

Total Energy:                     -192.3753990441 H        -5234.8010 eV
Extrapolated to 0K:               -192.3753990441 H        -5234.8010 eV
Total Mermin free energy:         -192.3753990441 H        -5234.8010 eV
Force related energy:             -192.3753990441 H        -5234.8010 eV

Volume:                              0.100858E+05 au^3   0.149457E+04 A^3
Pressure:                            0.843689E-06 au     0.248222E+08 Pa
>> Charges saved for restart in charges.bin

total energy  -1.9237540E+02 H       energy change -6.9972927E-05 H
gradient norm  6.2397393E-03 H/a0    max. gradient  1.1624682E-03 H/a0
step length    5.5765596E-02 a0      max. step      1.4288036E-02 a0

--------------------------------------------------------------------------------

***  Geometry step: 48

 iSCC Total electronic   Diff electronic      SCC error    
    1   -0.19434199E+03    0.00000000E+00    0.15481970E-02
    2   -0.19434447E+03   -0.24816504E-02    0.68004199E-03
    3   -0.19434447E+03   -0.17119438E-05    0.12969099E-03
    4   -0.19434447E+03   -0.35970740E-06    0.20919089E-04
    5   -0.19434447E+03   -0.40998032E-08    0.41744972E-05
    6   -0.19434447E+03   -0.32366643E-09    0.11390948E-05
    7   -0.19434447E+03   -0.90381036E-11    0.26880769E-06
    8   -0.19434447E+03   -0.28421709E-12    0.64694780E-07
    9   -0.19434447E+03    0.00000000E+00    0.18170798E-07
   10   -0.19434447E+03    0.28421709E-13    0.27911611E-08

Total Energy:                     -192.3754691017 H        -5234.8029 eV
Extrapolated to 0K:               -192.3754691017 H        -5234.8029 eV
Total Mermin free energy:         -192.3754691017 H        -5234.8029 eV
Force related energy:             -192.3754691017 H        -5234.8029 eV

Volume:                              0.100880E+05 au^3   0.149488E+04 A^3
Pressure:                            0.127574E-05 au     0.375334E+08 Pa
>> Charges saved for restart in charges.bin

total energy  -1.9237547E+02 H       energy change -7.0057653E-05 H
gradient norm  6.6343201E-03 H/a0    max. gradient  1.1671664E-03 H/a0
step length    5.6922180E-02 a0      max. step      1.4169825E-02 a0

--------------------------------------------------------------------------------

***  Geometry step: 49

 iSCC Total electronic   Diff electronic      SCC error    
    1   -0.19434447E+03    0.00000000E+00    0.10784255E-02
    2   -0.19434601E+03   -0.15374681E-02    0.47890781E-03
    3   -0.19434601E+03   -0.94823170E-06    0.12989598E-03
    4   -0.19434601E+03   -0.19499413E-06    0.16846987E-04
    5   -0.19434601E+03   -0.34993377E-08    0.23463201E-05
    6   -0.19434601E+03   -0.30615865E-09    0.67614249E-06
    7   -0.19434601E+03   -0.73328010E-11    0.21110501E-06
    8   -0.19434601E+03   -0.85265128E-13    0.53103969E-07
    9   -0.19434601E+03   -0.11368684E-12    0.89502463E-08

Total Energy:                     -192.3755362455 H        -5234.8047 eV
Extrapolated to 0K:               -192.3755362455 H        -5234.8047 eV
Total Mermin free energy:         -192.3755362455 H        -5234.8047 eV
Force related energy:             -192.3755362455 H        -5234.8047 eV

Volume:                              0.100903E+05 au^3   0.149523E+04 A^3
Pressure:                            0.159021E-05 au     0.467855E+08 Pa
>> Charges saved for restart in charges.bin

total energy  -1.9237554E+02 H       energy change -6.7143780E-05 H
gradient norm  6.7362439E-03 H/a0    max. gradient  1.3655333E-03 H/a0
step length    5.3541872E-02 a0      max. step      1.2902849E-02 a0

--------------------------------------------------------------------------------

***  Geometry step: 50

 iSCC Total electronic   Diff electronic      SCC error    
    1   -0.19434601E+03    0.00000000E+00    0.15090567E-02
    2   -0.19434672E+03   -0.71055551E-03    0.67078793E-03
    3   -0.19434672E+03   -0.16124768E-05    0.19987240E-03
    4   -0.19434672E+03   -0.34863743E-06    0.20412395E-04
    5   -0.19434672E+03   -0.78838696E-08    0.58336674E-05
    6   -0.19434672E+03   -0.56854788E-09    0.12621605E-05
    7   -0.19434672E+03   -0.11226575E-10    0.31841307E-06
    8   -0.19434672E+03   -0.34106051E-12    0.79532242E-07
    9   -0.19434672E+03    0.56843419E-13    0.23260757E-07
   10   -0.19434672E+03   -0.85265128E-13    0.24865923E-08

Total Energy:                     -192.3756262776 H        -5234.8071 eV
Extrapolated to 0K:               -192.3756262776 H        -5234.8071 eV
Total Mermin free energy:         -192.3756262776 H        -5234.8071 eV
Force related energy:             -192.3756262776 H        -5234.8071 eV

Volume:                              0.100948E+05 au^3   0.149589E+04 A^3
Pressure:                            0.151651E-05 au     0.446172E+08 Pa
>> Charges saved for restart in charges.bin

total energy  -1.9237563E+02 H       energy change -9.0032147E-05 H
gradient norm  6.7604464E-03 H/a0    max. gradient  1.5461577E-03 H/a0
step length    8.2810235E-02 a0      max. step      1.9401571E-02 a0

--------------------------------------------------------------------------------

***  Geometry step: 51

 iSCC Total electronic   Diff electronic      SCC error    
    1   -0.19434672E+03    0.00000000E+00    0.14120123E-02
    2   -0.19434651E+03    0.21806986E-03    0.60842750E-03
    3   -0.19434651E+03   -0.11833965E-05    0.16631127E-03
    4   -0.19434651E+03   -0.27230868E-06    0.17932967E-04
    5   -0.19434651E+03   -0.48499942E-08    0.69320370E-05
    6   -0.19434651E+03   -0.34862069E-09    0.10021789E-05
    7   -0.19434651E+03   -0.41779913E-11    0.18641674E-06
    8   -0.19434651E+03   -0.14210855E-12    0.57914018E-07
    9   -0.19434651E+03    0.85265128E-13    0.13351087E-07
   10   -0.19434651E+03   -0.56843419E-13    0.16025696E-08

Total Energy:                     -192.3756952266 H        -5234.8090 eV
Extrapolated to 0K:               -192.3756952266 H        -5234.8090 eV
Total Mermin free energy:         -192.3756952266 H        -5234.8090 eV
Force related energy:             -192.3756952266 H        -5234.8090 eV

Volume:                              0.100983E+05 au^3   0.149641E+04 A^3
Pressure:                            0.122390E-05 au     0.360085E+08 Pa
>> Charges saved for restart in charges.bin

total energy  -1.9237570E+02 H       energy change -6.8948922E-05 H
gradient norm  6.4003069E-03 H/a0    max. gradient  1.3412456E-03 H/a0
step length    6.5961897E-02 a0      max. step      1.4781327E-02 a0

--------------------------------------------------------------------------------

***  Geometry step: 52

 iSCC Total electronic   Diff electronic      SCC error    
[...]
Force related energy:             -192.3786821914 H        -5234.8903 eV

Volume:                              0.100453E+05 au^3   0.148856E+04 A^3
Pressure:                            0.765549E-07 au     0.225232E+07 Pa
>> Charges saved for restart in charges.bin

total energy  -1.9237868E+02 H       energy change -1.9946949E-06 H
gradient norm  9.9062318E-04 H/a0    max. gradient  2.3840672E-04 H/a0
step length    1.2830925E-02 a0      max. step      2.8253980E-03 a0

--------------------------------------------------------------------------------

***  Geometry step: 139

 iSCC Total electronic   Diff electronic      SCC error    
    1   -0.19434762E+03    0.00000000E+00    0.18635982E-03
    2   -0.19434759E+03    0.34180019E-04    0.96493846E-04
    3   -0.19434759E+03   -0.43570793E-07    0.27621890E-04
    4   -0.19434759E+03   -0.96096073E-08    0.44413175E-05
    5   -0.19434759E+03   -0.96179065E-10    0.88863677E-06
    6   -0.19434759E+03   -0.76738615E-11    0.22236594E-06
    7   -0.19434759E+03   -0.28421709E-12    0.16643097E-07
    8   -0.19434759E+03   -0.28421709E-13    0.42819832E-08

Total Energy:                     -192.3786835352 H        -5234.8903 eV
Extrapolated to 0K:               -192.3786835352 H        -5234.8903 eV
Total Mermin free energy:         -192.3786835352 H        -5234.8903 eV
Force related energy:             -192.3786835352 H        -5234.8903 eV

Volume:                              0.100454E+05 au^3   0.148857E+04 A^3
Pressure:                            0.217445E-07 au     0.639745E+06 Pa
>> Charges saved for restart in charges.bin

total energy  -1.9237868E+02 H       energy change -1.3438139E-06 H
gradient norm  9.0310105E-04 H/a0    max. gradient  1.8983240E-04 H/a0
step length    3.7677172E-03 a0      max. step      9.1571299E-04 a0

--------------------------------------------------------------------------------

***  Geometry step: 140

 iSCC Total electronic   Diff electronic      SCC error    
    1   -0.19434759E+03    0.00000000E+00    0.16762177E-03
    2   -0.19434763E+03   -0.46122804E-04    0.79100206E-04
    3   -0.19434763E+03   -0.35896846E-07    0.26389821E-04
    4   -0.19434763E+03   -0.72224680E-08    0.38616205E-05
    5   -0.19434763E+03   -0.76710194E-10    0.52772657E-06
    6   -0.19434763E+03   -0.76454398E-11    0.17270991E-06
    7   -0.19434763E+03   -0.14210855E-12    0.17389849E-07
    8   -0.19434763E+03   -0.14210855E-12    0.44150297E-08

Total Energy:                     -192.3786847754 H        -5234.8904 eV
Extrapolated to 0K:               -192.3786847754 H        -5234.8904 eV
Total Mermin free energy:         -192.3786847754 H        -5234.8904 eV
Force related energy:             -192.3786847754 H        -5234.8904 eV

Volume:                              0.100453E+05 au^3   0.148857E+04 A^3
Pressure:                            0.719985E-07 au     0.211827E+07 Pa
>> Charges saved for restart in charges.bin

total energy  -1.9237868E+02 H       energy change -1.2402413E-06 H
gradient norm  9.3684499E-04 H/a0    max. gradient  2.0920468E-04 H/a0
step length    4.1940926E-03 a0      max. step      1.1298720E-03 a0

--------------------------------------------------------------------------------

***  Geometry step: 141

 iSCC Total electronic   Diff electronic      SCC error    
    1   -0.19434763E+03    0.00000000E+00    0.19840607E-03
    2   -0.19434754E+03    0.95628061E-04    0.88684975E-04
    3   -0.19434754E+03   -0.19831134E-07    0.17988388E-04
    4   -0.19434754E+03   -0.44869068E-08    0.40721840E-05
    5   -0.19434754E+03   -0.49169557E-10    0.27576857E-06
    6   -0.19434754E+03   -0.32116532E-11    0.63429678E-07
    7   -0.19434754E+03   -0.19895197E-12    0.15281785E-07
    8   -0.19434754E+03   -0.28421709E-13    0.25635050E-08

Total Energy:                     -192.3786859013 H        -5234.8904 eV
Extrapolated to 0K:               -192.3786859013 H        -5234.8904 eV
Total Mermin free energy:         -192.3786859013 H        -5234.8904 eV
Force related energy:             -192.3786859013 H        -5234.8904 eV

Volume:                              0.100454E+05 au^3   0.148858E+04 A^3
Pressure:                            0.409148E-07 au     0.120376E+07 Pa
>> Charges saved for restart in charges.bin

total energy  -1.9237869E+02 H       energy change -1.1258727E-06 H
gradient norm  9.1372694E-04 H/a0    max. gradient  2.0037678E-04 H/a0
step length    3.6640549E-03 a0      max. step      1.0497698E-03 a0

--------------------------------------------------------------------------------

***  Geometry step: 142

 iSCC Total electronic   Diff electronic      SCC error    
    1   -0.19434754E+03    0.00000000E+00    0.27460853E-03
    2   -0.19434732E+03    0.21723389E-03    0.12567329E-03
    3   -0.19434732E+03   -0.38554219E-07    0.19756547E-04
    4   -0.19434732E+03   -0.88627132E-08    0.30550125E-05
    5   -0.19434732E+03   -0.72446937E-10    0.46604716E-06
    6   -0.19434732E+03   -0.61390892E-11    0.76585830E-07
    7   -0.19434732E+03   -0.28421709E-12    0.16890791E-07
    8   -0.19434732E+03    0.28421709E-13    0.42402104E-08

Total Energy:                     -192.3786873461 H        -5234.8904 eV
Extrapolated to 0K:               -192.3786873461 H        -5234.8904 eV
Total Mermin free energy:         -192.3786873461 H        -5234.8904 eV
Force related energy:             -192.3786873461 H        -5234.8904 eV

Volume:                              0.100456E+05 au^3   0.148861E+04 A^3
Pressure:                           -0.665493E-07 au    -0.195795E+07 Pa
>> Charges saved for restart in charges.bin

total energy  -1.9237869E+02 H       energy change -1.4447469E-06 H
gradient norm  9.9600920E-04 H/a0    max. gradient  2.0699493E-04 H/a0
step length    6.3300608E-03 a0      max. step      1.5975883E-03 a0

--------------------------------------------------------------------------------

***  Geometry step: 143

 iSCC Total electronic   Diff electronic      SCC error    
    1   -0.19434732E+03    0.00000000E+00    0.14943991E-03
    2   -0.19434725E+03    0.67975587E-04    0.64288224E-04
    3   -0.19434725E+03   -0.17348782E-07    0.19818359E-04
    4   -0.19434725E+03   -0.37469192E-08    0.23584099E-05
    5   -0.19434725E+03   -0.44167336E-10    0.32717015E-06
    6   -0.19434725E+03   -0.35527137E-11    0.60002092E-07
    7   -0.19434725E+03    0.00000000E+00    0.13608359E-07
    8   -0.19434725E+03   -0.14210855E-12    0.36927430E-08

Total Energy:                     -192.3786886682 H        -5234.8905 eV
Extrapolated to 0K:               -192.3786886682 H        -5234.8905 eV
Total Mermin free energy:         -192.3786886682 H        -5234.8905 eV
Force related energy:             -192.3786886682 H        -5234.8905 eV

Volume:                              0.100458E+05 au^3   0.148863E+04 A^3
Pressure:                           -0.104667E-06 au    -0.307941E+07 Pa
>> Charges saved for restart in charges.bin

total energy  -1.9237869E+02 H       energy change -1.3221812E-06 H
gradient norm  9.2275764E-04 H/a0    max. gradient  2.4873896E-04 H/a0
step length    7.0218774E-03 a0      max. step      1.7507609E-03 a0

--------------------------------------------------------------------------------

***  Geometry step: 144

 iSCC Total electronic   Diff electronic      SCC error    
    1   -0.19434725E+03    0.00000000E+00    0.18010645E-03
    2   -0.19434735E+03   -0.94122252E-04    0.75831774E-04
    3   -0.19434735E+03   -0.23653826E-07    0.23743072E-04
    4   -0.19434735E+03   -0.47527635E-08    0.29508130E-05
    5   -0.19434735E+03   -0.69121597E-10    0.32295502E-06
    6   -0.19434735E+03   -0.56274985E-11    0.72085407E-07
    7   -0.19434735E+03   -0.11368684E-12    0.11421462E-07
    8   -0.19434735E+03    0.28421709E-13    0.33389456E-08

Total Energy:                     -192.3786900797 H        -5234.8905 eV
Extrapolated to 0K:               -192.3786900797 H        -5234.8905 eV
Total Mermin free energy:         -192.3786900797 H        -5234.8905 eV
Force related energy:             -192.3786900797 H        -5234.8905 eV

Volume:                              0.100457E+05 au^3   0.148862E+04 A^3
Pressure:                           -0.888505E-07 au    -0.261407E+07 Pa
>> Charges saved for restart in charges.bin

total energy  -1.9237869E+02 H       energy change -1.4114202E-06 H
gradient norm  9.8376068E-04 H/a0    max. gradient  2.3961267E-04 H/a0
step length    9.7714309E-03 a0      max. step      2.1337189E-03 a0

--------------------------------------------------------------------------------

***  Geometry step: 145

 iSCC Total electronic   Diff electronic      SCC error    
    1   -0.19434735E+03    0.00000000E+00    0.19502653E-03
    2   -0.19434751E+03   -0.15890212E-03    0.97292739E-04
    3   -0.19434751E+03   -0.29305767E-07    0.29348913E-04
    4   -0.19434751E+03   -0.62213132E-08    0.32633955E-05
    5   -0.19434751E+03   -0.79637630E-10    0.41020425E-06
    6   -0.19434751E+03   -0.70485839E-11    0.10680436E-06
    7   -0.19434751E+03   -0.19895197E-12    0.14274877E-07
    8   -0.19434751E+03    0.28421709E-13    0.33936125E-08

Total Energy:                     -192.3786915100 H        -5234.8905 eV
Extrapolated to 0K:               -192.3786915100 H        -5234.8905 eV
Total Mermin free energy:         -192.3786915100 H        -5234.8905 eV
Force related energy:             -192.3786915100 H        -5234.8905 eV

Volume:                              0.100456E+05 au^3   0.148861E+04 A^3
Pressure:                           -0.176341E-07 au    -0.518813E+06 Pa
>> Charges saved for restart in charges.bin

total energy  -1.9237869E+02 H       energy change -1.4303721E-06 H
gradient norm  8.9842616E-04 H/a0    max. gradient  2.0976273E-04 H/a0
step length    1.0470583E-02 a0      max. step      2.0554553E-03 a0

--------------------------------------------------------------------------------

***  Geometry step: 146

 iSCC Total electronic   Diff electronic      SCC error    
    1   -0.19434751E+03    0.00000000E+00    0.17202085E-03
    2   -0.19434763E+03   -0.12778614E-03    0.66185742E-04
    3   -0.19434763E+03   -0.19520172E-07    0.16424170E-04
    4   -0.19434763E+03   -0.45387480E-08    0.17398797E-05
    5   -0.19434763E+03   -0.51755933E-10    0.46188879E-06
    6   -0.19434763E+03   -0.31548097E-11    0.99102545E-07
    7   -0.19434763E+03   -0.85265128E-13    0.12280535E-07
    8   -0.19434763E+03    0.85265128E-13    0.39562575E-08

Total Energy:                     -192.3786926658 H        -5234.8906 eV
Extrapolated to 0K:               -192.3786926658 H        -5234.8906 eV
Total Mermin free energy:         -192.3786926658 H        -5234.8906 eV
Force related energy:             -192.3786926658 H        -5234.8906 eV

Volume:                              0.100456E+05 au^3   0.148861E+04 A^3
Pressure:                           -0.125090E-07 au    -0.368026E+06 Pa
>> Charges saved for restart in charges.bin

total energy  -1.9237869E+02 H       energy change -1.1557464E-06 H
gradient norm  7.3744110E-04 H/a0    max. gradient  1.4022482E-04 H/a0
step length    3.4574283E-03 a0      max. step      7.2561913E-04 a0

--------------------------------------------------------------------------------

***  Geometry step: 147

 iSCC Total electronic   Diff electronic      SCC error    
    1   -0.19434763E+03    0.00000000E+00    0.26348132E-03
    2   -0.19434783E+03   -0.20005766E-03    0.11379617E-03
    3   -0.19434783E+03   -0.30218871E-07    0.24083580E-04
    4   -0.19434783E+03   -0.68458519E-08    0.31359127E-05
    5   -0.19434783E+03   -0.78159701E-10    0.53010203E-06
    6   -0.19434783E+03   -0.54001248E-11    0.12907550E-06
    7   -0.19434783E+03   -0.19895197E-12    0.15529887E-07
    8   -0.19434783E+03    0.00000000E+00    0.47574362E-08

Total Energy:                     -192.3786936060 H        -5234.8906 eV
Extrapolated to 0K:               -192.3786936060 H        -5234.8906 eV
Total Mermin free energy:         -192.3786936060 H        -5234.8906 eV
Force related energy:             -192.3786936060 H        -5234.8906 eV

Volume:                              0.100456E+05 au^3   0.148861E+04 A^3
Pressure:                            0.602490E-07 au     0.177259E+07 Pa
>> Charges saved for restart in charges.bin

total energy  -1.9237869E+02 H       energy change -9.4018355E-07 H
gradient norm  6.7725750E-04 H/a0    max. gradient  1.8830453E-04 H/a0
step length    4.3428031E-03 a0      max. step      1.0029539E-03 a0

--------------------------------------------------------------------------------

***  Geometry step: 148

 iSCC Total electronic   Diff electronic      SCC error    
    1   -0.19434783E+03    0.00000000E+00    0.82583756E-04
    2   -0.19434779E+03    0.40602875E-04    0.45216612E-04
    3   -0.19434779E+03   -0.97417967E-08    0.17556256E-04
    4   -0.19434779E+03   -0.20921505E-08    0.16652813E-05
    5   -0.19434779E+03   -0.25238478E-10    0.15339735E-06
    6   -0.19434779E+03   -0.21316282E-11    0.44412870E-07
    7   -0.19434779E+03    0.56843419E-13    0.77662041E-08

Total Energy:                     -192.3786943062 H        -5234.8906 eV
Extrapolated to 0K:               -192.3786943062 H        -5234.8906 eV
Total Mermin free energy:         -192.3786943062 H        -5234.8906 eV
Force related energy:             -192.3786943062 H        -5234.8906 eV

Volume:                              0.100455E+05 au^3   0.148860E+04 A^3
Pressure:                            0.556774E-07 au     0.163808E+07 Pa
>> Charges saved for restart in charges.bin

total energy  -1.9237869E+02 H       energy change -7.0029139E-07 H
gradient norm  7.3295386E-04 H/a0    max. gradient  2.2131662E-04 H/a0
step length    4.9252325E-03 a0      max. step      1.2537906E-03 a0

--------------------------------------------------------------------------------

***  Geometry step: 149

 iSCC Total electronic   Diff electronic      SCC error    
    1   -0.19434779E+03    0.00000000E+00    0.13982069E-03
    2   -0.19434768E+03    0.11572052E-03    0.56753347E-04
    3   -0.19434768E+03   -0.18009473E-07    0.15851590E-04
    4   -0.19434768E+03   -0.39765098E-08    0.28152109E-05
    5   -0.19434768E+03   -0.31263880E-10    0.24986406E-06
    6   -0.19434768E+03   -0.30411229E-11    0.67977222E-07
    7   -0.19434768E+03   -0.14210855E-12    0.10639507E-07
    8   -0.19434768E+03    0.11368684E-12    0.19250876E-08

Total Energy:                     -192.3786951714 H        -5234.8906 eV
Extrapolated to 0K:               -192.3786951714 H        -5234.8906 eV
Total Mermin free energy:         -192.3786951714 H        -5234.8906 eV
Force related energy:             -192.3786951714 H        -5234.8906 eV

Volume:                              0.100455E+05 au^3   0.148859E+04 A^3
Pressure:                           -0.103216E-07 au    -0.303671E+06 Pa
>> Charges saved for restart in charges.bin

total energy  -1.9237870E+02 H       energy change -8.6518816E-07 H
gradient norm  7.3196354E-04 H/a0    max. gradient  1.6473591E-04 H/a0
step length    7.4749091E-03 a0      max. step      1.9524695E-03 a0

--------------------------------------------------------------------------------

***  Geometry step: 150

 iSCC Total electronic   Diff electronic      SCC error    
    1   -0.19434768E+03    0.00000000E+00    0.11535997E-03
    2   -0.19434764E+03    0.42500386E-04    0.48739790E-04
    3   -0.19434764E+03   -0.11340006E-07    0.10175889E-04
    4   -0.19434764E+03   -0.24375311E-08    0.21145880E-05
    5   -0.19434764E+03   -0.32059688E-10    0.44634173E-06
    6   -0.19434764E+03   -0.30411229E-11    0.87256026E-07
    7   -0.19434764E+03   -0.85265128E-13    0.93283852E-08

Total Energy:                     -192.3786961015 H        -5234.8907 eV
Extrapolated to 0K:               -192.3786961015 H        -5234.8907 eV
Total Mermin free energy:         -192.3786961015 H        -5234.8907 eV
Force related energy:             -192.3786961015 H        -5234.8907 eV

Volume:                              0.100452E+05 au^3   0.148854E+04 A^3
Pressure:                            0.577188E-08 au     0.169815E+06 Pa
>> Charges saved for restart in charges.bin

total energy  -1.9237870E+02 H       energy change -9.3011337E-07 H
gradient norm  6.7923223E-04 H/a0    max. gradient  1.2257198E-04 H/a0
step length    7.3951646E-03 a0      max. step      1.6946455E-03 a0

--------------------------------------------------------------------------------

***  Geometry step: 151

 iSCC Total electronic   Diff electronic      SCC error    
    1   -0.19434764E+03    0.00000000E+00    0.17586074E-03
    2   -0.19434764E+03   -0.90141502E-05    0.78139344E-04
    3   -0.19434764E+03   -0.25159125E-07    0.25953284E-04
    4   -0.19434764E+03   -0.50971209E-08    0.29249198E-05
    5   -0.19434764E+03   -0.10851409E-09    0.76577956E-06
    6   -0.19434764E+03   -0.70485839E-11    0.14517161E-06
    7   -0.19434764E+03   -0.56843419E-13    0.17487114E-07
    8   -0.19434764E+03    0.28421709E-13    0.61280434E-08

Total Energy:                     -192.3786971688 H        -5234.8907 eV
Extrapolated to 0K:               -192.3786971688 H        -5234.8907 eV
Total Mermin free energy:         -192.3786971688 H        -5234.8907 eV
Force related energy:             -192.3786971688 H        -5234.8907 eV

Volume:                              0.100447E+05 au^3   0.148848E+04 A^3
Pressure:                            0.623853E-07 au     0.183544E+07 Pa
>> Charges saved for restart in charges.bin

total energy  -1.9237870E+02 H       energy change -1.0672783E-06 H
gradient norm  6.2219968E-04 H/a0    max. gradient  1.3611987E-04 H/a0
step length    8.8855651E-03 a0      max. step      1.9977375E-03 a0

--------------------------------------------------------------------------------

***  Geometry step: 152

 iSCC Total electronic   Diff electronic      SCC error    
    1   -0.19434764E+03    0.00000000E+00    0.14633615E-03
    2   -0.19434761E+03    0.36707253E-04    0.91703829E-04
    3   -0.19434761E+03   -0.10988771E-07    0.28170808E-04
    4   -0.19434761E+03   -0.24811015E-08    0.21299802E-05
    5   -0.19434761E+03   -0.57241323E-10    0.55235129E-06
    6   -0.19434761E+03   -0.36948222E-11    0.13740185E-06
    7   -0.19434761E+03   -0.11368684E-12    0.13060494E-07
    8   -0.19434761E+03    0.56843419E-13    0.32717646E-08

Total Energy:                     -192.3786977555 H        -5234.8907 eV
Extrapolated to 0K:               -192.3786977555 H        -5234.8907 eV
Total Mermin free energy:         -192.3786977555 H        -5234.8907 eV
Force related energy:             -192.3786977555 H        -5234.8907 eV

Volume:                              0.100447E+05 au^3   0.148847E+04 A^3
Pressure:                            0.467540E-07 au     0.137555E+07 Pa
>> Charges saved for restart in charges.bin

total energy  -1.9237870E+02 H       energy change -5.8665029E-07 H
gradient norm  5.0412015E-04 H/a0    max. gradient  9.8755713E-05 H/a0
step length    2.5027894E-03 a0      max. step      5.3615675E-04 a0

Geometry converged

--------------------------------------------------------------------------------
DFTB+ running times                          cpu [s]             wall clock [s]
--------------------------------------------------------------------------------
Pre-SCC initialisation                 +       5.33 (  0.2%)       2.42 (  0.8%)
SCC                                    +    2043.93 ( 92.2%)     267.97 ( 90.0%)
Post-SCC processing                    +     168.61 (  7.6%)      27.41 (  9.2%)
--------------------------------------------------------------------------------
Missing                                +       0.14 (  0.0%)       0.01 (  0.0%)
Total                                  =    2218.00 (100.0%)     297.79 (100.0%)
--------------------------------------------------------------------------------
