|===============================================================================
|
|  DFTB+ release 24.1
|
|  Copyright (C) 2006 - 2024  DFTB+ developers group
|
|===============================================================================
|
|  When publishing results obtained with DFTB+, please cite the following
|  reference:
|
|  * DFTB+, a software package for efficient approximate density functional
|    theory based atomistic simulations, J. Chem. Phys. 152, 124101 (2020).
|    [doi: 10.1063/1.5143190]
|
|  You should also cite additional publications crediting the parametrization
|  data you use. Please consult the documentation of the SK-files for the
|  references.
|
|===============================================================================

Reading input file 'dftb_in.hsd'
Parser version: 14

--------------------------------------------------------------------------------
Reading SK-files:
./SKFiles/Ge-Ge.skf
./SKFiles/Ge-Si.skf
./SKFiles/Ge-O.skf
./SKFiles/Si-Si.skf
./SKFiles/Si-O.skf
./SKFiles/O-O.skf
Done.


Processed input in HSD format written to 'dftb_pin.hsd'

Starting initialization...
--------------------------------------------------------------------------------
WARNING!
-> Dipole printed for extended system : value printed is not well defined
MPI processes:               1
OpenMP threads:              8
BLACS orbital grid size:     1 x 1
BLACS atom grid size:        1 x 1
Chosen random seed:          140015516
Current stacksize:           unlimited
Mode:                        Static calculation
Self consistent charges:     Yes
SCC-tolerance:                 0.100000E-07
Max. scc iterations:                    500
Shell resolved Hubbard:      No
Spin polarisation:           No
Nr. of up electrons:           192.000000
Nr. of down electrons:         192.000000
Periodic boundaries:         Yes
Electronic solver:           Relatively robust
Mixer:                       Broyden mixer
Mixing parameter:                  0.200000
Maximal SCC-cycles:                     500
Nr. of chrg. vec. in memory:            500
Electronic temperature:              0.100000E-07 H      0.272114E-06 eV
Initial charges:             Set automatically (system chrg:   0.000E+00)
Included shells:            Ge:  s, p, d
                            Si:  s, p, d
                             O:  s, p
K-points and weights:           1:  0.500000  0.500000  0.500000     1.000000

K-points in absolute space:     1:  0.025319  0.017606  0.037774

Extra options:
                             Mulliken analysis
Force type                   original

--------------------------------------------------------------------------------

***  Geometry step: 0

 iSCC Total electronic   Diff electronic      SCC error    
    1    0.00000000E+00    0.00000000E+00    0.14597393E+01
    2   -0.19480545E+03   -0.19480545E+03    0.99372363E+00
    3   -0.19517139E+03   -0.36594019E+00    0.38555535E-01
    4   -0.19548728E+03   -0.31588552E+00    0.27149673E-01
    5   -0.19548917E+03   -0.18927644E-02    0.37390447E-02
    6   -0.19548931E+03   -0.13530449E-03    0.16753815E-02
    7   -0.19548931E+03   -0.28965036E-05    0.33301449E-03
    8   -0.19548931E+03   -0.11272419E-05    0.33664772E-04
    9   -0.19548931E+03   -0.46653668E-07    0.20549102E-04
   10   -0.19548931E+03   -0.22481572E-09    0.14273606E-05
   11   -0.19548931E+03   -0.63749894E-10    0.23195196E-06
   12   -0.19548931E+03   -0.18474111E-11    0.18718039E-06
   13   -0.19548931E+03   -0.11368684E-12    0.25165884E-07
   14   -0.19548931E+03    0.56843419E-13    0.36175649E-08

Total Energy:                     -191.8773164533 H        -5221.2474 eV
Extrapolated to 0K:               -191.8773164533 H        -5221.2474 eV
Total Mermin free energy:         -191.8773164533 H        -5221.2474 eV
Force related energy:             -191.8773164533 H        -5221.2474 eV

Volume:                              0.913789E+04 au^3   0.135410E+04 A^3
Pressure:                            0.716873E-03 au     0.210911E+11 Pa
>> Charges saved for restart in charges.bin

total energy  -1.9187732E+02 H       energy change -1.9187732E+02 H
gradient norm  8.1099838E-01 H/a0    max. gradient  4.4058594E-01 H/a0
step length    0.0000000E+00 a0      max. step      0.0000000E+00 a0

--------------------------------------------------------------------------------

***  Geometry step: 1

 iSCC Total electronic   Diff electronic      SCC error    
    1   -0.19548931E+03    0.00000000E+00    0.10064411E+00
    2   -0.19513844E+03    0.35086906E+00    0.42513664E-01
    3   -0.19514460E+03   -0.61537058E-02    0.12261823E-01
    4   -0.19514592E+03   -0.13244396E-02    0.10676178E-02
    5   -0.19514593E+03   -0.11181155E-04    0.34657774E-03
    6   -0.19514593E+03   -0.59262783E-06    0.11875523E-03
    7   -0.19514593E+03   -0.46010229E-07    0.21182382E-04
    8   -0.19514593E+03   -0.33011247E-08    0.33786519E-05
    9   -0.19514593E+03   -0.16407853E-09    0.10097507E-05
   10   -0.19514593E+03   -0.51727511E-11    0.34268314E-06
   11   -0.19514593E+03   -0.17053026E-12    0.35578887E-07
   12   -0.19514593E+03    0.56843419E-13    0.93281858E-08

Total Energy:                     -192.0386990098 H        -5225.6389 eV
Extrapolated to 0K:               -192.0386990098 H        -5225.6389 eV
Total Mermin free energy:         -192.0386990098 H        -5225.6389 eV
Force related energy:             -192.0386990098 H        -5225.6389 eV

Volume:                              0.945609E+04 au^3   0.140125E+04 A^3
Pressure:                            0.473744E-03 au     0.139380E+11 Pa
>> Charges saved for restart in charges.bin

total energy  -1.9203870E+02 H       energy change -1.6138256E-01 H
gradient norm  5.7098937E-01 H/a0    max. gradient  1.6425132E-01 H/a0
step length    5.5825334E-01 a0      max. step      3.0327875E-01 a0

--------------------------------------------------------------------------------

***  Geometry step: 2

 iSCC Total electronic   Diff electronic      SCC error    
    1   -0.19514593E+03    0.00000000E+00    0.34251354E-01
    2   -0.19504151E+03    0.10442176E+00    0.20985473E-01
    3   -0.19504354E+03   -0.20307380E-02    0.65187296E-02
    4   -0.19504402E+03   -0.48125001E-03    0.75687904E-03
    5   -0.19504403E+03   -0.49630596E-05    0.19923618E-03
    6   -0.19504403E+03   -0.32631448E-06    0.11473944E-03
    7   -0.19504403E+03   -0.11372691E-07    0.20487279E-04
    8   -0.19504403E+03   -0.16851232E-08    0.16423952E-05
    9   -0.19504403E+03   -0.95724317E-10    0.28074331E-06
   10   -0.19504403E+03   -0.19895197E-11    0.44978364E-07
   11   -0.19504403E+03    0.00000000E+00    0.18158894E-07
   12   -0.19504403E+03    0.28421709E-13    0.59136416E-08

Total Energy:                     -192.1706638516 H        -5229.2298 eV
Extrapolated to 0K:               -192.1706638516 H        -5229.2298 eV
Total Mermin free energy:         -192.1706638516 H        -5229.2298 eV
Force related energy:             -192.1706638516 H        -5229.2298 eV

Volume:                              0.948230E+04 au^3   0.140513E+04 A^3
Pressure:                            0.387581E-03 au     0.114030E+11 Pa
>> Charges saved for restart in charges.bin

total energy  -1.9217066E+02 H       energy change -1.3196484E-01 H
gradient norm  3.1031976E-01 H/a0    max. gradient  7.5344029E-02 H/a0
step length    4.1036095E-01 a0      max. step      9.6343018E-02 a0

--------------------------------------------------------------------------------

***  Geometry step: 3

 iSCC Total electronic   Diff electronic      SCC error    
    1   -0.19504403E+03    0.00000000E+00    0.52623457E-01
    2   -0.19485259E+03    0.19144042E+00    0.30315568E-01
    3   -0.19485529E+03   -0.27001236E-02    0.69811926E-02
    4   -0.19485595E+03   -0.66088875E-03    0.12790476E-02
    5   -0.19485596E+03   -0.94242042E-05    0.28853243E-03
    6   -0.19485596E+03   -0.76701130E-06    0.11242036E-03
    7   -0.19485596E+03   -0.21158513E-07    0.25258420E-04
    8   -0.19485596E+03   -0.34098093E-08    0.20187889E-05
    9   -0.19485596E+03   -0.14463808E-09    0.48872836E-06
   10   -0.19485596E+03   -0.53717031E-11    0.14627767E-06
   11   -0.19485596E+03    0.56843419E-13    0.24414798E-07
   12   -0.19485596E+03    0.28421709E-13    0.31221128E-08

Total Energy:                     -192.2519887760 H        -5231.4428 eV
Extrapolated to 0K:               -192.2519887760 H        -5231.4428 eV
Total Mermin free energy:         -192.2519887760 H        -5231.4428 eV
Force related energy:             -192.2519887760 H        -5231.4428 eV

Volume:                              0.955432E+04 au^3   0.141580E+04 A^3
Pressure:                            0.285904E-03 au     0.841159E+10 Pa
>> Charges saved for restart in charges.bin

total energy  -1.9225199E+02 H       energy change -8.1324924E-02 H
gradient norm  2.4436419E-01 H/a0    max. gradient  1.5371781E-01 H/a0
step length    5.0820283E-01 a0      max. step      1.0635224E-01 a0

--------------------------------------------------------------------------------

***  Geometry step: 4

 iSCC Total electronic   Diff electronic      SCC error    
    1   -0.19485596E+03    0.00000000E+00    0.27615881E-01
    2   -0.19463815E+03    0.21780547E+00    0.13280672E-01
    3   -0.19463900E+03   -0.84671719E-03    0.38180598E-02
    4   -0.19463922E+03   -0.21423235E-03    0.64888160E-03
    5   -0.19463922E+03   -0.34601230E-05    0.12098121E-03
    6   -0.19463922E+03   -0.33636451E-06    0.58693801E-04
    7   -0.19463922E+03   -0.64729022E-08    0.13801429E-04
    8   -0.19463922E+03   -0.75795015E-09    0.12953652E-05
    9   -0.19463922E+03   -0.30865976E-10    0.26247735E-06
   10   -0.19463922E+03   -0.23021585E-11    0.63116292E-07
   11   -0.19463922E+03    0.00000000E+00    0.12421345E-07
   12   -0.19463922E+03    0.28421709E-13    0.23566198E-08

Total Energy:                     -192.2931077168 H        -5232.5617 eV
Extrapolated to 0K:               -192.2931077168 H        -5232.5617 eV
Total Mermin free energy:         -192.2931077168 H        -5232.5617 eV
Force related energy:             -192.2931077168 H        -5232.5617 eV

Volume:                              0.967034E+04 au^3   0.143300E+04 A^3
Pressure:                            0.182086E-03 au     0.535715E+10 Pa
>> Charges saved for restart in charges.bin

total energy  -1.9229311E+02 H       energy change -4.1118941E-02 H
gradient norm  1.6020525E-01 H/a0    max. gradient  4.2005725E-02 H/a0
step length    3.9763864E-01 a0      max. step      1.4246449E-01 a0

--------------------------------------------------------------------------------

***  Geometry step: 5

 iSCC Total electronic   Diff electronic      SCC error    
    1   -0.19463922E+03    0.00000000E+00    0.25521992E-01
    2   -0.19448804E+03    0.15118362E+00    0.10865038E-01
    3   -0.19448842E+03   -0.38845942E-03    0.25761021E-02
    4   -0.19448851E+03   -0.83884492E-04    0.33614864E-03
    5   -0.19448851E+03   -0.17752580E-05    0.58416432E-04
    6   -0.19448851E+03   -0.95420376E-07    0.29270817E-04
    7   -0.19448851E+03   -0.22000961E-08    0.56507564E-05
    8   -0.19448851E+03   -0.18061996E-09    0.10663702E-05
    9   -0.19448851E+03   -0.15631940E-10    0.21508156E-06
   10   -0.19448851E+03   -0.62527761E-12    0.57168164E-07
   11   -0.19448851E+03   -0.56843419E-13    0.92250505E-08

Total Energy:                     -192.3175559192 H        -5233.2270 eV
Extrapolated to 0K:               -192.3175559192 H        -5233.2270 eV
Total Mermin free energy:         -192.3175559192 H        -5233.2270 eV
Force related energy:             -192.3175559192 H        -5233.2270 eV

Volume:                              0.974065E+04 au^3   0.144342E+04 A^3
Pressure:                            0.113353E-03 au     0.333497E+10 Pa
>> Charges saved for restart in charges.bin

total energy  -1.9231756E+02 H       energy change -2.4448202E-02 H
gradient norm  1.1363545E-01 H/a0    max. gradient  4.1121701E-02 H/a0
step length    3.4145581E-01 a0      max. step      6.7004649E-02 a0

--------------------------------------------------------------------------------

***  Geometry step: 6

 iSCC Total electronic   Diff electronic      SCC error    
    1   -0.19448851E+03    0.00000000E+00    0.23493212E-01
    2   -0.19437964E+03    0.10887132E+00    0.10540621E-01
    3   -0.19438003E+03   -0.39625590E-03    0.16811528E-02
    4   -0.19438013E+03   -0.10045867E-03    0.27575046E-03
    5   -0.19438014E+03   -0.55122533E-06    0.43162846E-04
    6   -0.19438014E+03   -0.40646285E-07    0.12108154E-04
    7   -0.19438014E+03   -0.12874750E-08    0.29027060E-05
    8   -0.19438014E+03   -0.16606805E-09    0.78223311E-06
    9   -0.19438014E+03   -0.37516656E-11    0.76065748E-07
   10   -0.19438014E+03   -0.25579538E-12    0.15974824E-07
   11   -0.19438014E+03   -0.11368684E-12    0.76235800E-08

Total Energy:                     -192.3296696884 H        -5233.5566 eV
Extrapolated to 0K:               -192.3296696884 H        -5233.5566 eV
Total Mermin free energy:         -192.3296696884 H        -5233.5566 eV
Force related energy:             -192.3296696884 H        -5233.5566 eV

Volume:                              0.979483E+04 au^3   0.145144E+04 A^3
Pressure:                            0.620541E-04 au     0.182569E+10 Pa
>> Charges saved for restart in charges.bin

total energy  -1.9232967E+02 H       energy change -1.2113769E-02 H
gradient norm  1.1958588E-01 H/a0    max. gradient  6.5334978E-02 H/a0
step length    2.9646569E-01 a0      max. step      5.8703902E-02 a0

--------------------------------------------------------------------------------

***  Geometry step: 7

 iSCC Total electronic   Diff electronic      SCC error    
    1   -0.19438014E+03    0.00000000E+00    0.18954874E-01
    2   -0.19433759E+03    0.42550052E-01    0.75680655E-02
    3   -0.19433786E+03   -0.27831864E-03    0.16309550E-02
    4   -0.19433792E+03   -0.58740024E-04    0.28254805E-03
    5   -0.19433792E+03   -0.39372983E-06    0.35681816E-04
    6   -0.19433792E+03   -0.25928131E-07    0.12580076E-04
    7   -0.19433792E+03   -0.94374286E-09    0.45977754E-05
    8   -0.19433792E+03   -0.95155883E-10    0.59326835E-06
    9   -0.19433792E+03   -0.34106051E-11    0.75781130E-07
   10   -0.19433792E+03   -0.34106051E-12    0.25678847E-07
   11   -0.19433792E+03    0.56843419E-13    0.41796455E-08

Total Energy:                     -192.3394817795 H        -5233.8236 eV
Extrapolated to 0K:               -192.3394817795 H        -5233.8236 eV
Total Mermin free energy:         -192.3394817795 H        -5233.8236 eV
Force related energy:             -192.3394817795 H        -5233.8236 eV

Volume:                              0.981138E+04 au^3   0.145390E+04 A^3
Pressure:                            0.409927E-04 au     0.120605E+10 Pa
>> Charges saved for restart in charges.bin

total energy  -1.9233948E+02 H       energy change -9.8120911E-03 H
gradient norm  7.8213393E-02 H/a0    max. gradient  2.1709313E-02 H/a0
step length    2.3192454E-01 a0      max. step      5.0650712E-02 a0

--------------------------------------------------------------------------------

***  Geometry step: 8

 iSCC Total electronic   Diff electronic      SCC error    
    1   -0.19433792E+03    0.00000000E+00    0.10776222E-01
    2   -0.19434315E+03   -0.52304952E-02    0.55656987E-02
    3   -0.19434326E+03   -0.11040199E-03    0.15903139E-02
    4   -0.19434329E+03   -0.26709210E-04    0.19785878E-03
    5   -0.19434329E+03   -0.71261488E-06    0.47752929E-04
    6   -0.19434329E+03   -0.60932592E-07    0.15883833E-04
    7   -0.19434329E+03   -0.18561650E-08    0.54731436E-05
    8   -0.19434329E+03   -0.76397555E-10    0.51504136E-06
    9   -0.19434329E+03   -0.46895821E-11    0.11618051E-06
   10   -0.19434329E+03   -0.54001248E-12    0.20006471E-07
   11   -0.19434329E+03    0.56843419E-13    0.30866238E-08

Total Energy:                     -192.3462907141 H        -5234.0089 eV
Extrapolated to 0K:               -192.3462907141 H        -5234.0089 eV
Total Mermin free energy:         -192.3462907141 H        -5234.0089 eV
Force related energy:             -192.3462907141 H        -5234.0089 eV

Volume:                              0.980333E+04 au^3   0.145270E+04 A^3
Pressure:                            0.402629E-04 au     0.118458E+10 Pa
>> Charges saved for restart in charges.bin

total energy  -1.9234629E+02 H       energy change -6.8089345E-03 H
gradient norm  5.6872092E-02 H/a0    max. gradient  1.7147055E-02 H/a0
step length    1.8786717E-01 a0      max. step      4.0894859E-02 a0

--------------------------------------------------------------------------------

***  Geometry step: 9

 iSCC Total electronic   Diff electronic      SCC error    
    1   -0.19434329E+03    0.00000000E+00    0.81306430E-02
    2   -0.19435060E+03   -0.73116666E-02    0.47951179E-02
    3   -0.19435070E+03   -0.95283959E-04    0.11569548E-02
    4   -0.19435072E+03   -0.24495741E-04    0.16516517E-03
    5   -0.19435072E+03   -0.72173154E-06    0.47451177E-04
    6   -0.19435072E+03   -0.58515894E-07    0.13877726E-04
    7   -0.19435072E+03   -0.21559288E-08    0.56134817E-05
    8   -0.19435072E+03   -0.80405016E-10    0.52915499E-06
    9   -0.19435072E+03   -0.52011728E-11    0.53939645E-07
   10   -0.19435072E+03   -0.51159077E-12    0.18094908E-07
   11   -0.19435072E+03    0.14210855E-12    0.33871479E-08

Total Energy:                     -192.3506909174 H        -5234.1286 eV
Extrapolated to 0K:               -192.3506909174 H        -5234.1286 eV
Total Mermin free energy:         -192.3506909174 H        -5234.1286 eV
Force related energy:             -192.3506909174 H        -5234.1286 eV

Volume:                              0.980017E+04 au^3   0.145224E+04 A^3
Pressure:                            0.402143E-04 au     0.118315E+10 Pa
>> Charges saved for restart in charges.bin

total energy  -1.9235069E+02 H       energy change -4.4002033E-03 H
gradient norm  4.8248888E-02 H/a0    max. gradient  1.1889042E-02 H/a0
step length    2.0080544E-01 a0      max. step      3.8987799E-02 a0

--------------------------------------------------------------------------------

***  Geometry step: 10

 iSCC Total electronic   Diff electronic      SCC error    
    1   -0.19435072E+03    0.00000000E+00    0.73859111E-02
    2   -0.19435757E+03   -0.68493977E-02    0.30988594E-02
    3   -0.19435762E+03   -0.47127929E-04    0.11172925E-02
    4   -0.19435763E+03   -0.90177909E-05    0.13585706E-03
    5   -0.19435763E+03   -0.27137520E-06    0.30288653E-04
    6   -0.19435763E+03   -0.24219077E-07    0.51935607E-05
    7   -0.19435763E+03   -0.87317176E-09    0.14436486E-05
    8   -0.19435763E+03   -0.36521897E-10    0.30847365E-06
    9   -0.19435763E+03   -0.22453150E-11    0.51077337E-07
   10   -0.19435763E+03    0.28421709E-13    0.71298478E-08

Total Energy:                     -192.3531992133 H        -5234.1969 eV
Extrapolated to 0K:               -192.3531992133 H        -5234.1969 eV
Total Mermin free energy:         -192.3531992133 H        -5234.1969 eV
Force related energy:             -192.3531992133 H        -5234.1969 eV

Volume:                              0.979650E+04 au^3   0.145169E+04 A^3
Pressure:                            0.409708E-04 au     0.120540E+10 Pa
>> Charges saved for restart in charges.bin

total energy  -1.9235320E+02 H       energy change -2.5082959E-03 H
gradient norm  4.1176843E-02 H/a0    max. gradient  1.3313768E-02 H/a0
step length    1.2715772E-01 a0      max. step      2.2029060E-02 a0

--------------------------------------------------------------------------------

***  Geometry step: 11

 iSCC Total electronic   Diff electronic      SCC error    
    1   -0.19435763E+03    0.00000000E+00    0.75671703E-02
    2   -0.19435371E+03    0.39232345E-02    0.43981816E-02
    3   -0.19435375E+03   -0.40348922E-04    0.10337587E-02
    4   -0.19435376E+03   -0.97557179E-05    0.12417812E-03
    5   -0.19435376E+03   -0.31168167E-06    0.43734207E-04
    6   -0.19435376E+03   -0.20220284E-07    0.11669860E-04
    7   -0.19435376E+03   -0.72489570E-09    0.32357823E-05
    8   -0.19435376E+03   -0.17251978E-10    0.23081423E-06
    9   -0.19435376E+03   -0.34106051E-11    0.54188954E-07
   10   -0.19435376E+03   -0.17053026E-12    0.10882373E-07
   11   -0.19435376E+03    0.85265128E-13    0.16577486E-08

Total Energy:                     -192.3560412027 H        -5234.2742 eV
Extrapolated to 0K:               -192.3560412027 H        -5234.2742 eV
Total Mermin free energy:         -192.3560412027 H        -5234.2742 eV
Force related energy:             -192.3560412027 H        -5234.2742 eV

Volume:                              0.980769E+04 au^3   0.145335E+04 A^3
Pressure:                            0.374955E-04 au     0.110315E+10 Pa
>> Charges saved for restart in charges.bin

total energy  -1.9235604E+02 H       energy change -2.8419894E-03 H
gradient norm  4.1925954E-02 H/a0    max. gradient  1.4004513E-02 H/a0
step length    1.6498665E-01 a0      max. step      3.4304350E-02 a0

--------------------------------------------------------------------------------

***  Geometry step: 12

 iSCC Total electronic   Diff electronic      SCC error    
    1   -0.19435376E+03    0.00000000E+00    0.10156467E-01
    2   -0.19434018E+03    0.13573305E-01    0.59990875E-02
    3   -0.19434021E+03   -0.23006511E-04    0.77683984E-03
    4   -0.19434021E+03   -0.62729310E-05    0.10205661E-03
    5   -0.19434021E+03   -0.27805930E-06    0.35891865E-04
    6   -0.19434021E+03   -0.72924422E-08    0.10128607E-04
    7   -0.19434021E+03   -0.13776003E-09    0.13115609E-05
    8   -0.19434021E+03   -0.24186875E-10    0.18590113E-06
    9   -0.19434021E+03   -0.16200374E-11    0.45454576E-07
   10   -0.19434021E+03   -0.85265128E-13    0.69960677E-08

Total Energy:                     -192.3582531517 H        -5234.3344 eV
Extrapolated to 0K:               -192.3582531517 H        -5234.3344 eV
Total Mermin free energy:         -192.3582531517 H        -5234.3344 eV
Force related energy:             -192.3582531517 H        -5234.3344 eV

Volume:                              0.982965E+04 au^3   0.145660E+04 A^3
Pressure:                            0.292713E-04 au     0.861191E+09 Pa
>> Charges saved for restart in charges.bin

total energy  -1.9235825E+02 H       energy change -2.2119490E-03 H
gradient norm  3.4292019E-02 H/a0    max. gradient  1.0661798E-02 H/a0
step length    1.5804099E-01 a0      max. step      3.4938729E-02 a0

--------------------------------------------------------------------------------

***  Geometry step: 13

 iSCC Total electronic   Diff electronic      SCC error    
    1   -0.19434021E+03    0.00000000E+00    0.62031942E-02
    2   -0.19433188E+03    0.83324580E-02    0.36249224E-02
    3   -0.19433190E+03   -0.17753477E-04    0.71425369E-03
    4   -0.19433190E+03   -0.43325557E-05    0.12654687E-03
    5   -0.19433190E+03   -0.18269841E-06    0.42218174E-04
    6   -0.19433190E+03   -0.11027311E-07    0.10126876E-04
    7   -0.19433190E+03   -0.25525537E-09    0.15967205E-05
    8   -0.19433190E+03   -0.82138740E-11    0.19600572E-06
    9   -0.19433190E+03   -0.22737368E-11    0.57981813E-07
   10   -0.19433190E+03   -0.56843419E-13    0.98694031E-08

Total Energy:                     -192.3598129564 H        -5234.3768 eV
Extrapolated to 0K:               -192.3598129564 H        -5234.3768 eV
Total Mermin free energy:         -192.3598129564 H        -5234.3768 eV
Force related energy:             -192.3598129564 H        -5234.3768 eV

Volume:                              0.984963E+04 au^3   0.145957E+04 A^3
Pressure:                            0.239741E-04 au     0.705342E+09 Pa
>> Charges saved for restart in charges.bin

total energy  -1.9235981E+02 H       energy change -1.5598047E-03 H
gradient norm  3.0036876E-02 H/a0    max. gradient  8.7173721E-03 H/a0
step length    1.2250735E-01 a0      max. step      2.5009529E-02 a0

--------------------------------------------------------------------------------

***  Geometry step: 14

 iSCC Total electronic   Diff electronic      SCC error    
    1   -0.19433190E+03    0.00000000E+00    0.83737372E-02
    2   -0.19432499E+03    0.69077511E-02    0.34628505E-02
    3   -0.19432504E+03   -0.42191516E-04    0.10642973E-02
    4   -0.19432505E+03   -0.89934270E-05    0.19822987E-03
    5   -0.19432505E+03   -0.29269245E-06    0.36548464E-04
    6   -0.19432505E+03   -0.32326398E-07    0.11768734E-04
    7   -0.19432505E+03   -0.67035444E-09    0.28571252E-05
    8   -0.19432505E+03   -0.24357405E-10    0.32202928E-06
    9   -0.19432505E+03   -0.24726887E-11    0.82895224E-07
   10   -0.19432505E+03   -0.28421709E-13    0.15001332E-07
   11   -0.19432505E+03    0.00000000E+00    0.11600596E-08

Total Energy:                     -192.3615125306 H        -5234.4231 eV
Extrapolated to 0K:               -192.3615125306 H        -5234.4231 eV
Total Mermin free energy:         -192.3615125306 H        -5234.4231 eV
Force related energy:             -192.3615125306 H        -5234.4231 eV

Volume:                              0.987529E+04 au^3   0.146337E+04 A^3
Pressure:                            0.185875E-04 au     0.546862E+09 Pa
>> Charges saved for restart in charges.bin

total energy  -1.9236151E+02 H       energy change -1.6995742E-03 H
gradient norm  2.7216362E-02 H/a0    max. gradient  7.2608507E-03 H/a0
step length    1.5704276E-01 a0      max. step      3.0183737E-02 a0

--------------------------------------------------------------------------------

***  Geometry step: 15

 iSCC Total electronic   Diff electronic      SCC error    
    1   -0.19432505E+03    0.00000000E+00    0.45395468E-02
    2   -0.19432428E+03    0.76742700E-03    0.21128231E-02
    3   -0.19432430E+03   -0.21426073E-04    0.70022768E-03
    4   -0.19432430E+03   -0.44409997E-05    0.12782965E-03
    5   -0.19432430E+03   -0.15381465E-06    0.16502972E-04
    6   -0.19432430E+03   -0.17529203E-07    0.48970794E-05
    7   -0.19432430E+03   -0.56022031E-09    0.17923798E-05
    8   -0.19432430E+03   -0.20946800E-10    0.45422357E-06
    9   -0.19432430E+03   -0.11084467E-11    0.41760761E-07
   10   -0.19432430E+03   -0.28421709E-13    0.45505444E-08

Total Energy:                     -192.3626543970 H        -5234.4542 eV
Extrapolated to 0K:               -192.3626543970 H        -5234.4542 eV
Total Mermin free energy:         -192.3626543970 H        -5234.4542 eV
Force related energy:             -192.3626543970 H        -5234.4542 eV

Volume:                              0.989286E+04 au^3   0.146597E+04 A^3
Pressure:                            0.163248E-04 au     0.480292E+09 Pa
>> Charges saved for restart in charges.bin

total energy  -1.9236265E+02 H       energy change -1.1418664E-03 H
gradient norm  2.7559103E-02 H/a0    max. gradient  7.7910619E-03 H/a0
step length    1.2194943E-01 a0      max. step      2.3404789E-02 a0

--------------------------------------------------------------------------------

***  Geometry step: 16

 iSCC Total electronic   Diff electronic      SCC error    
    1   -0.19432430E+03    0.00000000E+00    0.48981525E-02
    2   -0.19432716E+03   -0.28563914E-02    0.22058831E-02
    3   -0.19432718E+03   -0.19567980E-04    0.64814184E-03
    4   -0.19432718E+03   -0.39588178E-05    0.86518419E-04
    5   -0.19432719E+03   -0.13846275E-06    0.31872782E-04
    6   -0.19432719E+03   -0.11636416E-07    0.72205279E-05
    7   -0.19432719E+03   -0.58068395E-09    0.21689646E-05
    8   -0.19432719E+03   -0.98907549E-11    0.32470353E-06
    9   -0.19432719E+03   -0.10516032E-11    0.59129003E-07
   10   -0.19432719E+03   -0.17053026E-12    0.10267111E-07
   11   -0.19432719E+03    0.85265128E-13    0.76029405E-09

Total Energy:                     -192.3637480061 H        -5234.4839 eV
Extrapolated to 0K:               -192.3637480061 H        -5234.4839 eV
Total Mermin free energy:         -192.3637480061 H        -5234.4839 eV
Force related energy:             -192.3637480061 H        -5234.4839 eV

Volume:                              0.990826E+04 au^3   0.146825E+04 A^3
Pressure:                            0.154360E-04 au     0.454144E+09 Pa
>> Charges saved for restart in charges.bin

total energy  -1.9236375E+02 H       energy change -1.0936091E-03 H
gradient norm  2.5949382E-02 H/a0    max. gradient  5.0825704E-03 H/a0
step length    1.3064118E-01 a0      max. step      2.2079095E-02 a0

--------------------------------------------------------------------------------

***  Geometry step: 17

 iSCC Total electronic   Diff electronic      SCC error    
    1   -0.19432719E+03    0.00000000E+00    0.51037352E-02
    2   -0.19432973E+03   -0.25497725E-02    0.28792082E-02
    3   -0.19432975E+03   -0.13726206E-04    0.68585271E-03
    4   -0.19432975E+03   -0.26415931E-05    0.83142115E-04
    5   -0.19432975E+03   -0.67472826E-07    0.22179123E-04
    6   -0.19432975E+03   -0.38673136E-08    0.62941421E-05
    7   -0.19432975E+03   -0.12190071E-09    0.14774973E-05
    8   -0.19432975E+03   -0.52864380E-11    0.17777815E-06
    9   -0.19432975E+03   -0.90949470E-12    0.35253369E-07
   10   -0.19432975E+03   -0.28421709E-13    0.52507323E-08

Total Energy:                     -192.3647286657 H        -5234.5106 eV
Extrapolated to 0K:               -192.3647286657 H        -5234.5106 eV
Total Mermin free energy:         -192.3647286657 H        -5234.5106 eV
Force related energy:             -192.3647286657 H        -5234.5106 eV

Volume:                              0.992132E+04 au^3   0.147019E+04 A^3
Pressure:                            0.150316E-04 au     0.442244E+09 Pa
>> Charges saved for restart in charges.bin

total energy  -1.9236473E+02 H       energy change -9.8065964E-04 H
gradient norm  2.3677506E-02 H/a0    max. gradient  4.4615708E-03 H/a0
step length    1.1892533E-01 a0      max. step      2.1381889E-02 a0

--------------------------------------------------------------------------------

***  Geometry step: 18

 iSCC Total electronic   Diff electronic      SCC error    
    1   -0.19432975E+03    0.00000000E+00    0.56754421E-02
    2   -0.19433105E+03   -0.12962259E-02    0.32097520E-02
    3   -0.19433107E+03   -0.24060797E-04    0.82480623E-03
    4   -0.19433108E+03   -0.46910879E-05    0.94031569E-04
    5   -0.19433108E+03   -0.80534505E-07    0.22443423E-04
    6   -0.19433108E+03   -0.55533746E-08    0.85535677E-05
    7   -0.19433108E+03   -0.13392309E-09    0.21209720E-05
    8   -0.19433108E+03   -0.62527761E-11    0.17870057E-06
    9   -0.19433108E+03   -0.11368684E-11    0.50676658E-07
   10   -0.19433108E+03   -0.11368684E-12    0.51576956E-08

Total Energy:                     -192.3657740567 H        -5234.5390 eV
Extrapolated to 0K:               -192.3657740567 H        -5234.5390 eV
Total Mermin free energy:         -192.3657740567 H        -5234.5390 eV
Force related energy:             -192.3657740567 H        -5234.5390 eV

Volume:                              0.993673E+04 au^3   0.147247E+04 A^3
Pressure:                            0.143713E-04 au     0.422817E+09 Pa
>> Charges saved for restart in charges.bin

total energy  -1.9236577E+02 H       energy change -1.0453910E-03 H
gradient norm  2.2856227E-02 H/a0    max. gradient  7.6822365E-03 H/a0
step length    1.4118718E-01 a0      max. step      2.6467062E-02 a0

--------------------------------------------------------------------------------

***  Geometry step: 19

 iSCC Total electronic   Diff electronic      SCC error    
    1   -0.19433108E+03    0.00000000E+00    0.42576831E-02
    2   -0.19432694E+03    0.41315402E-02    0.15455167E-02
    3   -0.19432696E+03   -0.18679912E-04    0.59234086E-03
    4   -0.19432697E+03   -0.38866746E-05    0.70075117E-04
    5   -0.19432697E+03   -0.68281679E-07    0.13949340E-04
    6   -0.19432697E+03   -0.50723941E-08    0.57764066E-05
    7   -0.19432697E+03   -0.11965540E-09    0.17417346E-05
    8   -0.19432697E+03   -0.57411853E-11    0.22169125E-06
    9   -0.19432697E+03   -0.56843419E-12    0.38468412E-07
   10   -0.19432697E+03    0.56843419E-13    0.77125004E-08

Total Energy:                     -192.3665903064 H        -5234.5613 eV
Extrapolated to 0K:               -192.3665903064 H        -5234.5613 eV
Total Mermin free energy:         -192.3665903064 H        -5234.5613 eV
Force related energy:             -192.3665903064 H        -5234.5613 eV

Volume:                              0.995506E+04 au^3   0.147519E+04 A^3
Pressure:                            0.117411E-04 au     0.345436E+09 Pa
>> Charges saved for restart in charges.bin

total energy  -1.9236659E+02 H       energy change -8.1624967E-04 H
gradient norm  2.3328545E-02 H/a0    max. gradient  8.3932075E-03 H/a0
step length    1.2831808E-01 a0      max. step      2.5073899E-02 a0

--------------------------------------------------------------------------------

***  Geometry step: 20

 iSCC Total electronic   Diff electronic      SCC error    
    1   -0.19432697E+03    0.00000000E+00    0.34556044E-02
    2   -0.19432212E+03    0.48472242E-02    0.15391880E-02
    3   -0.19432213E+03   -0.95632051E-05    0.51037119E-03
    4   -0.19432213E+03   -0.19954075E-05    0.67503807E-04
    5   -0.19432213E+03   -0.65567633E-07    0.10202112E-04
    6   -0.19432213E+03   -0.58087721E-08    0.19717495E-05
    7   -0.19432213E+03   -0.14981083E-09    0.85577191E-06
    8   -0.19432213E+03   -0.43200998E-11    0.18553845E-06
    9   -0.19432213E+03   -0.22737368E-12    0.25131992E-07
   10   -0.19432213E+03   -0.56843419E-13    0.60523178E-08

Total Energy:                     -192.3673312075 H        -5234.5814 eV
Extrapolated to 0K:               -192.3673312075 H        -5234.5814 eV
Total Mermin free energy:         -192.3673312075 H        -5234.5814 eV
Force related energy:             -192.3673312075 H        -5234.5814 eV

Volume:                              0.997378E+04 au^3   0.147796E+04 A^3
Pressure:                            0.849933E-05 au     0.250059E+09 Pa
>> Charges saved for restart in charges.bin

total energy  -1.9236733E+02 H       energy change -7.4090107E-04 H
gradient norm  2.0943083E-02 H/a0    max. gradient  5.4659919E-03 H/a0
step length    1.2756773E-01 a0      max. step      2.6087971E-02 a0

--------------------------------------------------------------------------------

***  Geometry step: 21

 iSCC Total electronic   Diff electronic      SCC error    
    1   -0.19432213E+03    0.00000000E+00    0.31148635E-02
    2   -0.19431814E+03    0.39872872E-02    0.13700086E-02
    3   -0.19431815E+03   -0.10009937E-04    0.50219801E-03
    4   -0.19431816E+03   -0.23119321E-05    0.75361715E-04
    5   -0.19431816E+03   -0.49370300E-07    0.96692564E-05
    6   -0.19431816E+03   -0.37472034E-08    0.20047168E-05
    7   -0.19431816E+03   -0.21441338E-09    0.89301294E-06
    8   -0.19431816E+03   -0.28705927E-11    0.22423387E-06
    9   -0.19431816E+03   -0.36948222E-12    0.27156507E-07
   10   -0.19431816E+03    0.28421709E-13    0.42904329E-08

Total Energy:                     -192.3679150642 H        -5234.5973 eV
Extrapolated to 0K:               -192.3679150642 H        -5234.5973 eV
Total Mermin free energy:         -192.3679150642 H        -5234.5973 eV
Force related energy:             -192.3679150642 H        -5234.5973 eV

Volume:                              0.999075E+04 au^3   0.148048E+04 A^3
Pressure:                            0.609240E-05 au     0.179244E+09 Pa
>> Charges saved for restart in charges.bin

total energy  -1.9236792E+02 H       energy change -5.8385672E-04 H
gradient norm  1.7622852E-02 H/a0    max. gradient  4.8674784E-03 H/a0
step length    1.0359593E-01 a0      max. step      2.2464305E-02 a0

--------------------------------------------------------------------------------

***  Geometry step: 22

 iSCC Total electronic   Diff electronic      SCC error    
    1   -0.19431816E+03    0.00000000E+00    0.42680048E-02
    2   -0.19431747E+03    0.68944629E-03    0.18107401E-02
    3   -0.19431748E+03   -0.10231502E-04    0.46348730E-03
    4   -0.19431748E+03   -0.21635428E-05    0.11505862E-03
    5   -0.19431748E+03   -0.36268432E-07    0.91682006E-05
    6   -0.19431748E+03   -0.26244038E-08    0.16767896E-05
    7   -0.19431748E+03   -0.16504487E-09    0.53365727E-06
    8   -0.19431748E+03   -0.40358827E-11    0.17303392E-06
    9   -0.19431748E+03   -0.34106051E-12    0.21835887E-07
   10   -0.19431748E+03    0.56843419E-13    0.34994030E-08

Total Energy:                     -192.3683562095 H        -5234.6093 eV
Extrapolated to 0K:               -192.3683562095 H        -5234.6093 eV
Total Mermin free energy:         -192.3683562095 H        -5234.6093 eV
Force related energy:             -192.3683562095 H        -5234.6093 eV

Volume:                              0.100034E+05 au^3   0.148235E+04 A^3
Pressure:                            0.495585E-05 au     0.145806E+09 Pa
>> Charges saved for restart in charges.bin

total energy  -1.9236836E+02 H       energy change -4.4114536E-04 H
gradient norm  1.5663499E-02 H/a0    max. gradient  3.8986727E-03 H/a0
step length    9.0167820E-02 a0      max. step      1.9927448E-02 a0

--------------------------------------------------------------------------------

***  Geometry step: 23

 iSCC Total electronic   Diff electronic      SCC error    
    1   -0.19431748E+03    0.00000000E+00    0.23730561E-02
    2   -0.19431804E+03   -0.56292906E-03    0.11766697E-02
    3   -0.19431805E+03   -0.48773189E-05    0.35914419E-03
    4   -0.19431805E+03   -0.10876751E-05    0.38492385E-04
    5   -0.19431805E+03   -0.14381783E-07    0.41978400E-05
    6   -0.19431805E+03   -0.97696784E-09    0.14103763E-05
    7   -0.19431805E+03   -0.14210855E-10    0.48123521E-06
    8   -0.19431805E+03   -0.73896445E-12    0.80754302E-07
    9   -0.19431805E+03    0.28421709E-13    0.14691176E-07
   10   -0.19431805E+03    0.00000000E+00    0.37226924E-08

Total Energy:                     -192.3686582489 H        -5234.6175 eV
Extrapolated to 0K:               -192.3686582489 H        -5234.6175 eV
Total Mermin free energy:         -192.3686582489 H        -5234.6175 eV
Force related energy:             -192.3686582489 H        -5234.6175 eV

Volume:                              0.100112E+05 au^3   0.148351E+04 A^3
Pressure:                            0.433248E-05 au     0.127466E+09 Pa
>> Charges saved for restart in charges.bin

total energy  -1.9236866E+02 H       energy change -3.0203937E-04 H
gradient norm  1.4592501E-02 H/a0    max. gradient  5.3282984E-03 H/a0
step length    5.4853067E-02 a0      max. step      1.2062816E-02 a0

--------------------------------------------------------------------------------

***  Geometry step: 24

 iSCC Total electronic   Diff electronic      SCC error    
    1   -0.19431805E+03    0.00000000E+00    0.31747134E-02
    2   -0.19432236E+03   -0.43071338E-02    0.13718866E-02
    3   -0.19432236E+03   -0.70462642E-05    0.36274634E-03
    4   -0.19432236E+03   -0.15796400E-05    0.43799026E-04
    5   -0.19432236E+03   -0.33172000E-07    0.13175433E-04
    6   -0.19432236E+03   -0.15763533E-08    0.37400171E-05
    7   -0.19432236E+03   -0.24328983E-10    0.63322705E-06
    8   -0.19432236E+03   -0.12789769E-11    0.15479867E-06
    9   -0.19432236E+03   -0.17053026E-12    0.35349971E-07
   10   -0.19432236E+03    0.28421709E-13    0.48953535E-08

Total Energy:                     -192.3689660823 H        -5234.6259 eV
Extrapolated to 0K:               -192.3689660823 H        -5234.6259 eV
Total Mermin free energy:         -192.3689660823 H        -5234.6259 eV
Force related energy:             -192.3689660823 H        -5234.6259 eV

Volume:                              0.100180E+05 au^3   0.148452E+04 A^3
Pressure:                            0.536525E-05 au     0.157851E+09 Pa
>> Charges saved for restart in charges.bin

total energy  -1.9236897E+02 H       energy change -3.0783341E-04 H
gradient norm  1.3144504E-02 H/a0    max. gradient  3.4171224E-03 H/a0
step length    7.1329118E-02 a0      max. step      1.5187596E-02 a0

--------------------------------------------------------------------------------

***  Geometry step: 25

 iSCC Total electronic   Diff electronic      SCC error    
    1   -0.19432236E+03    0.00000000E+00    0.15773075E-02
    2   -0.19432323E+03   -0.86336172E-03    0.84373338E-03
    3   -0.19432323E+03   -0.21685125E-05    0.24449700E-03
    4   -0.19432323E+03   -0.51403754E-06    0.30323202E-04
    5   -0.19432323E+03   -0.11229474E-07    0.70560412E-05
    6   -0.19432323E+03   -0.75658591E-09    0.15319673E-05
    7   -0.19432323E+03   -0.18332003E-10    0.34571631E-06
    8   -0.19432323E+03   -0.51159077E-12    0.10053599E-06
    9   -0.19432323E+03   -0.14210855E-12    0.24046060E-07
   10   -0.19432323E+03    0.14210855E-12    0.29233709E-08

Total Energy:                     -192.3691506116 H        -5234.6309 eV
Extrapolated to 0K:               -192.3691506116 H        -5234.6309 eV
Total Mermin free energy:         -192.3691506116 H        -5234.6309 eV
Force related energy:             -192.3691506116 H        -5234.6309 eV

Volume:                              0.100238E+05 au^3   0.148537E+04 A^3
Pressure:                            0.520047E-05 au     0.153003E+09 Pa
>> Charges saved for restart in charges.bin

total energy  -1.9236915E+02 H       energy change -1.8452933E-04 H
gradient norm  1.1778713E-02 H/a0    max. gradient  2.5468384E-03 H/a0
step length    4.5389498E-02 a0      max. step      9.4725815E-03 a0

--------------------------------------------------------------------------------

***  Geometry step: 26

 iSCC Total electronic   Diff electronic      SCC error    
    1   -0.19432323E+03    0.00000000E+00    0.29316108E-02
    2   -0.19432345E+03   -0.21983374E-03    0.14102380E-02
    3   -0.19432346E+03   -0.65418844E-05    0.43200412E-03
    4   -0.19432346E+03   -0.15284550E-05    0.34004455E-04
    5   -0.19432346E+03   -0.27337535E-07    0.99686624E-05
    6   -0.19432346E+03   -0.14415207E-08    0.31036711E-05
    7   -0.19432346E+03   -0.24925839E-10    0.46485968E-06
    8   -0.19432346E+03   -0.11937118E-11    0.11477327E-06
    9   -0.19432346E+03   -0.17053026E-12    0.36386325E-07
   10   -0.19432346E+03   -0.56843419E-13    0.34430787E-08

Total Energy:                     -192.3694022185 H        -5234.6378 eV
Extrapolated to 0K:               -192.3694022185 H        -5234.6378 eV
Total Mermin free energy:         -192.3694022185 H        -5234.6378 eV
Force related energy:             -192.3694022185 H        -5234.6378 eV

Volume:                              0.100341E+05 au^3   0.148690E+04 A^3
Pressure:                            0.442197E-05 au     0.130099E+09 Pa
>> Charges saved for restart in charges.bin

total energy  -1.9236940E+02 H       energy change -2.5160682E-04 H
gradient norm  1.1723493E-02 H/a0    max. gradient  3.1854444E-03 H/a0
step length    7.6632934E-02 a0      max. step      1.5367729E-02 a0

--------------------------------------------------------------------------------

***  Geometry step: 27

 iSCC Total electronic   Diff electronic      SCC error    
    1   -0.19432346E+03    0.00000000E+00    0.16946562E-02
    2   -0.19432197E+03    0.14843461E-02    0.87623029E-03
    3   -0.19432198E+03   -0.26935425E-05    0.30344534E-03
    4   -0.19432198E+03   -0.55758946E-06    0.20915186E-04
    5   -0.19432198E+03   -0.88780610E-08    0.29930382E-05
    6   -0.19432198E+03   -0.50374638E-09    0.12210207E-05
    7   -0.19432198E+03   -0.56843419E-11    0.37551847E-06
    8   -0.19432198E+03   -0.28421709E-12    0.72028936E-07
    9   -0.19432198E+03    0.28421709E-13    0.21327389E-07
   10   -0.19432198E+03    0.00000000E+00    0.17477388E-08

Total Energy:                     -192.3695899234 H        -5234.6429 eV
Extrapolated to 0K:               -192.3695899234 H        -5234.6429 eV
Total Mermin free energy:         -192.3695899234 H        -5234.6429 eV
Force related energy:             -192.3695899234 H        -5234.6429 eV

Volume:                              0.100423E+05 au^3   0.148812E+04 A^3
Pressure:                            0.333732E-05 au     0.981873E+08 Pa
>> Charges saved for restart in charges.bin

total energy  -1.9236959E+02 H       energy change -1.8770498E-04 H
gradient norm  1.2628663E-02 H/a0    max. gradient  3.4826346E-03 H/a0
step length    5.5096501E-02 a0      max. step      1.0278325E-02 a0

--------------------------------------------------------------------------------

***  Geometry step: 28

 iSCC Total electronic   Diff electronic      SCC error    
    1   -0.19432198E+03    0.00000000E+00    0.20674017E-02
    2   -0.19431843E+03    0.35430163E-02    0.13424753E-02
    3   -0.19431844E+03   -0.66378501E-05    0.48767725E-03
    4   -0.19431844E+03   -0.13221228E-05    0.51488386E-04
    5   -0.19431844E+03   -0.24214899E-07    0.67685337E-05
    6   -0.19431844E+03   -0.19714719E-08    0.22182874E-05
    7   -0.19431844E+03   -0.45133675E-10    0.82544457E-06
    8   -0.19431844E+03   -0.12505552E-11    0.15911781E-06
    9   -0.19431844E+03   -0.11368684E-12    0.13093123E-07
   10   -0.19431844E+03    0.28421709E-13    0.30961247E-08

Total Energy:                     -192.3698852339 H        -5234.6509 eV
Extrapolated to 0K:               -192.3698852339 H        -5234.6509 eV
Total Mermin free energy:         -192.3698852339 H        -5234.6509 eV
Force related energy:             -192.3698852339 H        -5234.6509 eV

Volume:                              0.100572E+05 au^3   0.149033E+04 A^3
Pressure:                            0.925404E-06 au     0.272263E+08 Pa
>> Charges saved for restart in charges.bin

total energy  -1.9236989E+02 H       energy change -2.9531048E-04 H
gradient norm  1.3360632E-02 H/a0    max. gradient  3.8995273E-03 H/a0
step length    9.9198944E-02 a0      max. step      1.8986735E-02 a0

--------------------------------------------------------------------------------

***  Geometry step: 29

 iSCC Total electronic   Diff electronic      SCC error    
    1   -0.19431844E+03    0.00000000E+00    0.19863148E-02
    2   -0.19431708E+03    0.13621381E-02    0.85646150E-03
    3   -0.19431708E+03   -0.41562232E-05    0.31540598E-03
    4   -0.19431709E+03   -0.79985062E-06    0.41243699E-04
    5   -0.19431709E+03   -0.17064025E-07    0.68664352E-05
    6   -0.19431709E+03   -0.16603110E-08    0.18612078E-05
    7   -0.19431709E+03   -0.35697667E-10    0.51550073E-06
    8   -0.19431709E+03   -0.65369932E-12    0.10763820E-06
    9   -0.19431709E+03   -0.56843419E-13    0.28601479E-07
   10   -0.19431709E+03   -0.56843419E-13    0.35224192E-08

Total Energy:                     -192.3701243239 H        -5234.6574 eV
Extrapolated to 0K:               -192.3701243239 H        -5234.6574 eV
Total Mermin free energy:         -192.3701243239 H        -5234.6574 eV
Force related energy:             -192.3701243239 H        -5234.6574 eV

Volume:                              0.100680E+05 au^3   0.149193E+04 A^3
Pressure:                           -0.500058E-06 au    -0.147122E+08 Pa
>> Charges saved for restart in charges.bin

total energy  -1.9237012E+02 H       energy change -2.3908997E-04 H
gradient norm  1.2493018E-02 H/a0    max. gradient  3.6096966E-03 H/a0
step length    8.3929504E-02 a0      max. step      1.5974433E-02 a0

--------------------------------------------------------------------------------

***  Geometry step: 30

 iSCC Total electronic   Diff electronic      SCC error    
    1   -0.19431709E+03    0.00000000E+00    0.23696347E-02
    2   -0.19431822E+03   -0.11304923E-02    0.10376078E-02
    3   -0.19431822E+03   -0.50339682E-05    0.36082434E-03
    4   -0.19431822E+03   -0.10120385E-05    0.70315274E-04
    5   -0.19431822E+03   -0.22134373E-07    0.88726841E-05
    6   -0.19431822E+03   -0.25394797E-08    0.24203566E-05
    7   -0.19431822E+03   -0.56502358E-10    0.66683673E-06
    8   -0.19431822E+03   -0.88107299E-12    0.12841832E-06
    9   -0.19431822E+03    0.00000000E+00    0.35949274E-07
   10   -0.19431822E+03   -0.28421709E-13    0.47824935E-08

Total Energy:                     -192.3703795441 H        -5234.6644 eV
Extrapolated to 0K:               -192.3703795441 H        -5234.6644 eV
Total Mermin free energy:         -192.3703795441 H        -5234.6644 eV
Force related energy:             -192.3703795441 H        -5234.6644 eV

Volume:                              0.100771E+05 au^3   0.149328E+04 A^3
Pressure:                           -0.117563E-05 au    -0.345883E+08 Pa
>> Charges saved for restart in charges.bin

total energy  -1.9237038E+02 H       energy change -2.5522023E-04 H
gradient norm  1.1377273E-02 H/a0    max. gradient  4.8863891E-03 H/a0
step length    9.6990335E-02 a0      max. step      1.8641151E-02 a0

--------------------------------------------------------------------------------

***  Geometry step: 31

 iSCC Total electronic   Diff electronic      SCC error    
    1   -0.19431822E+03    0.00000000E+00    0.16862716E-02
    2   -0.19432155E+03   -0.33239536E-02    0.96706008E-03
    3   -0.19432155E+03   -0.41056585E-05    0.34240020E-03
    4   -0.19432155E+03   -0.84923289E-06    0.45589900E-04
    5   -0.19432155E+03   -0.12100003E-07    0.73408407E-05
    6   -0.19432155E+03   -0.14003092E-08    0.22715770E-05
    7   -0.19432155E+03   -0.28734348E-10    0.65284706E-06
    8   -0.19432155E+03   -0.51159077E-12    0.90542848E-07
    9   -0.19432155E+03    0.56843419E-13    0.29004826E-07
   10   -0.19432155E+03    0.28421709E-13    0.23214306E-08

Total Energy:                     -192.3705975697 H        -5234.6703 eV
Extrapolated to 0K:               -192.3705975697 H        -5234.6703 eV
Total Mermin free energy:         -192.3705975697 H        -5234.6703 eV
Force related energy:             -192.3705975697 H        -5234.6703 eV

Volume:                              0.100811E+05 au^3   0.149386E+04 A^3
Pressure:                           -0.640646E-06 au    -0.188485E+08 Pa
>> Charges saved for restart in charges.bin

total energy  -1.9237060E+02 H       energy change -2.1802559E-04 H
gradient norm  1.1741755E-02 H/a0    max. gradient  5.9594100E-03 H/a0
step length    8.2999483E-02 a0      max. step      1.5443819E-02 a0

--------------------------------------------------------------------------------

***  Geometry step: 32

 iSCC Total electronic   Diff electronic      SCC error    
    1   -0.19432155E+03    0.00000000E+00    0.21977301E-02
    2   -0.19432654E+03   -0.49928238E-02    0.93277015E-03
    3   -0.19432655E+03   -0.40237339E-05    0.30647232E-03
    4   -0.19432655E+03   -0.84059059E-06    0.32098011E-04
    5   -0.19432655E+03   -0.10143623E-07    0.71961112E-05
    6   -0.19432655E+03   -0.11203838E-08    0.20793072E-05
    7   -0.19432655E+03   -0.21771029E-10    0.56539502E-06
    8   -0.19432655E+03   -0.45474735E-12    0.61306888E-07
    9   -0.19432655E+03    0.28421709E-13    0.22150124E-07
   10   -0.19432655E+03    0.28421709E-13    0.15591439E-08

Total Energy:                     -192.3708440132 H        -5234.6770 eV
Extrapolated to 0K:               -192.3708440132 H        -5234.6770 eV
Total Mermin free energy:         -192.3708440132 H        -5234.6770 eV
Force related energy:             -192.3708440132 H        -5234.6770 eV

Volume:                              0.100823E+05 au^3   0.149405E+04 A^3
Pressure:                            0.691316E-06 au     0.203392E+08 Pa
>> Charges saved for restart in charges.bin

total energy  -1.9237084E+02 H       energy change -2.4644344E-04 H
gradient norm  1.2480106E-02 H/a0    max. gradient  4.7879745E-03 H/a0
step length    9.4325397E-02 a0      max. step      1.7507913E-02 a0

--------------------------------------------------------------------------------

***  Geometry step: 33

 iSCC Total electronic   Diff electronic      SCC error    
    1   -0.19432655E+03    0.00000000E+00    0.24399773E-02
    2   -0.19433119E+03   -0.46391281E-02    0.11171779E-02
    3   -0.19433119E+03   -0.41428028E-05    0.41965522E-03
    4   -0.19433119E+03   -0.94616436E-06    0.33952296E-04
    5   -0.19433119E+03   -0.14251668E-07    0.75683104E-05
    6   -0.19433119E+03   -0.11683596E-08    0.21677507E-05
    7   -0.19433119E+03   -0.33537617E-10    0.59562936E-06
    8   -0.19433119E+03   -0.51159077E-12    0.88569759E-07
    9   -0.19433119E+03   -0.22737368E-12    0.19329629E-07
   10   -0.19433119E+03    0.28421709E-13    0.29107801E-08

Total Energy:                     -192.3711026389 H        -5234.6840 eV
Extrapolated to 0K:               -192.3711026389 H        -5234.6840 eV
Total Mermin free energy:         -192.3711026389 H        -5234.6840 eV
Force related energy:             -192.3711026389 H        -5234.6840 eV

Volume:                              0.100819E+05 au^3   0.149398E+04 A^3
Pressure:                            0.211618E-05 au     0.622602E+08 Pa
>> Charges saved for restart in charges.bin

total energy  -1.9237110E+02 H       energy change -2.5862573E-04 H
gradient norm  1.3553723E-02 H/a0    max. gradient  3.7574298E-03 H/a0
step length    1.0508284E-01 a0      max. step      2.0916131E-02 a0

--------------------------------------------------------------------------------

***  Geometry step: 34

 iSCC Total electronic   Diff electronic      SCC error    
    1   -0.19433119E+03    0.00000000E+00    0.22824928E-02
    2   -0.19433428E+03   -0.30904372E-02    0.11532133E-02
    3   -0.19433429E+03   -0.38106856E-05    0.39381927E-03
    4   -0.19433429E+03   -0.92240310E-06    0.27732064E-04
    5   -0.19433429E+03   -0.17873134E-07    0.82843335E-05
    6   -0.19433429E+03   -0.12842065E-08    0.23002428E-05
    7   -0.19433429E+03   -0.32031267E-10    0.70897178E-06
    8   -0.19433429E+03   -0.76738615E-12    0.11433105E-06
    9   -0.19433429E+03   -0.17053026E-12    0.26215376E-07
   10   -0.19433429E+03   -0.28421709E-13    0.41723300E-08

Total Energy:                     -192.3713755888 H        -5234.6915 eV
Extrapolated to 0K:               -192.3713755888 H        -5234.6915 eV
Total Mermin free energy:         -192.3713755888 H        -5234.6915 eV
Force related energy:             -192.3713755888 H        -5234.6915 eV

Volume:                              0.100812E+05 au^3   0.149388E+04 A^3
Pressure:                            0.310639E-05 au     0.913932E+08 Pa
>> Charges saved for restart in charges.bin

total energy  -1.9237138E+02 H       energy change -2.7294988E-04 H
gradient norm  1.3082983E-02 H/a0    max. gradient  2.8970219E-03 H/a0
step length    1.0963933E-01 a0      max. step      2.1811100E-02 a0

--------------------------------------------------------------------------------

***  Geometry step: 35

 iSCC Total electronic   Diff electronic      SCC error    
    1   -0.19433429E+03    0.00000000E+00    0.38316226E-02
    2   -0.19433561E+03   -0.13207965E-02    0.17799972E-02
    3   -0.19433562E+03   -0.73499193E-05    0.40214489E-03
    4   -0.19433562E+03   -0.17509048E-05    0.53386255E-04
    5   -0.19433562E+03   -0.35632354E-07    0.10888314E-04
    6   -0.19433562E+03   -0.21016717E-08    0.40430620E-05
    7   -0.19433562E+03   -0.30041747E-10    0.78450062E-06
    8   -0.19433562E+03   -0.18189894E-11    0.12636143E-06
    9   -0.19433562E+03   -0.14210855E-12    0.36502642E-07
   10   -0.19433562E+03    0.28421709E-13    0.45697313E-08

Total Energy:                     -192.3716896279 H        -5234.7000 eV
Extrapolated to 0K:               -192.3716896279 H        -5234.7000 eV
Total Mermin free energy:         -192.3716896279 H        -5234.7000 eV
Force related energy:             -192.3716896279 H        -5234.7000 eV

Volume:                              0.100808E+05 au^3   0.149382E+04 A^3
Pressure:                            0.342036E-05 au     0.100631E+09 Pa
>> Charges saved for restart in charges.bin

total energy  -1.9237169E+02 H       energy change -3.1403918E-04 H
gradient norm  1.2131024E-02 H/a0    max. gradient  2.9389166E-03 H/a0
step length    1.3198154E-01 a0      max. step      2.5027962E-02 a0

--------------------------------------------------------------------------------

***  Geometry step: 36

 iSCC Total electronic   Diff electronic      SCC error    
    1   -0.19433562E+03    0.00000000E+00    0.31721632E-02
    2   -0.19433571E+03   -0.92072734E-04    0.14407589E-02
    3   -0.19433572E+03   -0.57579165E-05    0.38678618E-03
    4   -0.19433572E+03   -0.12907640E-05    0.45124221E-04
    5   -0.19433572E+03   -0.23757195E-07    0.77524627E-05
    6   -0.19433572E+03   -0.13380657E-08    0.29064025E-05
    7   -0.19433572E+03   -0.16825652E-10    0.49062482E-06
    8   -0.19433572E+03   -0.10800250E-11    0.10741305E-06
    9   -0.19433572E+03   -0.11368684E-12    0.27618570E-07
   10   -0.19433572E+03    0.00000000E+00    0.39887951E-08

Total Energy:                     -192.3719137199 H        -5234.7061 eV
Extrapolated to 0K:               -192.3719137199 H        -5234.7061 eV
Total Mermin free energy:         -192.3719137199 H        -5234.7061 eV
Force related energy:             -192.3719137199 H        -5234.7061 eV

Volume:                              0.100814E+05 au^3   0.149390E+04 A^3
Pressure:                            0.333799E-05 au     0.982071E+08 Pa
>> Charges saved for restart in charges.bin

total energy  -1.9237191E+02 H       energy change -2.2409194E-04 H
gradient norm  1.1365934E-02 H/a0    max. gradient  3.0072185E-03 H/a0
step length    1.0174786E-01 a0      max. step      1.7938818E-02 a0

--------------------------------------------------------------------------------

***  Geometry step: 37

 iSCC Total electronic   Diff electronic      SCC error    
    1   -0.19433572E+03    0.00000000E+00    0.17911723E-02
    2   -0.19433533E+03    0.38567097E-03    0.10395246E-02
    3   -0.19433534E+03   -0.37646975E-05    0.35176035E-03
    4   -0.19433534E+03   -0.81675995E-06    0.33193482E-04
    5   -0.19433534E+03   -0.14039699E-07    0.33287513E-05
    6   -0.19433534E+03   -0.92572350E-09    0.12063035E-05
    7   -0.19433534E+03   -0.98623332E-11    0.47695796E-06
    8   -0.19433534E+03   -0.25579538E-12    0.79415225E-07
    9   -0.19433534E+03   -0.11368684E-12    0.19059240E-07
   10   -0.19433534E+03   -0.28421709E-13    0.26379756E-08

Total Energy:                     -192.3720976126 H        -5234.7111 eV
Extrapolated to 0K:               -192.3720976126 H        -5234.7111 eV
Total Mermin free energy:         -192.3720976126 H        -5234.7111 eV
Force related energy:             -192.3720976126 H        -5234.7111 eV

Volume:                              0.100830E+05 au^3   0.149415E+04 A^3
Pressure:                            0.296359E-05 au     0.871917E+08 Pa
>> Charges saved for restart in charges.bin

total energy  -1.9237210E+02 H       energy change -1.8389273E-04 H
gradient norm  1.0764927E-02 H/a0    max. gradient  2.7664393E-03 H/a0
step length    7.8908806E-02 a0      max. step      1.4127128E-02 a0

--------------------------------------------------------------------------------

***  Geometry step: 38

 iSCC Total electronic   Diff electronic      SCC error    
    1   -0.19433534E+03    0.00000000E+00    0.17250256E-02
    2   -0.19433542E+03   -0.81998007E-04    0.98864836E-03
    3   -0.19433542E+03   -0.40242957E-05    0.32655468E-03
    4   -0.19433542E+03   -0.92722783E-06    0.28431277E-04
    5   -0.19433542E+03   -0.15595077E-07    0.52056656E-05
    6   -0.19433542E+03   -0.13070292E-08    0.17352517E-05
    7   -0.19433542E+03   -0.20634161E-10    0.56520182E-06
    8   -0.19433542E+03   -0.56843419E-12    0.10346010E-06
    9   -0.19433542E+03   -0.85265128E-13    0.25398380E-07
   10   -0.19433542E+03   -0.85265128E-13    0.37406895E-08

Total Energy:                     -192.3722847915 H        -5234.7162 eV
Extrapolated to 0K:               -192.3722847915 H        -5234.7162 eV
Total Mermin free energy:         -192.3722847915 H        -5234.7162 eV
Force related energy:             -192.3722847915 H        -5234.7162 eV

Volume:                              0.100857E+05 au^3   0.149454E+04 A^3
Pressure:                            0.250554E-05 au     0.737154E+08 Pa
>> Charges saved for restart in charges.bin

total energy  -1.9237228E+02 H       energy change -1.8717890E-04 H
gradient norm  1.0106171E-02 H/a0    max. gradient  1.7977166E-03 H/a0
step length    8.6116643E-02 a0      max. step      1.5555540E-02 a0

--------------------------------------------------------------------------------

***  Geometry step: 39

 iSCC Total electronic   Diff electronic      SCC error    
    1   -0.19433542E+03    0.00000000E+00    0.16180791E-02
    2   -0.19433680E+03   -0.13806015E-02    0.79240129E-03
    3   -0.19433681E+03   -0.26500696E-05    0.21390719E-03
    4   -0.19433681E+03   -0.61274196E-06    0.31090121E-04
    5   -0.19433681E+03   -0.11637297E-07    0.10174451E-04
    6   -0.19433681E+03   -0.12493047E-08    0.23645728E-05
    7   -0.19433681E+03   -0.36635583E-10    0.37079268E-06
    8   -0.19433681E+03   -0.96633812E-12    0.10396663E-06
    9   -0.19433681E+03   -0.56843419E-13    0.23528656E-07
   10   -0.19433681E+03    0.00000000E+00    0.27179690E-08

Total Energy:                     -192.3724437222 H        -5234.7205 eV
Extrapolated to 0K:               -192.3724437222 H        -5234.7205 eV
Total Mermin free energy:         -192.3724437222 H        -5234.7205 eV
Force related energy:             -192.3724437222 H        -5234.7205 eV

Volume:                              0.100881E+05 au^3   0.149491E+04 A^3
Pressure:                            0.283136E-05 au     0.833013E+08 Pa
>> Charges saved for restart in charges.bin

total energy  -1.9237244E+02 H       energy change -1.5893069E-04 H
gradient norm  9.5948724E-03 H/a0    max. gradient  2.0034977E-03 H/a0
step length    7.9588554E-02 a0      max. step      1.4477675E-02 a0

--------------------------------------------------------------------------------

***  Geometry step: 40

 iSCC Total electronic   Diff electronic      SCC error    
    1   -0.19433681E+03    0.00000000E+00    0.18828325E-02
    2   -0.19433797E+03   -0.11607058E-02    0.10968689E-02
    3   -0.19433797E+03   -0.29893235E-05    0.27660724E-03
    4   -0.19433797E+03   -0.66829864E-06    0.39520683E-04
    5   -0.19433797E+03   -0.12304355E-07    0.10438076E-04
    6   -0.19433797E+03   -0.11218049E-08    0.22810103E-05
    7   -0.19433797E+03   -0.42916781E-10    0.43750964E-06
    8   -0.19433797E+03   -0.99475983E-12    0.89363196E-07
    9   -0.19433797E+03   -0.28421709E-13    0.21253447E-07
   10   -0.19433797E+03   -0.28421709E-13    0.22398643E-08

Total Energy:                     -192.3725961170 H        -5234.7247 eV
Extrapolated to 0K:               -192.3725961170 H        -5234.7247 eV
Total Mermin free energy:         -192.3725961170 H        -5234.7247 eV
Force related energy:             -192.3725961170 H        -5234.7247 eV

Volume:                              0.100919E+05 au^3   0.149547E+04 A^3
Pressure:                            0.284513E-05 au     0.837066E+08 Pa
>> Charges saved for restart in charges.bin

total energy  -1.9237260E+02 H       energy change -1.5239478E-04 H
gradient norm  9.3262703E-03 H/a0    max. gradient  2.2101502E-03 H/a0
step length    8.9255971E-02 a0      max. step      1.6064684E-02 a0

--------------------------------------------------------------------------------

***  Geometry step: 41

 iSCC Total electronic   Diff electronic      SCC error    
    1   -0.19433797E+03    0.00000000E+00    0.17021858E-02
    2   -0.19433911E+03   -0.11372560E-02    0.88922607E-03
    3   -0.19433911E+03   -0.31875780E-05    0.25524228E-03
    4   -0.19433911E+03   -0.66255438E-06    0.45230992E-04
    5   -0.19433911E+03   -0.10712171E-07    0.60844740E-05
    6   -0.19433911E+03   -0.79643314E-09    0.17740747E-05
    7   -0.19433911E+03   -0.32770231E-10    0.44665614E-06
    8   -0.19433911E+03   -0.56843419E-12    0.71294805E-07
    9   -0.19433911E+03   -0.28421709E-13    0.15481420E-07
   10   -0.19433911E+03   -0.11368684E-12    0.19256481E-08

Total Energy:                     -192.3727213910 H        -5234.7281 eV
Extrapolated to 0K:               -192.3727213910 H        -5234.7281 eV
Total Mermin free energy:         -192.3727213910 H        -5234.7281 eV
Force related energy:             -192.3727213910 H        -5234.7281 eV

Volume:                              0.100949E+05 au^3   0.149591E+04 A^3
Pressure:                            0.299015E-05 au     0.879732E+08 Pa
>> Charges saved for restart in charges.bin

total energy  -1.9237272E+02 H       energy change -1.2527404E-04 H
gradient norm  8.5655905E-03 H/a0    max. gradient  1.8919440E-03 H/a0
step length    7.7056824E-02 a0      max. step      1.4980018E-02 a0

--------------------------------------------------------------------------------

***  Geometry step: 42

 iSCC Total electronic   Diff electronic      SCC error    
    1   -0.19433911E+03    0.00000000E+00    0.17782153E-02
    2   -0.19433956E+03   -0.44481418E-03    0.66953301E-03
    3   -0.19433956E+03   -0.27796463E-05    0.15181211E-03
    4   -0.19433956E+03   -0.54500885E-06    0.34975051E-04
    5   -0.19433956E+03   -0.77249638E-08    0.41139035E-05
    6   -0.19433956E+03   -0.72793682E-09    0.11290238E-05
    7   -0.19433956E+03   -0.17848834E-10    0.33414700E-06
    8   -0.19433956E+03   -0.19895197E-12    0.61982515E-07
    9   -0.19433956E+03   -0.85265128E-13    0.14477259E-07
   10   -0.19433956E+03   -0.28421709E-13    0.16641288E-08

Total Energy:                     -192.3728368401 H        -5234.7312 eV
Extrapolated to 0K:               -192.3728368401 H        -5234.7312 eV
Total Mermin free energy:         -192.3728368401 H        -5234.7312 eV
Force related energy:             -192.3728368401 H        -5234.7312 eV

Volume:                              0.100985E+05 au^3   0.149645E+04 A^3
Pressure:                            0.281717E-05 au     0.828839E+08 Pa
>> Charges saved for restart in charges.bin

total energy  -1.9237284E+02 H       energy change -1.1544906E-04 H
gradient norm  8.1085883E-03 H/a0    max. gradient  1.6474644E-03 H/a0
step length    6.8504436E-02 a0      max. step      1.3647917E-02 a0

--------------------------------------------------------------------------------

***  Geometry step: 43

 iSCC Total electronic   Diff electronic      SCC error    
    1   -0.19433956E+03    0.00000000E+00    0.16788408E-02
    2   -0.19433942E+03    0.14365465E-03    0.67891663E-03
    3   -0.19433942E+03   -0.24885007E-05    0.24412783E-03
    4   -0.19433942E+03   -0.49982506E-06    0.43942590E-04
    5   -0.19433942E+03   -0.76228162E-08    0.29052422E-05
    6   -0.19433942E+03   -0.92350660E-09    0.10672455E-05
    7   -0.19433942E+03   -0.14381385E-10    0.41811109E-06
    8   -0.19433942E+03   -0.19895197E-12    0.45200783E-07
    9   -0.19433942E+03    0.56843419E-13    0.75676829E-08

Total Energy:                     -192.3729566937 H        -5234.7345 eV
Extrapolated to 0K:               -192.3729566937 H        -5234.7345 eV
Total Mermin free energy:         -192.3729566937 H        -5234.7345 eV
Force related energy:             -192.3729566937 H        -5234.7345 eV

Volume:                              0.101034E+05 au^3   0.149717E+04 A^3
Pressure:                            0.228479E-05 au     0.672208E+08 Pa
>> Charges saved for restart in charges.bin

total energy  -1.9237296E+02 H       energy change -1.1985364E-04 H
gradient norm  8.4897351E-03 H/a0    max. gradient  2.0142491E-03 H/a0
step length    7.1286059E-02 a0      max. step      1.4373394E-02 a0

--------------------------------------------------------------------------------

***  Geometry step: 44

 iSCC Total electronic   Diff electronic      SCC error    
    1   -0.19433942E+03    0.00000000E+00    0.14965595E-02
    2   -0.19433902E+03    0.40194426E-03    0.81642932E-03
    3   -0.19433902E+03   -0.19957572E-05    0.26524421E-03
    4   -0.19433902E+03   -0.42305663E-06    0.39706435E-04
    5   -0.19433902E+03   -0.84983185E-08    0.40343963E-05
    6   -0.19433902E+03   -0.10119550E-08    0.12272362E-05
    7   -0.19433902E+03   -0.12562396E-10    0.34729930E-06
    8   -0.19433902E+03   -0.25579538E-12    0.62132730E-07
    9   -0.19433902E+03    0.14210855E-12    0.20659665E-07
   10   -0.19433902E+03   -0.85265128E-13    0.14336763E-08

Total Energy:                     -192.3730782297 H        -5234.7378 eV
Extrapolated to 0K:               -192.3730782297 H        -5234.7378 eV
Total Mermin free energy:         -192.3730782297 H        -5234.7378 eV
Force related energy:             -192.3730782297 H        -5234.7378 eV

Volume:                              0.101093E+05 au^3   0.149804E+04 A^3
Pressure:                            0.156061E-05 au     0.459148E+08 Pa
>> Charges saved for restart in charges.bin

total energy  -1.9237308E+02 H       energy change -1.2153595E-04 H
gradient norm  9.0570116E-03 H/a0    max. gradient  1.9835678E-03 H/a0
step length    7.3437367E-02 a0      max. step      1.4853108E-02 a0

--------------------------------------------------------------------------------

***  Geometry step: 45

 iSCC Total electronic   Diff electronic      SCC error    
    1   -0.19433902E+03    0.00000000E+00    0.13157449E-02
    2   -0.19433855E+03    0.46976669E-03    0.82337490E-03
    3   -0.19433855E+03   -0.20276777E-05    0.23543246E-03
    4   -0.19433855E+03   -0.47158457E-06    0.33881727E-04
    5   -0.19433855E+03   -0.10129980E-07    0.77102922E-05
    6   -0.19433855E+03   -0.79054985E-09    0.17419839E-05
    7   -0.19433855E+03   -0.18161472E-10    0.40876658E-06
    8   -0.19433855E+03   -0.25579538E-12    0.83992673E-07
    9   -0.19433855E+03   -0.85265128E-13    0.24652505E-07
   10   -0.19433855E+03    0.00000000E+00    0.16649948E-08

Total Energy:                     -192.3732016956 H        -5234.7412 eV
Extrapolated to 0K:               -192.3732016956 H        -5234.7412 eV
Total Mermin free energy:         -192.3732016956 H        -5234.7412 eV
Force related energy:             -192.3732016956 H        -5234.7412 eV

Volume:                              0.101160E+05 au^3   0.149903E+04 A^3
Pressure:                            0.739125E-06 au     0.217458E+08 Pa
>> Charges saved for restart in charges.bin

total energy  -1.9237320E+02 H       energy change -1.2346587E-04 H
gradient norm  8.5071655E-03 H/a0    max. gradient  1.8316821E-03 H/a0
step length    7.7311439E-02 a0      max. step      1.5301612E-02 a0

--------------------------------------------------------------------------------

***  Geometry step: 46

 iSCC Total electronic   Diff electronic      SCC error    
    1   -0.19433855E+03    0.00000000E+00    0.14562390E-02
    2   -0.19433895E+03   -0.39348403E-03    0.72222145E-03
    3   -0.19433895E+03   -0.19405345E-05    0.17095903E-03
    4   -0.19433895E+03   -0.44500584E-06    0.19395499E-04
    5   -0.19433895E+03   -0.81675466E-08    0.61186423E-05
    6   -0.19433895E+03   -0.51153393E-09    0.13863632E-05
    7   -0.19433895E+03   -0.14779289E-10    0.40917765E-06
    8   -0.19433895E+03   -0.34106051E-12    0.79972238E-07
    9   -0.19433895E+03    0.00000000E+00    0.21382609E-07
   10   -0.19433895E+03    0.28421709E-13    0.14288739E-08

Total Energy:                     -192.3733091504 H        -5234.7441 eV
Extrapolated to 0K:               -192.3733091504 H        -5234.7441 eV
Total Mermin free energy:         -192.3733091504 H        -5234.7441 eV
Force related energy:             -192.3733091504 H        -5234.7441 eV

Volume:                              0.101215E+05 au^3   0.149985E+04 A^3
Pressure:                            0.268136E-06 au     0.788883E+07 Pa
>> Charges saved for restart in charges.bin

total energy  -1.9237331E+02 H       energy change -1.0745481E-04 H
gradient norm  7.5366760E-03 H/a0    max. gradient  1.4270515E-03 H/a0
step length    7.2548840E-02 a0      max. step      1.4194579E-02 a0

--------------------------------------------------------------------------------

***  Geometry step: 47

 iSCC Total electronic   Diff electronic      SCC error    
    1   -0.19433895E+03    0.00000000E+00    0.11191618E-02
    2   -0.19434027E+03   -0.13174598E-02    0.58451361E-03
    3   -0.19434027E+03   -0.17090263E-05    0.18930796E-03
    4   -0.19434027E+03   -0.38380682E-06    0.16970269E-04
    5   -0.19434027E+03   -0.58595049E-08    0.33249570E-05
    6   -0.19434027E+03   -0.31386094E-09    0.11115962E-05
    7   -0.19434027E+03   -0.59969807E-11    0.30945409E-06
    8   -0.19434027E+03   -0.14210855E-12    0.52422268E-07
    9   -0.19434027E+03   -0.28421709E-13    0.15592307E-07
   10   -0.19434027E+03    0.28421709E-13    0.13865291E-08

Total Energy:                     -192.3734032826 H        -5234.7466 eV
Extrapolated to 0K:               -192.3734032826 H        -5234.7466 eV
Total Mermin free energy:         -192.3734032826 H        -5234.7466 eV
Force related energy:             -192.3734032826 H        -5234.7466 eV

Volume:                              0.101253E+05 au^3   0.150041E+04 A^3
Pressure:                            0.192669E-06 au     0.566852E+07 Pa
>> Charges saved for restart in charges.bin

total energy  -1.9237340E+02 H       energy change -9.4132204E-05 H
gradient norm  7.1652840E-03 H/a0    max. gradient  1.4408620E-03 H/a0
step length    6.8794045E-02 a0      max. step      1.4213435E-02 a0

--------------------------------------------------------------------------------

***  Geometry step: 48

 iSCC Total electronic   Diff electronic      SCC error    
    1   -0.19434027E+03    0.00000000E+00    0.11838864E-02
    2   -0.19434221E+03   -0.19429395E-02    0.54403292E-03
    3   -0.19434221E+03   -0.12421211E-05    0.16184434E-03
    4   -0.19434221E+03   -0.26671216E-06    0.16105779E-04
    5   -0.19434221E+03   -0.34685002E-08    0.22003801E-05
    6   -0.19434221E+03   -0.24897417E-09    0.78096479E-06
    7   -0.19434221E+03   -0.44906301E-11    0.21499269E-06
    8   -0.19434221E+03   -0.19895197E-12    0.49240417E-07
    9   -0.19434221E+03    0.11368684E-12    0.78990108E-08

Total Energy:                     -192.3734855182 H        -5234.7489 eV
Extrapolated to 0K:               -192.3734855182 H        -5234.7489 eV
Total Mermin free energy:         -192.3734855182 H        -5234.7489 eV
Force related energy:             -192.3734855182 H        -5234.7489 eV

Volume:                              0.101274E+05 au^3   0.150072E+04 A^3
Pressure:                            0.578631E-06 au     0.170239E+08 Pa
>> Charges saved for restart in charges.bin

total energy  -1.9237349E+02 H       energy change -8.2235619E-05 H
gradient norm  7.4084976E-03 H/a0    max. gradient  1.6018262E-03 H/a0
step length    6.2795735E-02 a0      max. step      1.3693994E-02 a0

--------------------------------------------------------------------------------

***  Geometry step: 49

 iSCC Total electronic   Diff electronic      SCC error    
    1   -0.19434221E+03    0.00000000E+00    0.12865741E-02
    2   -0.19434424E+03   -0.20242590E-02    0.52908497E-03
    3   -0.19434424E+03   -0.16983462E-05    0.17926665E-03
    4   -0.19434424E+03   -0.34798026E-06    0.19084322E-04
    5   -0.19434424E+03   -0.44142325E-08    0.34545854E-05
    6   -0.19434424E+03   -0.37420023E-09    0.11007662E-05
    7   -0.19434424E+03   -0.57411853E-11    0.28413162E-06
    8   -0.19434424E+03   -0.17053026E-12    0.73738912E-07
    9   -0.19434424E+03    0.00000000E+00    0.20020104E-07
   10   -0.19434424E+03   -0.28421709E-13    0.14528072E-08

Total Energy:                     -192.3735794695 H        -5234.7514 eV
Extrapolated to 0K:               -192.3735794695 H        -5234.7514 eV
Total Mermin free energy:         -192.3735794695 H        -5234.7514 eV
Force related energy:             -192.3735794695 H        -5234.7514 eV

Volume:                              0.101294E+05 au^3   0.150102E+04 A^3
Pressure:                            0.892351E-06 au     0.262539E+08 Pa
>> Charges saved for restart in charges.bin

total energy  -1.9237358E+02 H       energy change -9.3951272E-05 H
gradient norm  7.8563095E-03 H/a0    max. gradient  1.6641530E-03 H/a0
step length    7.8199059E-02 a0      max. step      1.7452925E-02 a0

--------------------------------------------------------------------------------

***  Geometry step: 50

 iSCC Total electronic   Diff electronic      SCC error    
    1   -0.19434424E+03    0.00000000E+00    0.13226191E-02
    2   -0.19434591E+03   -0.16739711E-02    0.53978732E-03
    3   -0.19434592E+03   -0.19034923E-05    0.17979785E-03
    4   -0.19434592E+03   -0.40142942E-06    0.20935311E-04
    5   -0.19434592E+03   -0.50244182E-08    0.43340435E-05
    6   -0.19434592E+03   -0.48981974E-09    0.14265886E-05
    7   -0.19434592E+03   -0.66222583E-11    0.36033283E-06
    8   -0.19434592E+03   -0.14210855E-12    0.71323121E-07
    9   -0.19434592E+03    0.56843419E-13    0.17395704E-07
   10   -0.19434592E+03   -0.14210855E-12    0.18442061E-08

Total Energy:                     -192.3736739333 H        -5234.7540 eV
Extrapolated to 0K:               -192.3736739333 H        -5234.7540 eV
Total Mermin free energy:         -192.3736739333 H        -5234.7540 eV
Force related energy:             -192.3736739333 H        -5234.7540 eV

Volume:                              0.101310E+05 au^3   0.150126E+04 A^3
Pressure:                            0.127808E-05 au     0.376025E+08 Pa
>> Charges saved for restart in charges.bin

total energy  -1.9237367E+02 H       energy change -9.4463836E-05 H
gradient norm  7.6502672E-03 H/a0    max. gradient  1.5735445E-03 H/a0
step length    8.0451028E-02 a0      max. step      1.7517317E-02 a0

--------------------------------------------------------------------------------

***  Geometry step: 51

 iSCC Total electronic   Diff electronic      SCC error    
    1   -0.19434592E+03    0.00000000E+00    0.17208635E-02
    2   -0.19434638E+03   -0.46783631E-03    0.70708800E-03
    3   -0.19434639E+03   -0.23232601E-05    0.21862857E-03
    4   -0.19434639E+03   -0.50691293E-06    0.24099087E-04
    5   -0.19434639E+03   -0.66205530E-08    0.29735967E-05
    6   -0.19434639E+03   -0.63079142E-09    0.10113700E-05
    7   -0.19434639E+03   -0.52864380E-11    0.29720503E-06
    8   -0.19434639E+03   -0.19895197E-12    0.45364983E-07
    9   -0.19434639E+03    0.56843419E-13    0.13900749E-07
   10   -0.19434639E+03    0.00000000E+00    0.21831590E-08

Total Energy:                     -192.3737730078 H        -5234.7567 eV
Extrapolated to 0K:               -192.3737730078 H        -5234.7567 eV
Total Mermin free energy:         -192.3737730078 H        -5234.7567 eV
Force related energy:             -192.3737730078 H        -5234.7567 eV

Volume:                              0.101330E+05 au^3   0.150155E+04 A^3
Pressure:                            0.135373E-05 au     0.398282E+08 Pa
>> Charges saved for restart in charges.bin

total energy  -1.9237377E+02 H       energy change -9.9074534E-05 H
gradient norm  7.4675938E-03 H/a0    max. gradient  1.6479562E-03 H/a0
step length    8.7781968E-02 a0      max. step      1.8668540E-02 a0

--------------------------------------------------------------------------------

***  Geometry step: 52

 iSCC Total electronic   Diff electronic      SCC error    
    1   -0.19434639E+03    0.00000000E+00    0.16368163E-02
    2   -0.19434552E+03    0.86934601E-03    0.77757511E-03
    3   -0.19434552E+03   -0.16917843E-05    0.23773832E-03
[...]
Extrapolated to 0K:               -192.3779413590 H        -5234.8701 eV
Total Mermin free energy:         -192.3779413590 H        -5234.8701 eV
Force related energy:             -192.3779413590 H        -5234.8701 eV

Volume:                              0.100082E+05 au^3   0.148306E+04 A^3
Pressure:                            0.510477E-07 au     0.150187E+07 Pa
>> Charges saved for restart in charges.bin

total energy  -1.9237794E+02 H       energy change -1.2124914E-06 H
gradient norm  7.6449505E-04 H/a0    max. gradient  2.0326485E-04 H/a0
step length    9.6169259E-03 a0      max. step      2.0905352E-03 a0

--------------------------------------------------------------------------------

***  Geometry step: 206

 iSCC Total electronic   Diff electronic      SCC error    
    1   -0.19434006E+03    0.00000000E+00    0.20037918E-03
    2   -0.19434017E+03   -0.10801108E-03    0.92348582E-04
    3   -0.19434017E+03   -0.16104792E-07    0.20707923E-04
    4   -0.19434017E+03   -0.36828567E-08    0.22061224E-05
    5   -0.19434017E+03   -0.41836756E-10    0.23620480E-06
    6   -0.19434017E+03   -0.28137492E-11    0.63032202E-07
    7   -0.19434017E+03   -0.11368684E-12    0.94040407E-08

Total Energy:                     -192.3779422354 H        -5234.8702 eV
Extrapolated to 0K:               -192.3779422354 H        -5234.8702 eV
Total Mermin free energy:         -192.3779422354 H        -5234.8702 eV
Force related energy:             -192.3779422354 H        -5234.8702 eV

Volume:                              0.100078E+05 au^3   0.148301E+04 A^3
Pressure:                            0.108670E-06 au     0.319718E+07 Pa
>> Charges saved for restart in charges.bin

total energy  -1.9237794E+02 H       energy change -8.7639506E-07 H
gradient norm  7.3992510E-04 H/a0    max. gradient  1.9130486E-04 H/a0
step length    5.1857106E-03 a0      max. step      1.1613914E-03 a0

--------------------------------------------------------------------------------

***  Geometry step: 207

 iSCC Total electronic   Diff electronic      SCC error    
    1   -0.19434017E+03    0.00000000E+00    0.24793176E-03
    2   -0.19433990E+03    0.26933611E-03    0.11277391E-03
    3   -0.19433990E+03   -0.34605392E-07    0.22645649E-04
    4   -0.19433990E+03   -0.81960252E-08    0.32403702E-05
    5   -0.19433990E+03   -0.86799901E-10    0.55104980E-06
    6   -0.19433990E+03   -0.67075234E-11    0.12408766E-06
    7   -0.19433990E+03   -0.11368684E-12    0.17905590E-07
    8   -0.19433990E+03   -0.85265128E-13    0.52745177E-08

Total Energy:                     -192.3779435218 H        -5234.8702 eV
Extrapolated to 0K:               -192.3779435218 H        -5234.8702 eV
Total Mermin free energy:         -192.3779435218 H        -5234.8702 eV
Force related energy:             -192.3779435218 H        -5234.8702 eV

Volume:                              0.100059E+05 au^3   0.148272E+04 A^3
Pressure:                            0.700937E-07 au     0.206223E+07 Pa
>> Charges saved for restart in charges.bin

total energy  -1.9237794E+02 H       energy change -1.2864339E-06 H
gradient norm  7.2085852E-04 H/a0    max. gradient  1.9341225E-04 H/a0
step length    2.4112595E-02 a0      max. step      6.7008095E-03 a0

--------------------------------------------------------------------------------

***  Geometry step: 208

 iSCC Total electronic   Diff electronic      SCC error    
    1   -0.19433990E+03    0.00000000E+00    0.12527201E-03
    2   -0.19434008E+03   -0.17584514E-03    0.59505107E-04
    3   -0.19434008E+03   -0.69846635E-08    0.11215975E-04
    4   -0.19434008E+03   -0.17955983E-08    0.15777297E-05
    5   -0.19434008E+03   -0.19440449E-10    0.30404981E-06
    6   -0.19434008E+03   -0.13642421E-11    0.70761499E-07
    7   -0.19434008E+03    0.28421709E-13    0.69092860E-08

Total Energy:                     -192.3779441642 H        -5234.8702 eV
Extrapolated to 0K:               -192.3779441642 H        -5234.8702 eV
Total Mermin free energy:         -192.3779441642 H        -5234.8702 eV
Force related energy:             -192.3779441642 H        -5234.8702 eV

Volume:                              0.100057E+05 au^3   0.148270E+04 A^3
Pressure:                            0.137433E-06 au     0.404341E+07 Pa
>> Charges saved for restart in charges.bin

total energy  -1.9237794E+02 H       energy change -6.4236394E-07 H
gradient norm  6.6936987E-04 H/a0    max. gradient  1.2909606E-04 H/a0
step length    2.0760793E-03 a0      max. step      5.2670338E-04 a0

--------------------------------------------------------------------------------

***  Geometry step: 209

 iSCC Total electronic   Diff electronic      SCC error    
    1   -0.19434008E+03    0.00000000E+00    0.16535102E-03
    2   -0.19434020E+03   -0.11849604E-03    0.75329326E-04
    3   -0.19434020E+03   -0.20394310E-07    0.19841530E-04
    4   -0.19434020E+03   -0.46139235E-08    0.24089664E-05
    5   -0.19434020E+03   -0.69604766E-10    0.52394765E-06
    6   -0.19434020E+03   -0.42916781E-11    0.12970074E-06
    7   -0.19434020E+03    0.00000000E+00    0.13467544E-07
    8   -0.19434020E+03   -0.56843419E-13    0.29706371E-08

Total Energy:                     -192.3779450669 H        -5234.8702 eV
Extrapolated to 0K:               -192.3779450669 H        -5234.8702 eV
Total Mermin free energy:         -192.3779450669 H        -5234.8702 eV
Force related energy:             -192.3779450669 H        -5234.8702 eV

Volume:                              0.100057E+05 au^3   0.148269E+04 A^3
Pressure:                            0.197550E-06 au     0.581211E+07 Pa
>> Charges saved for restart in charges.bin

total energy  -1.9237795E+02 H       energy change -9.0272366E-07 H
gradient norm  6.2746648E-04 H/a0    max. gradient  1.5723531E-04 H/a0
step length    3.9246623E-03 a0      max. step      1.0969980E-03 a0

--------------------------------------------------------------------------------

***  Geometry step: 210

 iSCC Total electronic   Diff electronic      SCC error    
    1   -0.19434020E+03    0.00000000E+00    0.10643942E-03
    2   -0.19434012E+03    0.75139457E-04    0.52962774E-04
    3   -0.19434012E+03   -0.10539281E-07    0.17588937E-04
    4   -0.19434012E+03   -0.23185294E-08    0.17804361E-05
    5   -0.19434012E+03   -0.41666226E-10    0.49340807E-06
    6   -0.19434012E+03   -0.28705927E-11    0.10517220E-06
    7   -0.19434012E+03   -0.56843419E-13    0.10036434E-07
    8   -0.19434012E+03    0.85265128E-13    0.28745615E-08

Total Energy:                     -192.3779456476 H        -5234.8702 eV
Extrapolated to 0K:               -192.3779456476 H        -5234.8702 eV
Total Mermin free energy:         -192.3779456476 H        -5234.8702 eV
Force related energy:             -192.3779456476 H        -5234.8702 eV

Volume:                              0.100058E+05 au^3   0.148271E+04 A^3
Pressure:                            0.142956E-06 au     0.420591E+07 Pa
>> Charges saved for restart in charges.bin

total energy  -1.9237795E+02 H       energy change -5.8068409E-07 H
gradient norm  6.1369501E-04 H/a0    max. gradient  1.5856496E-04 H/a0
step length    3.5669794E-03 a0      max. step      8.4849086E-04 a0

--------------------------------------------------------------------------------

***  Geometry step: 211

 iSCC Total electronic   Diff electronic      SCC error    
    1   -0.19434012E+03    0.00000000E+00    0.13776861E-03
    2   -0.19433997E+03    0.14996354E-03    0.59111831E-04
    3   -0.19433997E+03   -0.13338251E-07    0.16648714E-04
    4   -0.19433997E+03   -0.29652369E-08    0.25891347E-05
    5   -0.19433997E+03   -0.39875658E-10    0.48181802E-06
    6   -0.19433997E+03   -0.36379788E-11    0.10847701E-06
    7   -0.19433997E+03   -0.85265128E-13    0.12241772E-07
    8   -0.19433997E+03   -0.14210855E-12    0.28214200E-08

Total Energy:                     -192.3779462274 H        -5234.8703 eV
Extrapolated to 0K:               -192.3779462274 H        -5234.8703 eV
Total Mermin free energy:         -192.3779462274 H        -5234.8703 eV
Force related energy:             -192.3779462274 H        -5234.8703 eV

Volume:                              0.100060E+05 au^3   0.148274E+04 A^3
Pressure:                            0.846694E-07 au     0.249106E+07 Pa
>> Charges saved for restart in charges.bin

total energy  -1.9237795E+02 H       energy change -5.7982280E-07 H
gradient norm  5.5179700E-04 H/a0    max. gradient  1.5486187E-04 H/a0
step length    4.7400272E-03 a0      max. step      1.0443819E-03 a0

--------------------------------------------------------------------------------

***  Geometry step: 212

 iSCC Total electronic   Diff electronic      SCC error    
    1   -0.19433997E+03    0.00000000E+00    0.77575716E-04
    2   -0.19433974E+03    0.23091623E-03    0.32825301E-04
    3   -0.19433974E+03   -0.88381853E-08    0.13156599E-04
    4   -0.19433974E+03   -0.20642403E-08    0.24257975E-05
    5   -0.19433974E+03   -0.27512215E-10    0.33533175E-06
    6   -0.19433974E+03   -0.28421709E-11    0.94077901E-07
    7   -0.19433974E+03   -0.28421709E-13    0.11785788E-07
    8   -0.19433974E+03   -0.56843419E-13    0.22891613E-08

Total Energy:                     -192.3779467427 H        -5234.8703 eV
Extrapolated to 0K:               -192.3779467427 H        -5234.8703 eV
Total Mermin free energy:         -192.3779467427 H        -5234.8703 eV
Force related energy:             -192.3779467427 H        -5234.8703 eV

Volume:                              0.100062E+05 au^3   0.148277E+04 A^3
Pressure:                           -0.154120E-07 au    -0.453437E+06 Pa
>> Charges saved for restart in charges.bin

total energy  -1.9237795E+02 H       energy change -5.1530802E-07 H
gradient norm  5.3839101E-04 H/a0    max. gradient  1.2935723E-04 H/a0
step length    5.6163173E-03 a0      max. step      9.6635206E-04 a0

--------------------------------------------------------------------------------

***  Geometry step: 213

 iSCC Total electronic   Diff electronic      SCC error    
    1   -0.19433974E+03    0.00000000E+00    0.89840680E-04
    2   -0.19433965E+03    0.94479330E-04    0.41682672E-04
    3   -0.19433965E+03   -0.56306533E-08    0.75450524E-05
    4   -0.19433965E+03   -0.12830128E-08    0.11416928E-05
    5   -0.19433965E+03   -0.11795009E-10    0.20445506E-06
    6   -0.19433965E+03   -0.85265128E-12    0.60355073E-07
    7   -0.19433965E+03   -0.56843419E-13    0.56547846E-08

Total Energy:                     -192.3779471507 H        -5234.8703 eV
Extrapolated to 0K:               -192.3779471507 H        -5234.8703 eV
Total Mermin free energy:         -192.3779471507 H        -5234.8703 eV
Force related energy:             -192.3779471507 H        -5234.8703 eV

Volume:                              0.100063E+05 au^3   0.148278E+04 A^3
Pressure:                           -0.537077E-07 au    -0.158014E+07 Pa
>> Charges saved for restart in charges.bin

total energy  -1.9237795E+02 H       energy change -4.0792054E-07 H
gradient norm  5.3523473E-04 H/a0    max. gradient  1.4265027E-04 H/a0
step length    1.4202737E-03 a0      max. step      2.9937679E-04 a0

--------------------------------------------------------------------------------

***  Geometry step: 214

 iSCC Total electronic   Diff electronic      SCC error    
    1   -0.19433965E+03    0.00000000E+00    0.16749661E-03
    2   -0.19433952E+03    0.12687399E-03    0.75277091E-04
    3   -0.19433952E+03   -0.23289829E-07    0.17422799E-04
    4   -0.19433952E+03   -0.48755737E-08    0.25952044E-05
    5   -0.19433952E+03   -0.47492676E-10    0.42551978E-06
    6   -0.19433952E+03   -0.49169557E-11    0.12715498E-06
    7   -0.19433952E+03   -0.85265128E-13    0.12432404E-07
    8   -0.19433952E+03    0.00000000E+00    0.33051415E-08

Total Energy:                     -192.3779480048 H        -5234.8703 eV
Extrapolated to 0K:               -192.3779480048 H        -5234.8703 eV
Total Mermin free energy:         -192.3779480048 H        -5234.8703 eV
Force related energy:             -192.3779480048 H        -5234.8703 eV

Volume:                              0.100061E+05 au^3   0.148275E+04 A^3
Pressure:                           -0.978078E-07 au    -0.287760E+07 Pa
>> Charges saved for restart in charges.bin

total energy  -1.9237795E+02 H       energy change -8.5411804E-07 H
gradient norm  6.3018915E-04 H/a0    max. gradient  1.5767532E-04 H/a0
step length    7.2468916E-03 a0      max. step      1.4493198E-03 a0

--------------------------------------------------------------------------------

***  Geometry step: 215

 iSCC Total electronic   Diff electronic      SCC error    
    1   -0.19433952E+03    0.00000000E+00    0.14502792E-03
    2   -0.19433949E+03    0.32736896E-04    0.62494311E-04
    3   -0.19433949E+03   -0.18821083E-07    0.11815994E-04
    4   -0.19433949E+03   -0.35827270E-08    0.27514001E-05
    5   -0.19433949E+03   -0.44025228E-10    0.44724360E-06
    6   -0.19433949E+03   -0.45758952E-11    0.12574378E-06
    7   -0.19433949E+03   -0.14210855E-12    0.11128461E-07
    8   -0.19433949E+03    0.28421709E-13    0.30542724E-08

Total Energy:                     -192.3779487623 H        -5234.8703 eV
Extrapolated to 0K:               -192.3779487623 H        -5234.8703 eV
Total Mermin free energy:         -192.3779487623 H        -5234.8703 eV
Force related energy:             -192.3779487623 H        -5234.8703 eV

Volume:                              0.100058E+05 au^3   0.148271E+04 A^3
Pressure:                           -0.104327E-06 au    -0.306941E+07 Pa
>> Charges saved for restart in charges.bin

total energy  -1.9237795E+02 H       energy change -7.5754679E-07 H
gradient norm  7.1907231E-04 H/a0    max. gradient  1.9325548E-04 H/a0
step length    9.6251696E-03 a0      max. step      2.0312504E-03 a0

--------------------------------------------------------------------------------

***  Geometry step: 216

 iSCC Total electronic   Diff electronic      SCC error    
    1   -0.19433949E+03    0.00000000E+00    0.94543755E-04
    2   -0.19433966E+03   -0.17519118E-03    0.42013654E-04
    3   -0.19433966E+03   -0.10048524E-07    0.14702054E-04
    4   -0.19433966E+03   -0.20422135E-08    0.19542667E-05
    5   -0.19433966E+03   -0.32201797E-10    0.18485905E-06
    6   -0.19433966E+03   -0.26432190E-11    0.53978134E-07
    7   -0.19433966E+03    0.28421709E-13    0.10068371E-07
    8   -0.19433966E+03   -0.28421709E-13    0.15933690E-08

Total Energy:                     -192.3779493468 H        -5234.8703 eV
Extrapolated to 0K:               -192.3779493468 H        -5234.8703 eV
Total Mermin free energy:         -192.3779493468 H        -5234.8703 eV
Force related energy:             -192.3779493468 H        -5234.8703 eV

Volume:                              0.100056E+05 au^3   0.148268E+04 A^3
Pressure:                           -0.228409E-07 au    -0.672002E+06 Pa
>> Charges saved for restart in charges.bin

total energy  -1.9237795E+02 H       energy change -5.8447932E-07 H
gradient norm  5.7027641E-04 H/a0    max. gradient  2.0712806E-04 H/a0
step length    3.0764266E-03 a0      max. step      5.5416300E-04 a0

--------------------------------------------------------------------------------

***  Geometry step: 217

 iSCC Total electronic   Diff electronic      SCC error    
    1   -0.19433966E+03    0.00000000E+00    0.11363191E-03
    2   -0.19433988E+03   -0.21970026E-03    0.50227870E-04
    3   -0.19433988E+03   -0.11721141E-07    0.16879552E-04
    4   -0.19433988E+03   -0.24789699E-08    0.19526741E-05
    5   -0.19433988E+03   -0.40358827E-10    0.33338440E-06
    6   -0.19433988E+03   -0.34106051E-11    0.79706856E-07
    7   -0.19433988E+03   -0.56843419E-13    0.11482322E-07
    8   -0.19433988E+03    0.00000000E+00    0.24225684E-08

Total Energy:                     -192.3779498884 H        -5234.8704 eV
Extrapolated to 0K:               -192.3779498884 H        -5234.8704 eV
Total Mermin free energy:         -192.3779498884 H        -5234.8704 eV
Force related energy:             -192.3779498884 H        -5234.8704 eV

Volume:                              0.100053E+05 au^3   0.148263E+04 A^3
Pressure:                            0.766859E-07 au     0.225618E+07 Pa
>> Charges saved for restart in charges.bin

total energy  -1.9237795E+02 H       energy change -5.4163425E-07 H
gradient norm  4.8144944E-04 H/a0    max. gradient  1.3922721E-04 H/a0
step length    4.1160057E-03 a0      max. step      7.1187488E-04 a0

--------------------------------------------------------------------------------

***  Geometry step: 218

 iSCC Total electronic   Diff electronic      SCC error    
    1   -0.19433988E+03    0.00000000E+00    0.88644126E-04
    2   -0.19433996E+03   -0.77312804E-04    0.39086153E-04
    3   -0.19433996E+03   -0.79772633E-08    0.14814042E-04
    4   -0.19433996E+03   -0.15746195E-08    0.19926158E-05
    5   -0.19433996E+03   -0.24755309E-10    0.23571243E-06
    6   -0.19433996E+03   -0.22453150E-11    0.72528353E-07
    7   -0.19433996E+03    0.28421709E-13    0.10766644E-07
    8   -0.19433996E+03   -0.28421709E-13    0.25060092E-08

Total Energy:                     -192.3779503293 H        -5234.8704 eV
Extrapolated to 0K:               -192.3779503293 H        -5234.8704 eV
Total Mermin free energy:         -192.3779503293 H        -5234.8704 eV
Force related energy:             -192.3779503293 H        -5234.8704 eV

Volume:                              0.100050E+05 au^3   0.148258E+04 A^3
Pressure:                            0.112073E-06 au     0.329730E+07 Pa
>> Charges saved for restart in charges.bin

total energy  -1.9237795E+02 H       energy change -4.4086826E-07 H
gradient norm  4.7533528E-04 H/a0    max. gradient  1.0022497E-04 H/a0
step length    5.7136995E-03 a0      max. step      1.1561103E-03 a0

--------------------------------------------------------------------------------

***  Geometry step: 219

 iSCC Total electronic   Diff electronic      SCC error    
    1   -0.19433996E+03    0.00000000E+00    0.68788831E-04
    2   -0.19433992E+03    0.38000596E-04    0.26906549E-04
    3   -0.19433992E+03   -0.44776982E-08    0.81145282E-05
    4   -0.19433992E+03   -0.10697079E-08    0.11702419E-05
    5   -0.19433992E+03   -0.11738166E-10    0.14001258E-06
    6   -0.19433992E+03   -0.10516032E-11    0.24394493E-07
    7   -0.19433992E+03    0.85265128E-13    0.38579446E-08

Total Energy:                     -192.3779506387 H        -5234.8704 eV
Extrapolated to 0K:               -192.3779506387 H        -5234.8704 eV
Total Mermin free energy:         -192.3779506387 H        -5234.8704 eV
Force related energy:             -192.3779506387 H        -5234.8704 eV

Volume:                              0.100050E+05 au^3   0.148259E+04 A^3
Pressure:                            0.936121E-07 au     0.275416E+07 Pa
>> Charges saved for restart in charges.bin

total energy  -1.9237795E+02 H       energy change -3.0937460E-07 H
gradient norm  4.1508399E-04 H/a0    max. gradient  9.1483253E-05 H/a0
step length    1.1264856E-03 a0      max. step      1.8427094E-04 a0

Geometry converged

--------------------------------------------------------------------------------
DFTB+ running times                          cpu [s]             wall clock [s]
--------------------------------------------------------------------------------
Pre-SCC initialisation                 +      22.43 (  1.3%)       2.72 (  1.3%)
SCC                                    +    1462.96 ( 87.2%)     184.22 ( 88.5%)
Post-SCC processing                    +     191.61 ( 11.4%)      21.12 ( 10.2%)
--------------------------------------------------------------------------------
Missing                                +       0.04 (  0.0%)       0.00 (  0.0%)
Total                                  =    1677.02 (100.0%)     208.06 (100.0%)
--------------------------------------------------------------------------------
