|===============================================================================
|
|  DFTB+ release 24.1
|
|  Copyright (C) 2006 - 2024  DFTB+ developers group
|
|===============================================================================
|
|  When publishing results obtained with DFTB+, please cite the following
|  reference:
|
|  * DFTB+, a software package for efficient approximate density functional
|    theory based atomistic simulations, J. Chem. Phys. 152, 124101 (2020).
|    [doi: 10.1063/1.5143190]
|
|  You should also cite additional publications crediting the parametrization
|  data you use. Please consult the documentation of the SK-files for the
|  references.
|
|===============================================================================

Reading input file 'dftb_in.hsd'
Parser version: 14

--------------------------------------------------------------------------------
Reading SK-files:
./SKFiles/Ge-Ge.skf
./SKFiles/Ge-Si.skf
./SKFiles/Ge-O.skf
./SKFiles/Si-Si.skf
./SKFiles/Si-O.skf
./SKFiles/O-O.skf
Done.


Processed input in HSD format written to 'dftb_pin.hsd'

Starting initialization...
--------------------------------------------------------------------------------
WARNING!
-> Dipole printed for extended system : value printed is not well defined
MPI processes:               1
OpenMP threads:              8
BLACS orbital grid size:     1 x 1
BLACS atom grid size:        1 x 1
Chosen random seed:          141973044
Current stacksize:           unlimited
Mode:                        Static calculation
Self consistent charges:     Yes
SCC-tolerance:                 0.100000E-07
Max. scc iterations:                    500
Shell resolved Hubbard:      No
Spin polarisation:           No
Nr. of up electrons:           192.000000
Nr. of down electrons:         192.000000
Periodic boundaries:         Yes
Electronic solver:           Relatively robust
Mixer:                       Broyden mixer
Mixing parameter:                  0.200000
Maximal SCC-cycles:                     500
Nr. of chrg. vec. in memory:            500
Electronic temperature:              0.100000E-07 H      0.272114E-06 eV
Initial charges:             Set automatically (system chrg:   0.000E+00)
Included shells:            Ge:  s, p, d
                            Si:  s, p, d
                             O:  s, p
K-points and weights:           1:  0.500000  0.500000  0.500000     1.000000

K-points in absolute space:     1:  0.025319  0.017606  0.037774

Extra options:
                             Mulliken analysis
Force type                   original

--------------------------------------------------------------------------------

***  Geometry step: 0

 iSCC Total electronic   Diff electronic      SCC error    
    1    0.00000000E+00    0.00000000E+00    0.14597501E+01
    2   -0.19480278E+03   -0.19480278E+03    0.99409510E+00
    3   -0.19516913E+03   -0.36635288E+00    0.59649109E-01
    4   -0.19548496E+03   -0.31583317E+00    0.28007987E-01
    5   -0.19548697E+03   -0.20041442E-02    0.76719521E-02
    6   -0.19548711E+03   -0.14479057E-03    0.17039735E-02
    7   -0.19548711E+03   -0.38865314E-05    0.42296146E-03
    8   -0.19548712E+03   -0.11278081E-05    0.61873346E-04
    9   -0.19548712E+03   -0.63745603E-07    0.30805627E-04
   10   -0.19548712E+03   -0.40586201E-10    0.16605180E-05
   11   -0.19548712E+03   -0.20617108E-09    0.36289770E-06
   12   -0.19548712E+03   -0.28990144E-11    0.21953522E-06
   13   -0.19548712E+03   -0.28421709E-13    0.18550690E-07
   14   -0.19548712E+03    0.28421709E-13    0.38433008E-08

Total Energy:                     -191.8772208015 H        -5221.2448 eV
Extrapolated to 0K:               -191.8772208015 H        -5221.2448 eV
Total Mermin free energy:         -191.8772208015 H        -5221.2448 eV
Force related energy:             -191.8772208015 H        -5221.2448 eV

Volume:                              0.913789E+04 au^3   0.135410E+04 A^3
Pressure:                            0.716000E-03 au     0.210654E+11 Pa
>> Charges saved for restart in charges.bin

total energy  -1.9187722E+02 H       energy change -1.9187722E+02 H
gradient norm  8.5943215E-01 H/a0    max. gradient  4.4218173E-01 H/a0
step length    0.0000000E+00 a0      max. step      0.0000000E+00 a0

--------------------------------------------------------------------------------

***  Geometry step: 1

 iSCC Total electronic   Diff electronic      SCC error    
    1   -0.19548712E+03    0.00000000E+00    0.89679144E-01
    2   -0.19513836E+03    0.34875551E+00    0.44562901E-01
    3   -0.19514473E+03   -0.63687413E-02    0.14596170E-01
    4   -0.19514617E+03   -0.14425265E-02    0.91174851E-03
    5   -0.19514619E+03   -0.15972962E-04    0.33670371E-03
    6   -0.19514619E+03   -0.58093408E-06    0.98977407E-04
    7   -0.19514619E+03   -0.44604661E-07    0.16389462E-04
    8   -0.19514619E+03   -0.33851393E-08    0.26848475E-05
    9   -0.19514619E+03   -0.19949198E-09    0.61380122E-06
   10   -0.19514619E+03   -0.37232439E-11    0.20866868E-06
   11   -0.19514619E+03   -0.28421709E-13    0.31643738E-07
   12   -0.19514619E+03   -0.56843419E-13    0.79884290E-08

Total Energy:                     -192.0367416007 H        -5225.5856 eV
Extrapolated to 0K:               -192.0367416007 H        -5225.5856 eV
Total Mermin free energy:         -192.0367416007 H        -5225.5856 eV
Force related energy:             -192.0367416007 H        -5225.5856 eV

Volume:                              0.944772E+04 au^3   0.140001E+04 A^3
Pressure:                            0.472273E-03 au     0.138947E+11 Pa
>> Charges saved for restart in charges.bin

total energy  -1.9203674E+02 H       energy change -1.5952080E-01 H
gradient norm  5.8656729E-01 H/a0    max. gradient  1.6023767E-01 H/a0
step length    5.7514202E-01 a0      max. step      2.9591317E-01 a0

--------------------------------------------------------------------------------

***  Geometry step: 2

 iSCC Total electronic   Diff electronic      SCC error    
    1   -0.19514619E+03    0.00000000E+00    0.59502498E-01
    2   -0.19507438E+03    0.71802862E-01    0.35094785E-01
    3   -0.19507700E+03   -0.26148188E-02    0.95535513E-02
    4   -0.19507763E+03   -0.63483448E-03    0.87867202E-03
    5   -0.19507764E+03   -0.62734672E-05    0.19318223E-03
    6   -0.19507764E+03   -0.34032703E-06    0.10068673E-03
    7   -0.19507764E+03   -0.18221215E-07    0.16456660E-04
    8   -0.19507764E+03   -0.18869173E-08    0.16865565E-05
    9   -0.19507764E+03   -0.11115731E-09    0.62093775E-06
   10   -0.19507764E+03   -0.20463631E-11    0.18630260E-06
   11   -0.19507764E+03   -0.14210855E-12    0.32357950E-07
   12   -0.19507764E+03    0.14210855E-12    0.44592090E-08

Total Energy:                     -192.1741520416 H        -5229.3247 eV
Extrapolated to 0K:               -192.1741520416 H        -5229.3247 eV
Total Mermin free energy:         -192.1741520416 H        -5229.3247 eV
Force related energy:             -192.1741520416 H        -5229.3247 eV

Volume:                              0.943968E+04 au^3   0.139882E+04 A^3
Pressure:                            0.399887E-03 au     0.117651E+11 Pa
>> Charges saved for restart in charges.bin

total energy  -1.9217415E+02 H       energy change -1.3741044E-01 H
gradient norm  2.8356560E-01 H/a0    max. gradient  7.3244983E-02 H/a0
step length    3.8392096E-01 a0      max. step      9.7021048E-02 a0

--------------------------------------------------------------------------------

***  Geometry step: 3

 iSCC Total electronic   Diff electronic      SCC error    
    1   -0.19507764E+03    0.00000000E+00    0.62670312E-01
    2   -0.19488814E+03    0.18950603E+00    0.37029378E-01
    3   -0.19488987E+03   -0.17367833E-02    0.78659314E-02
    4   -0.19489033E+03   -0.46110104E-03    0.81329827E-03
    5   -0.19489034E+03   -0.59265961E-05    0.21475233E-03
    6   -0.19489034E+03   -0.34579739E-06    0.12125992E-03
    7   -0.19489034E+03   -0.10458166E-07    0.15714950E-04
    8   -0.19489034E+03   -0.13411920E-08    0.15301402E-05
    9   -0.19489034E+03   -0.65199401E-10    0.36639724E-06
   10   -0.19489034E+03   -0.90949470E-12    0.56895842E-07
   11   -0.19489034E+03    0.00000000E+00    0.16305209E-07
   12   -0.19489034E+03    0.28421709E-13    0.47663806E-08

Total Energy:                     -192.2596329133 H        -5231.6508 eV
Extrapolated to 0K:               -192.2596329133 H        -5231.6508 eV
Total Mermin free energy:         -192.2596329133 H        -5231.6508 eV
Force related energy:             -192.2596329133 H        -5231.6508 eV

Volume:                              0.951066E+04 au^3   0.140933E+04 A^3
Pressure:                            0.296047E-03 au     0.870999E+10 Pa
>> Charges saved for restart in charges.bin

total energy  -1.9225963E+02 H       energy change -8.5480872E-02 H
gradient norm  1.7809125E-01 H/a0    max. gradient  5.9077020E-02 H/a0
step length    4.7802538E-01 a0      max. step      1.2306516E-01 a0

--------------------------------------------------------------------------------

***  Geometry step: 4

 iSCC Total electronic   Diff electronic      SCC error    
    1   -0.19489034E+03    0.00000000E+00    0.44638148E-01
    2   -0.19466537E+03    0.22497057E+00    0.25593693E-01
    3   -0.19466570E+03   -0.33504541E-03    0.22781918E-02
    4   -0.19466580E+03   -0.96125581E-04    0.57599815E-03
    5   -0.19466580E+03   -0.42751479E-05    0.18116095E-03
    6   -0.19466580E+03   -0.15643840E-06    0.77364523E-04
    7   -0.19466580E+03   -0.30020146E-08    0.58578767E-05
    8   -0.19466580E+03   -0.47626258E-09    0.13261295E-05
    9   -0.19466580E+03   -0.34390268E-10    0.32358215E-06
   10   -0.19466580E+03   -0.36948222E-12    0.37630761E-07
   11   -0.19466580E+03   -0.28421709E-13    0.12563571E-07
   12   -0.19466580E+03    0.00000000E+00    0.32682537E-08

Total Energy:                     -192.3047662598 H        -5232.8789 eV
Extrapolated to 0K:               -192.3047662598 H        -5232.8789 eV
Total Mermin free energy:         -192.3047662598 H        -5232.8789 eV
Force related energy:             -192.3047662598 H        -5232.8789 eV

Volume:                              0.962081E+04 au^3   0.142566E+04 A^3
Pressure:                            0.185956E-03 au     0.547100E+10 Pa
>> Charges saved for restart in charges.bin

total energy  -1.9230477E+02 H       energy change -4.5133347E-02 H
gradient norm  1.4841469E-01 H/a0    max. gradient  5.8096599E-02 H/a0
step length    4.3777466E-01 a0      max. step      9.3516985E-02 a0

--------------------------------------------------------------------------------

***  Geometry step: 5

 iSCC Total electronic   Diff electronic      SCC error    
    1   -0.19466580E+03    0.00000000E+00    0.27433080E-01
    2   -0.19447120E+03    0.19459990E+00    0.15678744E-01
    3   -0.19447160E+03   -0.40026091E-03    0.25713578E-02
    4   -0.19447170E+03   -0.90692827E-04    0.35766258E-03
    5   -0.19447170E+03   -0.30449836E-05    0.14296790E-03
    6   -0.19447170E+03   -0.13359880E-06    0.66252646E-04
    7   -0.19447170E+03   -0.18974049E-08    0.50981402E-05
    8   -0.19447170E+03   -0.39000270E-09    0.13647771E-05
    9   -0.19447170E+03   -0.21714186E-10    0.23215974E-06
   10   -0.19447170E+03   -0.31263880E-12    0.55331232E-07
   11   -0.19447170E+03   -0.28421709E-13    0.11883742E-07
   12   -0.19447170E+03   -0.85265128E-13    0.34826306E-08

Total Energy:                     -192.3281421363 H        -5233.5150 eV
Extrapolated to 0K:               -192.3281421363 H        -5233.5150 eV
Total Mermin free energy:         -192.3281421363 H        -5233.5150 eV
Force related energy:             -192.3281421363 H        -5233.5150 eV

Volume:                              0.971753E+04 au^3   0.143999E+04 A^3
Pressure:                            0.101215E-03 au     0.297786E+10 Pa
>> Charges saved for restart in charges.bin

total energy  -1.9232814E+02 H       energy change -2.3375876E-02 H
gradient norm  1.2547731E-01 H/a0    max. gradient  5.8671493E-02 H/a0
step length    3.9718769E-01 a0      max. step      9.2406138E-02 a0

--------------------------------------------------------------------------------

***  Geometry step: 6

 iSCC Total electronic   Diff electronic      SCC error    
    1   -0.19447170E+03    0.00000000E+00    0.27459237E-01
    2   -0.19435257E+03    0.11912590E+00    0.11841603E-01
    3   -0.19435308E+03   -0.50404899E-03    0.29697199E-02
    4   -0.19435319E+03   -0.11118018E-03    0.50364445E-03
    5   -0.19435319E+03   -0.10464104E-05    0.63792521E-04
    6   -0.19435319E+03   -0.10328515E-06    0.26861374E-04
    7   -0.19435319E+03   -0.23949269E-08    0.60840786E-05
    8   -0.19435319E+03   -0.24942892E-09    0.93052920E-06
    9   -0.19435319E+03   -0.91233687E-11    0.25729914E-06
   10   -0.19435319E+03   -0.45474735E-12    0.63241404E-07
   11   -0.19435319E+03   -0.28421709E-13    0.16042843E-07
   12   -0.19435319E+03    0.28421709E-13    0.12105681E-08

Total Energy:                     -192.3389040883 H        -5233.8079 eV
Extrapolated to 0K:               -192.3389040883 H        -5233.8079 eV
Total Mermin free energy:         -192.3389040883 H        -5233.8079 eV
Force related energy:             -192.3389040883 H        -5233.8079 eV

Volume:                              0.977049E+04 au^3   0.144784E+04 A^3
Pressure:                            0.479145E-04 au     0.140969E+10 Pa
>> Charges saved for restart in charges.bin

total energy  -1.9233890E+02 H       energy change -1.0761952E-02 H
gradient norm  1.2059395E-01 H/a0    max. gradient  7.2436938E-02 H/a0
step length    3.1663383E-01 a0      max. step      5.9226097E-02 a0

--------------------------------------------------------------------------------

***  Geometry step: 7

 iSCC Total electronic   Diff electronic      SCC error    
    1   -0.19435319E+03    0.00000000E+00    0.17057399E-01
    2   -0.19432382E+03    0.29365425E-01    0.70051674E-02
    3   -0.19432407E+03   -0.25093052E-03    0.14917423E-02
    4   -0.19432413E+03   -0.57273470E-04    0.29798466E-03
    5   -0.19432413E+03   -0.41183114E-06    0.44252197E-04
    6   -0.19432413E+03   -0.32202308E-07    0.21000732E-04
    7   -0.19432413E+03   -0.71523232E-09    0.58321193E-05
    8   -0.19432413E+03   -0.64972028E-10    0.46835012E-06
    9   -0.19432413E+03   -0.41495696E-11    0.14972842E-06
   10   -0.19432413E+03   -0.17053026E-12    0.20875186E-07
   11   -0.19432413E+03    0.28421709E-13    0.21069861E-08

Total Energy:                     -192.3467147681 H        -5234.0204 eV
Extrapolated to 0K:               -192.3467147681 H        -5234.0204 eV
Total Mermin free energy:         -192.3467147681 H        -5234.0204 eV
Force related energy:             -192.3467147681 H        -5234.0204 eV

Volume:                              0.978713E+04 au^3   0.145030E+04 A^3
Pressure:                            0.328038E-04 au     0.965120E+09 Pa
>> Charges saved for restart in charges.bin

total energy  -1.9234671E+02 H       energy change -7.8106798E-03 H
gradient norm  7.0888661E-02 H/a0    max. gradient  3.6888058E-02 H/a0
step length    1.6416259E-01 a0      max. step      3.4731378E-02 a0

--------------------------------------------------------------------------------

***  Geometry step: 8

 iSCC Total electronic   Diff electronic      SCC error    
    1   -0.19432413E+03    0.00000000E+00    0.18443401E-01
    2   -0.19434535E+03   -0.21220976E-01    0.11028201E-01
    3   -0.19434548E+03   -0.13086674E-03    0.18522775E-02
    4   -0.19434552E+03   -0.34668877E-04    0.22031738E-03
    5   -0.19434552E+03   -0.10108227E-05    0.91094110E-04
    6   -0.19434552E+03   -0.46667338E-07    0.27131235E-04
    7   -0.19434552E+03   -0.87143803E-09    0.41217248E-05
    8   -0.19434552E+03   -0.79523943E-10    0.94019360E-06
    9   -0.19434552E+03   -0.76170181E-11    0.25425446E-06
   10   -0.19434552E+03   -0.25579538E-12    0.18785983E-07
   11   -0.19434552E+03   -0.28421709E-13    0.36443932E-08

Total Energy:                     -192.3530129365 H        -5234.1918 eV
Extrapolated to 0K:               -192.3530129365 H        -5234.1918 eV
Total Mermin free energy:         -192.3530129365 H        -5234.1918 eV
Force related energy:             -192.3530129365 H        -5234.1918 eV

Volume:                              0.977446E+04 au^3   0.144843E+04 A^3
Pressure:                            0.378849E-04 au     0.111461E+10 Pa
>> Charges saved for restart in charges.bin

total energy  -1.9235301E+02 H       energy change -6.2981684E-03 H
gradient norm  5.5959942E-02 H/a0    max. gradient  2.5157770E-02 H/a0
step length    1.7203071E-01 a0      max. step      3.2140303E-02 a0

--------------------------------------------------------------------------------

***  Geometry step: 9

 iSCC Total electronic   Diff electronic      SCC error    
    1   -0.19434552E+03    0.00000000E+00    0.14042701E-01
    2   -0.19436812E+03   -0.22604546E-01    0.84686629E-02
    3   -0.19436820E+03   -0.75241440E-04    0.11686941E-02
    4   -0.19436822E+03   -0.19800966E-04    0.24156942E-03
    5   -0.19436822E+03   -0.94888179E-06    0.89171516E-04
    6   -0.19436822E+03   -0.48657199E-07    0.20079390E-04
    7   -0.19436822E+03   -0.12461214E-08    0.52664087E-05
    8   -0.19436822E+03   -0.48402171E-10    0.49110319E-06
    9   -0.19436822E+03   -0.58264504E-11    0.12211681E-06
   10   -0.19436822E+03   -0.17053026E-12    0.10762252E-07
   11   -0.19436822E+03   -0.56843419E-13    0.25537625E-08

Total Energy:                     -192.3568067788 H        -5234.2950 eV
Extrapolated to 0K:               -192.3568067788 H        -5234.2950 eV
Total Mermin free energy:         -192.3568067788 H        -5234.2950 eV
Force related energy:             -192.3568067788 H        -5234.2950 eV

Volume:                              0.976269E+04 au^3   0.144668E+04 A^3
Pressure:                            0.441842E-04 au     0.129994E+10 Pa
>> Charges saved for restart in charges.bin

total energy  -1.9235681E+02 H       energy change -3.7938423E-03 H
gradient norm  4.3343292E-02 H/a0    max. gradient  1.4441729E-02 H/a0
step length    1.7419451E-01 a0      max. step      3.1457645E-02 a0

--------------------------------------------------------------------------------

***  Geometry step: 10

 iSCC Total electronic   Diff electronic      SCC error    
    1   -0.19436822E+03    0.00000000E+00    0.69861076E-02
    2   -0.19437076E+03   -0.25378350E-02    0.31842201E-02
    3   -0.19437080E+03   -0.37462511E-04    0.85105193E-03
    4   -0.19437081E+03   -0.94129448E-05    0.11243087E-03
    5   -0.19437081E+03   -0.33318437E-06    0.27886224E-04
    6   -0.19437081E+03   -0.16627723E-07    0.98984480E-05
    7   -0.19437081E+03   -0.54242832E-09    0.27699091E-05
    8   -0.19437081E+03   -0.31405989E-10    0.21916711E-06
    9   -0.19437081E+03   -0.10800250E-11    0.52614675E-07
   10   -0.19437081E+03   -0.14210855E-12    0.14005529E-07
   11   -0.19437081E+03    0.14210855E-12    0.24070985E-08

Total Energy:                     -192.3591238276 H        -5234.3581 eV
Extrapolated to 0K:               -192.3591238276 H        -5234.3581 eV
Total Mermin free energy:         -192.3591238276 H        -5234.3581 eV
Force related energy:             -192.3591238276 H        -5234.3581 eV

Volume:                              0.976453E+04 au^3   0.144695E+04 A^3
Pressure:                            0.424882E-04 au     0.125005E+10 Pa
>> Charges saved for restart in charges.bin

total energy  -1.9235912E+02 H       energy change -2.3170488E-03 H
gradient norm  3.5907958E-02 H/a0    max. gradient  8.4270882E-03 H/a0
step length    1.3798882E-01 a0      max. step      2.6448091E-02 a0

--------------------------------------------------------------------------------

***  Geometry step: 11

 iSCC Total electronic   Diff electronic      SCC error    
    1   -0.19437081E+03    0.00000000E+00    0.63362910E-02
    2   -0.19436623E+03    0.45752211E-02    0.35281461E-02
    3   -0.19436628E+03   -0.52942527E-04    0.95473260E-03
    4   -0.19436630E+03   -0.12591004E-04    0.12301106E-03
    5   -0.19436630E+03   -0.33717188E-06    0.30909568E-04
    6   -0.19436630E+03   -0.22198265E-07    0.10098796E-04
    7   -0.19436630E+03   -0.65145400E-09    0.29887179E-05
    8   -0.19436630E+03   -0.36493475E-10    0.33842043E-06
    9   -0.19436630E+03   -0.17337243E-11    0.10256207E-06
   10   -0.19436630E+03   -0.17053026E-12    0.18235457E-07
   11   -0.19436630E+03    0.85265128E-13    0.22530644E-08

Total Energy:                     -192.3615395639 H        -5234.4238 eV
Extrapolated to 0K:               -192.3615395639 H        -5234.4238 eV
Total Mermin free energy:         -192.3615395639 H        -5234.4238 eV
Force related energy:             -192.3615395639 H        -5234.4238 eV

Volume:                              0.977431E+04 au^3   0.144840E+04 A^3
Pressure:                            0.378768E-04 au     0.111437E+10 Pa
>> Charges saved for restart in charges.bin

total energy  -1.9236154E+02 H       energy change -2.4157363E-03 H
gradient norm  3.8218565E-02 H/a0    max. gradient  1.5456106E-02 H/a0
step length    1.5642515E-01 a0      max. step      3.0630119E-02 a0

--------------------------------------------------------------------------------

***  Geometry step: 12

 iSCC Total electronic   Diff electronic      SCC error    
    1   -0.19436630E+03    0.00000000E+00    0.81865232E-02
    2   -0.19435047E+03    0.15828798E-01    0.46826733E-02
    3   -0.19435051E+03   -0.43585483E-04    0.10688005E-02
    4   -0.19435052E+03   -0.11300005E-04    0.11584861E-03
    5   -0.19435052E+03   -0.30397953E-06    0.37039700E-04
    6   -0.19435052E+03   -0.16907052E-07    0.13928327E-04
    7   -0.19435052E+03   -0.26440716E-09    0.24275729E-05
    8   -0.19435052E+03   -0.22424729E-10    0.39585260E-06
    9   -0.19435052E+03   -0.20179414E-11    0.11208170E-06
   10   -0.19435052E+03   -0.11368684E-12    0.12132422E-07
   11   -0.19435052E+03    0.11368684E-12    0.17676585E-08

Total Energy:                     -192.3636750827 H        -5234.4819 eV
Extrapolated to 0K:               -192.3636750827 H        -5234.4819 eV
Total Mermin free energy:         -192.3636750827 H        -5234.4819 eV
Force related energy:             -192.3636750827 H        -5234.4819 eV

Volume:                              0.979795E+04 au^3   0.145191E+04 A^3
Pressure:                            0.293461E-04 au     0.863390E+09 Pa
>> Charges saved for restart in charges.bin

total energy  -1.9236368E+02 H       energy change -2.1355188E-03 H
gradient norm  3.7370516E-02 H/a0    max. gradient  1.2489723E-02 H/a0
step length    1.6064352E-01 a0      max. step      3.3473005E-02 a0

--------------------------------------------------------------------------------

***  Geometry step: 13

 iSCC Total electronic   Diff electronic      SCC error    
    1   -0.19435052E+03    0.00000000E+00    0.53717508E-02
    2   -0.19433787E+03    0.12651478E-01    0.32974664E-02
    3   -0.19433789E+03   -0.21979403E-04    0.80391239E-03
    4   -0.19433790E+03   -0.52221635E-05    0.11228235E-03
    5   -0.19433790E+03   -0.20730792E-06    0.33385736E-04
    6   -0.19433790E+03   -0.87206615E-08    0.10548067E-04
    7   -0.19433790E+03   -0.17658408E-09    0.16711656E-05
    8   -0.19433790E+03   -0.12306600E-10    0.38158271E-06
    9   -0.19433790E+03   -0.16768809E-11    0.91310095E-07
   10   -0.19433790E+03   -0.85265128E-13    0.83474783E-08

Total Energy:                     -192.3652995301 H        -5234.5261 eV
Extrapolated to 0K:               -192.3652995301 H        -5234.5261 eV
Total Mermin free energy:         -192.3652995301 H        -5234.5261 eV
Force related energy:             -192.3652995301 H        -5234.5261 eV

Volume:                              0.982040E+04 au^3   0.145523E+04 A^3
Pressure:                            0.226798E-04 au     0.667264E+09 Pa
>> Charges saved for restart in charges.bin

total energy  -1.9236530E+02 H       energy change -1.6244474E-03 H
gradient norm  3.1387386E-02 H/a0    max. gradient  1.3733647E-02 H/a0
step length    1.4047068E-01 a0      max. step      3.0311689E-02 a0

--------------------------------------------------------------------------------

***  Geometry step: 14

 iSCC Total electronic   Diff electronic      SCC error    
    1   -0.19433790E+03    0.00000000E+00    0.46755287E-02
    2   -0.19432861E+03    0.92874942E-02    0.25529343E-02
    3   -0.19432864E+03   -0.24560394E-04    0.75010918E-03
    4   -0.19432864E+03   -0.51271788E-05    0.14019623E-03
    5   -0.19432864E+03   -0.15381920E-06    0.27140458E-04
    6   -0.19432864E+03   -0.12862898E-07    0.97574206E-05
    7   -0.19432864E+03   -0.36396841E-09    0.23659075E-05
    8   -0.19432864E+03   -0.19355184E-10    0.30105416E-06
    9   -0.19432864E+03   -0.10231815E-11    0.40328380E-07
   10   -0.19432864E+03    0.56843419E-13    0.85308329E-08

Total Energy:                     -192.3665525306 H        -5234.5602 eV
Extrapolated to 0K:               -192.3665525306 H        -5234.5602 eV
Total Mermin free energy:         -192.3665525306 H        -5234.5602 eV
Force related energy:             -192.3665525306 H        -5234.5602 eV

Volume:                              0.984374E+04 au^3   0.145869E+04 A^3
Pressure:                            0.168678E-04 au     0.496267E+09 Pa
>> Charges saved for restart in charges.bin

total energy  -1.9236655E+02 H       energy change -1.2530006E-03 H
gradient norm  2.3637652E-02 H/a0    max. gradient  4.1855094E-03 H/a0
step length    1.2336286E-01 a0      max. step      2.6447612E-02 a0

--------------------------------------------------------------------------------

***  Geometry step: 15

 iSCC Total electronic   Diff electronic      SCC error    
    1   -0.19432864E+03    0.00000000E+00    0.52872746E-02
    2   -0.19433093E+03   -0.22853321E-02    0.27656613E-02
    3   -0.19433095E+03   -0.28342516E-04    0.59462763E-03
    4   -0.19433096E+03   -0.62260803E-05    0.11480598E-03
    5   -0.19433096E+03   -0.12510463E-06    0.37625462E-04
    6   -0.19433096E+03   -0.11653583E-07    0.10821793E-04
    7   -0.19433096E+03   -0.44357762E-09    0.24455538E-05
    8   -0.19433096E+03   -0.17280399E-10    0.28587817E-06
    9   -0.19433096E+03   -0.11084467E-11    0.53405038E-07
   10   -0.19433096E+03   -0.56843419E-13    0.93558206E-08

Total Energy:                     -192.3675196855 H        -5234.5865 eV
Extrapolated to 0K:               -192.3675196855 H        -5234.5865 eV
Total Mermin free energy:         -192.3675196855 H        -5234.5865 eV
Force related energy:             -192.3675196855 H        -5234.5865 eV

Volume:                              0.985738E+04 au^3   0.146071E+04 A^3
Pressure:                            0.161900E-04 au     0.476326E+09 Pa
>> Charges saved for restart in charges.bin

total energy  -1.9236752E+02 H       energy change -9.6715486E-04 H
gradient norm  2.3140758E-02 H/a0    max. gradient  4.1474885E-03 H/a0
step length    1.0417635E-01 a0      max. step      2.1123878E-02 a0

--------------------------------------------------------------------------------

***  Geometry step: 16

 iSCC Total electronic   Diff electronic      SCC error    
    1   -0.19433096E+03    0.00000000E+00    0.71991303E-02
    2   -0.19433459E+03   -0.36313290E-02    0.41186558E-02
    3   -0.19433461E+03   -0.21542282E-04    0.91073275E-03
    4   -0.19433462E+03   -0.47804399E-05    0.10459499E-03
    5   -0.19433462E+03   -0.10718290E-06    0.44810064E-04
    6   -0.19433462E+03   -0.90959702E-08    0.96792262E-05
    7   -0.19433462E+03   -0.28850877E-09    0.19433384E-05
    8   -0.19433462E+03   -0.67927886E-11    0.33435237E-06
    9   -0.19433462E+03   -0.17621460E-11    0.61460901E-07
   10   -0.19433462E+03   -0.28421709E-13    0.57666654E-08

Total Energy:                     -192.3683777474 H        -5234.6099 eV
Extrapolated to 0K:               -192.3683777474 H        -5234.6099 eV
Total Mermin free energy:         -192.3683777474 H        -5234.6099 eV
Force related energy:             -192.3683777474 H        -5234.6099 eV

Volume:                              0.987049E+04 au^3   0.146266E+04 A^3
Pressure:                            0.160908E-04 au     0.473407E+09 Pa
>> Charges saved for restart in charges.bin

total energy  -1.9236838E+02 H       energy change -8.5806189E-04 H
gradient norm  2.4420579E-02 H/a0    max. gradient  6.0863163E-03 H/a0
step length    1.0489120E-01 a0      max. step      1.9622062E-02 a0

--------------------------------------------------------------------------------

***  Geometry step: 17

 iSCC Total electronic   Diff electronic      SCC error    
    1   -0.19433462E+03    0.00000000E+00    0.69871933E-02
    2   -0.19433792E+03   -0.33058769E-02    0.40055641E-02
    3   -0.19433794E+03   -0.14174182E-04    0.81004552E-03
    4   -0.19433794E+03   -0.32355094E-05    0.10942708E-03
    5   -0.19433794E+03   -0.88771998E-07    0.35913259E-04
    6   -0.19433794E+03   -0.71372597E-08    0.72756479E-05
    7   -0.19433794E+03   -0.18295054E-09    0.14376614E-05
    8   -0.19433794E+03   -0.63948846E-11    0.33484304E-06
    9   -0.19433794E+03   -0.13642421E-11    0.59545727E-07
   10   -0.19433794E+03   -0.28421709E-13    0.55257598E-08

Total Energy:                     -192.3692367288 H        -5234.6333 eV
Extrapolated to 0K:               -192.3692367288 H        -5234.6333 eV
Total Mermin free energy:         -192.3692367288 H        -5234.6333 eV
Force related energy:             -192.3692367288 H        -5234.6333 eV

Volume:                              0.988347E+04 au^3   0.146458E+04 A^3
Pressure:                            0.164603E-04 au     0.484278E+09 Pa
>> Charges saved for restart in charges.bin

total energy  -1.9236924E+02 H       energy change -8.5898140E-04 H
gradient norm  2.2802340E-02 H/a0    max. gradient  4.8249864E-03 H/a0
step length    1.1509072E-01 a0      max. step      1.9618538E-02 a0

--------------------------------------------------------------------------------

***  Geometry step: 18

 iSCC Total electronic   Diff electronic      SCC error    
    1   -0.19433794E+03    0.00000000E+00    0.41679204E-02
    2   -0.19433550E+03    0.24418583E-02    0.23821672E-02
    3   -0.19433551E+03   -0.13103673E-04    0.71093821E-03
    4   -0.19433552E+03   -0.27476157E-05    0.97911101E-04
    5   -0.19433552E+03   -0.68841047E-07    0.29687470E-04
    6   -0.19433552E+03   -0.63667756E-08    0.75597092E-05
    7   -0.19433552E+03   -0.11897328E-09    0.17073508E-05
    8   -0.19433552E+03   -0.40358827E-11    0.29708594E-06
    9   -0.19433552E+03   -0.88107299E-12    0.57625979E-07
   10   -0.19433552E+03    0.00000000E+00    0.48887996E-08

Total Energy:                     -192.3701285597 H        -5234.6575 eV
Extrapolated to 0K:               -192.3701285597 H        -5234.6575 eV
Total Mermin free energy:         -192.3701285597 H        -5234.6575 eV
Force related energy:             -192.3701285597 H        -5234.6575 eV

Volume:                              0.990228E+04 au^3   0.146737E+04 A^3
Pressure:                            0.146160E-04 au     0.430016E+09 Pa
>> Charges saved for restart in charges.bin

total energy  -1.9237013E+02 H       energy change -8.9183091E-04 H
gradient norm  2.0482165E-02 H/a0    max. gradient  4.5698377E-03 H/a0
step length    1.3601039E-01 a0      max. step      2.3018921E-02 a0

--------------------------------------------------------------------------------

***  Geometry step: 19

 iSCC Total electronic   Diff electronic      SCC error    
    1   -0.19433552E+03    0.00000000E+00    0.40862428E-02
    2   -0.19432924E+03    0.62741528E-02    0.19683108E-02
    3   -0.19432926E+03   -0.16663289E-04    0.57170082E-03
    4   -0.19432926E+03   -0.33463953E-05    0.82656866E-04
    5   -0.19432926E+03   -0.56066852E-07    0.10922673E-04
    6   -0.19432926E+03   -0.55843543E-08    0.43089595E-05
    7   -0.19432926E+03   -0.91034735E-10    0.15437818E-05
    8   -0.19432926E+03   -0.41779913E-11    0.22661972E-06
    9   -0.19432926E+03   -0.48316906E-12    0.54766080E-07
   10   -0.19432926E+03    0.28421709E-13    0.81435840E-08

Total Energy:                     -192.3708617966 H        -5234.6775 eV
Extrapolated to 0K:               -192.3708617966 H        -5234.6775 eV
Total Mermin free energy:         -192.3708617966 H        -5234.6775 eV
Force related energy:             -192.3708617966 H        -5234.6775 eV

Volume:                              0.992186E+04 au^3   0.147027E+04 A^3
Pressure:                            0.111604E-04 au     0.328350E+09 Pa
>> Charges saved for restart in charges.bin

total energy  -1.9237086E+02 H       energy change -7.3323690E-04 H
gradient norm  1.9098229E-02 H/a0    max. gradient  4.2484910E-03 H/a0
step length    1.2951723E-01 a0      max. step      2.1388202E-02 a0

--------------------------------------------------------------------------------

***  Geometry step: 20

 iSCC Total electronic   Diff electronic      SCC error    
    1   -0.19432926E+03    0.00000000E+00    0.46270502E-02
    2   -0.19432303E+03    0.62293823E-02    0.25825536E-02
    3   -0.19432305E+03   -0.13834494E-04    0.57589080E-03
    4   -0.19432305E+03   -0.32629565E-05    0.96624301E-04
    5   -0.19432305E+03   -0.59463673E-07    0.26872935E-04
    6   -0.19432305E+03   -0.40077168E-08    0.78966656E-05
    7   -0.19432305E+03   -0.10601298E-09    0.96461492E-06
    8   -0.19432305E+03   -0.46895821E-11    0.29355761E-06
    9   -0.19432305E+03   -0.71054274E-12    0.57738839E-07
   10   -0.19432305E+03   -0.28421709E-13    0.61793473E-08

Total Energy:                     -192.3714213525 H        -5234.6927 eV
Extrapolated to 0K:               -192.3714213525 H        -5234.6927 eV
Total Mermin free energy:         -192.3714213525 H        -5234.6927 eV
Force related energy:             -192.3714213525 H        -5234.6927 eV

Volume:                              0.993872E+04 au^3   0.147277E+04 A^3
Pressure:                            0.787785E-05 au     0.231774E+09 Pa
>> Charges saved for restart in charges.bin

total energy  -1.9237142E+02 H       energy change -5.5955590E-04 H
gradient norm  1.8055831E-02 H/a0    max. gradient  4.8062525E-03 H/a0
step length    1.0199772E-01 a0      max. step      1.8733993E-02 a0

--------------------------------------------------------------------------------

***  Geometry step: 21

 iSCC Total electronic   Diff electronic      SCC error    
    1   -0.19432305E+03    0.00000000E+00    0.59010742E-02
    2   -0.19431880E+03    0.42485775E-02    0.34419532E-02
    3   -0.19431881E+03   -0.10562397E-04    0.63433836E-03
    4   -0.19431881E+03   -0.26744433E-05    0.92930010E-04
    5   -0.19431881E+03   -0.65261020E-07    0.30349101E-04
    6   -0.19431881E+03   -0.36048959E-08    0.62692537E-05
    7   -0.19431881E+03   -0.98111741E-10    0.94226956E-06
    8   -0.19431881E+03   -0.37800874E-11    0.32722070E-06
    9   -0.19431881E+03   -0.73896445E-12    0.57241222E-07
   10   -0.19431881E+03   -0.56843419E-13    0.59949290E-08

Total Energy:                     -192.3719103942 H        -5234.7060 eV
Extrapolated to 0K:               -192.3719103942 H        -5234.7060 eV
Total Mermin free energy:         -192.3719103942 H        -5234.7060 eV
Force related energy:             -192.3719103942 H        -5234.7060 eV

Volume:                              0.995388E+04 au^3   0.147501E+04 A^3
Pressure:                            0.521183E-05 au     0.153337E+09 Pa
>> Charges saved for restart in charges.bin

total energy  -1.9237191E+02 H       energy change -4.8904166E-04 H
gradient norm  1.5881122E-02 H/a0    max. gradient  3.7311579E-03 H/a0
step length    9.3533204E-02 a0      max. step      1.8361608E-02 a0

--------------------------------------------------------------------------------

***  Geometry step: 22

 iSCC Total electronic   Diff electronic      SCC error    
    1   -0.19431881E+03    0.00000000E+00    0.39481322E-02
    2   -0.19431876E+03    0.52458036E-04    0.22959140E-02
    3   -0.19431877E+03   -0.63730447E-05    0.52925985E-03
    4   -0.19431877E+03   -0.15050178E-05    0.74592878E-04
    5   -0.19431877E+03   -0.40566221E-07    0.22700083E-04
    6   -0.19431877E+03   -0.21046844E-08    0.38487991E-05
    7   -0.19431877E+03   -0.60879302E-10    0.75956501E-06
    8   -0.19431877E+03   -0.19326762E-11    0.25424113E-06
    9   -0.19431877E+03   -0.48316906E-12    0.42729226E-07
   10   -0.19431877E+03   -0.56843419E-13    0.49282272E-08

Total Energy:                     -192.3722844595 H        -5234.7162 eV
Extrapolated to 0K:               -192.3722844595 H        -5234.7162 eV
Total Mermin free energy:         -192.3722844595 H        -5234.7162 eV
Force related energy:             -192.3722844595 H        -5234.7162 eV

Volume:                              0.996493E+04 au^3   0.147665E+04 A^3
Pressure:                            0.390756E-05 au     0.114964E+09 Pa
>> Charges saved for restart in charges.bin

total energy  -1.9237228E+02 H       energy change -3.7406531E-04 H
gradient norm  1.2978527E-02 H/a0    max. gradient  2.8281085E-03 H/a0
step length    7.6816654E-02 a0      max. step      1.7170447E-02 a0

--------------------------------------------------------------------------------

***  Geometry step: 23

 iSCC Total electronic   Diff electronic      SCC error    
    1   -0.19431877E+03    0.00000000E+00    0.28905893E-02
    2   -0.19432326E+03   -0.44884179E-02    0.13295778E-02
    3   -0.19432327E+03   -0.71376673E-05    0.43683842E-03
    4   -0.19432327E+03   -0.15906399E-05    0.63445751E-04
    5   -0.19432327E+03   -0.23838425E-07    0.10991041E-04
    6   -0.19432327E+03   -0.16763124E-08    0.32086039E-05
    7   -0.19432327E+03   -0.58150817E-10    0.80055292E-06
    8   -0.19432327E+03   -0.19326762E-11    0.18364911E-06
    9   -0.19432327E+03   -0.17053026E-12    0.27580900E-07
   10   -0.19432327E+03   -0.56843419E-13    0.44410626E-08

Total Energy:                     -192.3725635949 H        -5234.7238 eV
Extrapolated to 0K:               -192.3725635949 H        -5234.7238 eV
Total Mermin free energy:         -192.3725635949 H        -5234.7238 eV
Force related energy:             -192.3725635949 H        -5234.7238 eV

Volume:                              0.997189E+04 au^3   0.147768E+04 A^3
Pressure:                            0.427062E-05 au     0.125646E+09 Pa
>> Charges saved for restart in charges.bin

total energy  -1.9237256E+02 H       energy change -2.7913537E-04 H
gradient norm  1.1533603E-02 H/a0    max. gradient  2.4964360E-03 H/a0
step length    6.5197659E-02 a0      max. step      1.4973876E-02 a0

--------------------------------------------------------------------------------

***  Geometry step: 24

 iSCC Total electronic   Diff electronic      SCC error    
    1   -0.19432327E+03    0.00000000E+00    0.26415159E-02
    2   -0.19432851E+03   -0.52421282E-02    0.14077173E-02
    3   -0.19432851E+03   -0.56767436E-05    0.24528755E-03
    4   -0.19432852E+03   -0.13068812E-05    0.43268013E-04
    5   -0.19432852E+03   -0.17308480E-07    0.11924152E-04
    6   -0.19432852E+03   -0.10606698E-08    0.27319772E-05
    7   -0.19432852E+03   -0.21771029E-10    0.52812108E-06
    8   -0.19432852E+03   -0.79580786E-12    0.11149589E-06
    9   -0.19432852E+03   -0.85265128E-13    0.26938314E-07
   10   -0.19432852E+03   -0.56843419E-13    0.26464342E-08

Total Energy:                     -192.3727529886 H        -5234.7289 eV
Extrapolated to 0K:               -192.3727529886 H        -5234.7289 eV
Total Mermin free energy:         -192.3727529886 H        -5234.7289 eV
Force related energy:             -192.3727529886 H        -5234.7289 eV

Volume:                              0.997605E+04 au^3   0.147830E+04 A^3
Pressure:                            0.559805E-05 au     0.164700E+09 Pa
>> Charges saved for restart in charges.bin

total energy  -1.9237275E+02 H       energy change -1.8939374E-04 H
gradient norm  1.0734705E-02 H/a0    max. gradient  2.4391900E-03 H/a0
step length    4.7990678E-02 a0      max. step      9.0155688E-03 a0

--------------------------------------------------------------------------------

***  Geometry step: 25

 iSCC Total electronic   Diff electronic      SCC error    
    1   -0.19432852E+03    0.00000000E+00    0.25978422E-02
    2   -0.19433112E+03   -0.26067695E-02    0.15044835E-02
    3   -0.19433113E+03   -0.26352268E-05    0.24741359E-03
    4   -0.19433113E+03   -0.65565737E-06    0.29586067E-04
    5   -0.19433113E+03   -0.16489196E-07    0.14512050E-04
    6   -0.19433113E+03   -0.67814199E-09    0.16819534E-05
    7   -0.19433113E+03   -0.16115109E-10    0.31777194E-06
    8   -0.19433113E+03   -0.71054274E-12    0.10262966E-06
    9   -0.19433113E+03    0.00000000E+00    0.19422580E-07
   10   -0.19433113E+03    0.00000000E+00    0.27544731E-08

Total Energy:                     -192.3729122481 H        -5234.7333 eV
Extrapolated to 0K:               -192.3729122481 H        -5234.7333 eV
Total Mermin free energy:         -192.3729122481 H        -5234.7333 eV
Force related energy:             -192.3729122481 H        -5234.7333 eV

Volume:                              0.998113E+04 au^3   0.147905E+04 A^3
Pressure:                            0.622524E-05 au     0.183153E+09 Pa
>> Charges saved for restart in charges.bin

total energy  -1.9237291E+02 H       energy change -1.5925948E-04 H
gradient norm  1.0107811E-02 H/a0    max. gradient  1.9144351E-03 H/a0
step length    4.2818848E-02 a0      max. step      8.5531633E-03 a0

--------------------------------------------------------------------------------

***  Geometry step: 26

 iSCC Total electronic   Diff electronic      SCC error    
    1   -0.19433113E+03    0.00000000E+00    0.30583988E-02
    2   -0.19433165E+03   -0.51903560E-03    0.17533982E-02
    3   -0.19433165E+03   -0.29075303E-05    0.28167512E-03
    4   -0.19433165E+03   -0.73265412E-06    0.48266680E-04
    5   -0.19433165E+03   -0.29442589E-07    0.17391284E-04
    6   -0.19433165E+03   -0.10847714E-08    0.23561575E-05
    7   -0.19433165E+03   -0.19696245E-10    0.46019625E-06
    8   -0.19433165E+03   -0.99475983E-12    0.11763371E-06
    9   -0.19433165E+03   -0.17053026E-12    0.20908344E-07
   10   -0.19433165E+03    0.14210855E-12    0.32204701E-08

Total Energy:                     -192.3731258443 H        -5234.7391 eV
Extrapolated to 0K:               -192.3731258443 H        -5234.7391 eV
Total Mermin free energy:         -192.3731258443 H        -5234.7391 eV
Force related energy:             -192.3731258443 H        -5234.7391 eV

Volume:                              0.999098E+04 au^3   0.148051E+04 A^3
Pressure:                            0.576305E-05 au     0.169555E+09 Pa
>> Charges saved for restart in charges.bin

total energy  -1.9237313E+02 H       energy change -2.1359625E-04 H
gradient norm  1.1003205E-02 H/a0    max. gradient  2.3733288E-03 H/a0
step length    6.6359547E-02 a0      max. step      1.4108464E-02 a0

--------------------------------------------------------------------------------

***  Geometry step: 27

 iSCC Total electronic   Diff electronic      SCC error    
    1   -0.19433165E+03    0.00000000E+00    0.22280764E-02
    2   -0.19432984E+03    0.18082413E-02    0.13931810E-02
    3   -0.19432984E+03   -0.40684324E-05    0.37305543E-03
    4   -0.19432985E+03   -0.92518897E-06    0.36545091E-04
    5   -0.19432985E+03   -0.31681822E-07    0.15891185E-04
    6   -0.19432985E+03   -0.19265656E-08    0.32342181E-05
    7   -0.19432985E+03   -0.29302782E-10    0.71465212E-06
    8   -0.19432985E+03   -0.82422957E-12    0.11749656E-06
    9   -0.19432985E+03   -0.22737368E-12    0.37031463E-07
   10   -0.19432985E+03    0.85265128E-13    0.35324481E-08

Total Energy:                     -192.3733594801 H        -5234.7455 eV
Extrapolated to 0K:               -192.3733594801 H        -5234.7455 eV
Total Mermin free energy:         -192.3733594801 H        -5234.7455 eV
Force related energy:             -192.3733594801 H        -5234.7455 eV

Volume:                              0.100046E+05 au^3   0.148252E+04 A^3
Pressure:                            0.423528E-05 au     0.124606E+09 Pa
>> Charges saved for restart in charges.bin

total energy  -1.9237336E+02 H       energy change -2.3363579E-04 H
gradient norm  1.2824335E-02 H/a0    max. gradient  2.4776042E-03 H/a0
step length    8.5332417E-02 a0      max. step      1.8817249E-02 a0

--------------------------------------------------------------------------------

***  Geometry step: 28

 iSCC Total electronic   Diff electronic      SCC error    
    1   -0.19432985E+03    0.00000000E+00    0.24647667E-02
    2   -0.19432693E+03    0.29134568E-02    0.13229036E-02
    3   -0.19432694E+03   -0.42940093E-05    0.32911404E-03
    4   -0.19432694E+03   -0.91537626E-06    0.40907784E-04
    5   -0.19432694E+03   -0.22896245E-07    0.11982430E-04
    6   -0.19432694E+03   -0.12857981E-08    0.31632655E-05
    7   -0.19432694E+03   -0.18388846E-10    0.67538067E-06
    8   -0.19432694E+03   -0.48316906E-12    0.11878760E-06
    9   -0.19432694E+03   -0.11368684E-12    0.28117096E-07
   10   -0.19432694E+03   -0.11368684E-12    0.28112037E-08

Total Energy:                     -192.3735874982 H        -5234.7517 eV
Extrapolated to 0K:               -192.3735874982 H        -5234.7517 eV
Total Mermin free energy:         -192.3735874982 H        -5234.7517 eV
Force related energy:             -192.3735874982 H        -5234.7517 eV

Volume:                              0.100181E+05 au^3   0.148453E+04 A^3
Pressure:                            0.212802E-05 au     0.626085E+08 Pa
>> Charges saved for restart in charges.bin

total energy  -1.9237359E+02 H       energy change -2.2801811E-04 H
gradient norm  1.2948708E-02 H/a0    max. gradient  3.8163225E-03 H/a0
step length    8.4943938E-02 a0      max. step      1.8260189E-02 a0

--------------------------------------------------------------------------------

***  Geometry step: 29

 iSCC Total electronic   Diff electronic      SCC error    
    1   -0.19432694E+03    0.00000000E+00    0.27578108E-02
    2   -0.19432428E+03    0.26567892E-02    0.14972710E-02
    3   -0.19432429E+03   -0.55518272E-05    0.31183294E-03
    4   -0.19432429E+03   -0.11257850E-05    0.39652833E-04
    5   -0.19432429E+03   -0.17781673E-07    0.11201003E-04
    6   -0.19432429E+03   -0.14005366E-08    0.27401283E-05
    7   -0.19432429E+03   -0.24556357E-10    0.60882178E-06
    8   -0.19432429E+03   -0.88107299E-12    0.99080576E-07
    9   -0.19432429E+03   -0.28421709E-12    0.27276362E-07
   10   -0.19432429E+03    0.56843419E-13    0.27572611E-08

Total Energy:                     -192.3738119461 H        -5234.7578 eV
Extrapolated to 0K:               -192.3738119461 H        -5234.7578 eV
Total Mermin free energy:         -192.3738119461 H        -5234.7578 eV
Force related energy:             -192.3738119461 H        -5234.7578 eV

Volume:                              0.100302E+05 au^3   0.148632E+04 A^3
Pressure:                            0.207155E-06 au     0.609471E+07 Pa
>> Charges saved for restart in charges.bin

total energy  -1.9237381E+02 H       energy change -2.2444786E-04 H
gradient norm  1.1109494E-02 H/a0    max. gradient  1.7857425E-03 H/a0
step length    8.3829131E-02 a0      max. step      1.7959399E-02 a0

--------------------------------------------------------------------------------

***  Geometry step: 30

 iSCC Total electronic   Diff electronic      SCC error    
    1   -0.19432429E+03    0.00000000E+00    0.19506889E-02
    2   -0.19432407E+03    0.21514334E-03    0.11206151E-02
    3   -0.19432408E+03   -0.36934071E-05    0.32267676E-03
    4   -0.19432408E+03   -0.76852342E-06    0.39017944E-04
    5   -0.19432408E+03   -0.11961504E-07    0.95848643E-05
    6   -0.19432408E+03   -0.87010221E-09    0.18876819E-05
    7   -0.19432408E+03   -0.15575097E-10    0.41166669E-06
    8   -0.19432408E+03   -0.90949470E-12    0.85577808E-07
    9   -0.19432408E+03   -0.28421709E-13    0.20294528E-07
   10   -0.19432408E+03    0.00000000E+00    0.31375871E-08

Total Energy:                     -192.3740103809 H        -5234.7632 eV
Extrapolated to 0K:               -192.3740103809 H        -5234.7632 eV
Total Mermin free energy:         -192.3740103809 H        -5234.7632 eV
Force related energy:             -192.3740103809 H        -5234.7632 eV

Volume:                              0.100377E+05 au^3   0.148743E+04 A^3
Pressure:                           -0.728015E-06 au    -0.214189E+08 Pa
>> Charges saved for restart in charges.bin

total energy  -1.9237401E+02 H       energy change -1.9843480E-04 H
gradient norm  1.0309474E-02 H/a0    max. gradient  2.5718022E-03 H/a0
step length    7.3589574E-02 a0      max. step      1.6072060E-02 a0

--------------------------------------------------------------------------------

***  Geometry step: 31

 iSCC Total electronic   Diff electronic      SCC error    
    1   -0.19432408E+03    0.00000000E+00    0.22634441E-02
    2   -0.19432645E+03   -0.23773032E-02    0.10184074E-02
    3   -0.19432646E+03   -0.44748108E-05    0.28559533E-03
    4   -0.19432646E+03   -0.98177662E-06    0.48588819E-04
    5   -0.19432646E+03   -0.13942895E-07    0.11621506E-04
    6   -0.19432646E+03   -0.13263559E-08    0.26489933E-05
    7   -0.19432646E+03   -0.22566837E-10    0.53169087E-06
    8   -0.19432646E+03   -0.93791641E-12    0.10468624E-06
    9   -0.19432646E+03    0.00000000E+00    0.26338845E-07
   10   -0.19432646E+03   -0.85265128E-13    0.35885162E-08

Total Energy:                     -192.3742333585 H        -5234.7692 eV
Extrapolated to 0K:               -192.3742333585 H        -5234.7692 eV
Total Mermin free energy:         -192.3742333585 H        -5234.7692 eV
Force related energy:             -192.3742333585 H        -5234.7692 eV

Volume:                              0.100429E+05 au^3   0.148821E+04 A^3
Pressure:                           -0.783290E-06 au    -0.230452E+08 Pa
>> Charges saved for restart in charges.bin

total energy  -1.9237423E+02 H       energy change -2.2297763E-04 H
gradient norm  1.1683078E-02 H/a0    max. gradient  4.6982265E-03 H/a0
step length    8.8804900E-02 a0      max. step      1.9375926E-02 a0

--------------------------------------------------------------------------------

***  Geometry step: 32

 iSCC Total electronic   Diff electronic      SCC error    
    1   -0.19432646E+03    0.00000000E+00    0.14399653E-02
    2   -0.19433043E+03   -0.39740393E-02    0.74257797E-03
    3   -0.19433044E+03   -0.36900317E-05    0.24137106E-03
    4   -0.19433044E+03   -0.82924021E-06    0.40420614E-04
    5   -0.19433044E+03   -0.10568556E-07    0.57081938E-05
    6   -0.19433044E+03   -0.12260841E-08    0.16335703E-05
    7   -0.19433044E+03   -0.19468871E-10    0.45888539E-06
    8   -0.19433044E+03   -0.19895197E-12    0.85054608E-07
    9   -0.19433044E+03   -0.28421709E-13    0.24366303E-07
   10   -0.19433044E+03   -0.56843419E-13    0.40387005E-08

Total Energy:                     -192.3744524603 H        -5234.7752 eV
Extrapolated to 0K:               -192.3744524603 H        -5234.7752 eV
Total Mermin free energy:         -192.3744524603 H        -5234.7752 eV
Force related energy:             -192.3744524603 H        -5234.7752 eV

Volume:                              0.100452E+05 au^3   0.148855E+04 A^3
Pressure:                            0.988664E-07 au     0.290875E+07 Pa
>> Charges saved for restart in charges.bin

total energy  -1.9237445E+02 H       energy change -2.1910180E-04 H
gradient norm  1.2850607E-02 H/a0    max. gradient  5.3223972E-03 H/a0
step length    8.9649683E-02 a0      max. step      1.9303931E-02 a0

--------------------------------------------------------------------------------

***  Geometry step: 33

 iSCC Total electronic   Diff electronic      SCC error    
    1   -0.19433044E+03    0.00000000E+00    0.18651705E-02
    2   -0.19433509E+03   -0.46561421E-02    0.90581022E-03
    3   -0.19433510E+03   -0.47695448E-05    0.28247976E-03
    4   -0.19433510E+03   -0.10583459E-05    0.38033028E-04
    5   -0.19433510E+03   -0.14107940E-07    0.77009590E-05
    6   -0.19433510E+03   -0.13494059E-08    0.22840616E-05
    7   -0.19433510E+03   -0.20435209E-10    0.61123228E-06
    8   -0.19433510E+03   -0.36948222E-12    0.85181199E-07
    9   -0.19433510E+03   -0.11368684E-12    0.25421547E-07
   10   -0.19433510E+03    0.28421709E-13    0.35838337E-08

Total Energy:                     -192.3747111109 H        -5234.7822 eV
Extrapolated to 0K:               -192.3747111109 H        -5234.7822 eV
Total Mermin free energy:         -192.3747111109 H        -5234.7822 eV
Force related energy:             -192.3747111109 H        -5234.7822 eV

Volume:                              0.100463E+05 au^3   0.148871E+04 A^3
Pressure:                            0.150528E-05 au     0.442868E+08 Pa
>> Charges saved for restart in charges.bin

total energy  -1.9237471E+02 H       energy change -2.5865054E-04 H
gradient norm  1.2951784E-02 H/a0    max. gradient  4.2196167E-03 H/a0
step length    1.1242955E-01 a0      max. step      2.4166429E-02 a0

--------------------------------------------------------------------------------

***  Geometry step: 34

 iSCC Total electronic   Diff electronic      SCC error    
    1   -0.19433510E+03    0.00000000E+00    0.25249972E-02
    2   -0.19433805E+03   -0.29449780E-02    0.11474790E-02
    3   -0.19433805E+03   -0.40513781E-05    0.24175820E-03
    4   -0.19433805E+03   -0.86867954E-06    0.28605417E-04
    5   -0.19433805E+03   -0.13076885E-07    0.83068847E-05
    6   -0.19433805E+03   -0.96144959E-09    0.22740688E-05
    7   -0.19433805E+03   -0.10146550E-10    0.43635906E-06
    8   -0.19433805E+03   -0.31263880E-12    0.71963942E-07
    9   -0.19433805E+03   -0.85265128E-13    0.14530272E-07
   10   -0.19433805E+03    0.56843419E-13    0.12079937E-08

Total Energy:                     -192.3749594232 H        -5234.7890 eV
Extrapolated to 0K:               -192.3749594232 H        -5234.7890 eV
Total Mermin free energy:         -192.3749594232 H        -5234.7890 eV
Force related energy:             -192.3749594232 H        -5234.7890 eV

Volume:                              0.100474E+05 au^3   0.148887E+04 A^3
Pressure:                            0.246122E-05 au     0.724117E+08 Pa
>> Charges saved for restart in charges.bin

total energy  -1.9237496E+02 H       energy change -2.4831238E-04 H
gradient norm  1.1937241E-02 H/a0    max. gradient  2.6585758E-03 H/a0
step length    1.1343843E-01 a0      max. step      2.4194795E-02 a0

--------------------------------------------------------------------------------

***  Geometry step: 35

 iSCC Total electronic   Diff electronic      SCC error    
    1   -0.19433805E+03    0.00000000E+00    0.21128639E-02
    2   -0.19433908E+03   -0.10261264E-02    0.98488416E-03
    3   -0.19433908E+03   -0.41364338E-05    0.28017892E-03
    4   -0.19433908E+03   -0.87959813E-06    0.31159868E-04
    5   -0.19433908E+03   -0.16155951E-07    0.50621859E-05
    6   -0.19433908E+03   -0.12784085E-08    0.17333624E-05
    7   -0.19433908E+03   -0.17394086E-10    0.67584759E-06
    8   -0.19433908E+03   -0.45474735E-12    0.10843679E-06
    9   -0.19433908E+03   -0.56843419E-13    0.19395193E-07
   10   -0.19433908E+03    0.28421709E-13    0.36964525E-08

Total Energy:                     -192.3751993123 H        -5234.7955 eV
Extrapolated to 0K:               -192.3751993123 H        -5234.7955 eV
Total Mermin free energy:         -192.3751993123 H        -5234.7955 eV
Force related energy:             -192.3751993123 H        -5234.7955 eV

Volume:                              0.100487E+05 au^3   0.148907E+04 A^3
Pressure:                            0.284994E-05 au     0.838482E+08 Pa
>> Charges saved for restart in charges.bin

total energy  -1.9237520E+02 H       energy change -2.3988907E-04 H
gradient norm  1.1655569E-02 H/a0    max. gradient  2.2868155E-03 H/a0
step length    1.1371815E-01 a0      max. step      2.3833374E-02 a0

--------------------------------------------------------------------------------

***  Geometry step: 36

 iSCC Total electronic   Diff electronic      SCC error    
    1   -0.19433908E+03    0.00000000E+00    0.27200185E-02
    2   -0.19433850E+03    0.58093978E-03    0.12386077E-02
    3   -0.19433850E+03   -0.46045145E-05    0.28494961E-03
    4   -0.19433851E+03   -0.99502782E-06    0.38554871E-04
    5   -0.19433851E+03   -0.21581144E-07    0.88245763E-05
    6   -0.19433851E+03   -0.16204353E-08    0.25154047E-05
    7   -0.19433851E+03   -0.26147973E-10    0.65772491E-06
    8   -0.19433851E+03   -0.59685590E-12    0.13000841E-06
    9   -0.19433851E+03   -0.11368684E-12    0.27212239E-07
   10   -0.19433851E+03    0.56843419E-13    0.30497915E-08

Total Energy:                     -192.3754230797 H        -5234.8016 eV
Extrapolated to 0K:               -192.3754230797 H        -5234.8016 eV
Total Mermin free energy:         -192.3754230797 H        -5234.8016 eV
Force related energy:             -192.3754230797 H        -5234.8016 eV

Volume:                              0.100501E+05 au^3   0.148927E+04 A^3
Pressure:                            0.257428E-05 au     0.757379E+08 Pa
>> Charges saved for restart in charges.bin

total energy  -1.9237542E+02 H       energy change -2.2376743E-04 H
gradient norm  1.1652441E-02 H/a0    max. gradient  2.7493557E-03 H/a0
step length    1.0369152E-01 a0      max. step      2.1186366E-02 a0

--------------------------------------------------------------------------------

***  Geometry step: 37

 iSCC Total electronic   Diff electronic      SCC error    
    1   -0.19433851E+03    0.00000000E+00    0.29194756E-02
    2   -0.19433754E+03    0.96715851E-03    0.13224791E-02
    3   -0.19433754E+03   -0.49081975E-05    0.35488613E-03
    4   -0.19433754E+03   -0.11334716E-05    0.45342282E-04
    5   -0.19433754E+03   -0.23072573E-07    0.12431357E-04
    6   -0.19433754E+03   -0.18491164E-08    0.28726941E-05
    7   -0.19433754E+03   -0.36578740E-10    0.64864796E-06
    8   -0.19433754E+03   -0.68212103E-12    0.12941170E-06
    9   -0.19433754E+03   -0.28421709E-12    0.34292245E-07
   10   -0.19433754E+03    0.00000000E+00    0.32293901E-08

Total Energy:                     -192.3756181429 H        -5234.8069 eV
Extrapolated to 0K:               -192.3756181429 H        -5234.8069 eV
Total Mermin free energy:         -192.3756181429 H        -5234.8069 eV
Force related energy:             -192.3756181429 H        -5234.8069 eV

Volume:                              0.100518E+05 au^3   0.148952E+04 A^3
Pressure:                            0.218119E-05 au     0.641729E+08 Pa
>> Charges saved for restart in charges.bin

total energy  -1.9237562E+02 H       energy change -1.9506318E-04 H
gradient norm  1.0499704E-02 H/a0    max. gradient  3.1066429E-03 H/a0
step length    9.5209791E-02 a0      max. step      1.8508422E-02 a0

--------------------------------------------------------------------------------

***  Geometry step: 38

 iSCC Total electronic   Diff electronic      SCC error    
    1   -0.19433754E+03    0.00000000E+00    0.16760512E-02
    2   -0.19433718E+03    0.36761991E-03    0.94792927E-03
    3   -0.19433718E+03   -0.23331063E-05    0.25643366E-03
    4   -0.19433718E+03   -0.54069457E-06    0.34537008E-04
    5   -0.19433718E+03   -0.10904301E-07    0.99101038E-05
    6   -0.19433718E+03   -0.84824592E-09    0.18416666E-05
    7   -0.19433718E+03   -0.15887736E-10    0.35784609E-06
    8   -0.19433718E+03   -0.59685590E-12    0.63226586E-07
    9   -0.19433718E+03   -0.28421709E-13    0.15143415E-07
   10   -0.19433718E+03    0.00000000E+00    0.18393500E-08

Total Energy:                     -192.3757557083 H        -5234.8107 eV
Extrapolated to 0K:               -192.3757557083 H        -5234.8107 eV
Total Mermin free energy:         -192.3757557083 H        -5234.8107 eV
Force related energy:             -192.3757557083 H        -5234.8107 eV

Volume:                              0.100536E+05 au^3   0.148979E+04 A^3
Pressure:                            0.177428E-05 au     0.522012E+08 Pa
>> Charges saved for restart in charges.bin

total energy  -1.9237576E+02 H       energy change -1.3756542E-04 H
gradient norm  8.6526372E-03 H/a0    max. gradient  2.0139678E-03 H/a0
step length    6.8399365E-02 a0      max. step      1.3628688E-02 a0

--------------------------------------------------------------------------------

***  Geometry step: 39

 iSCC Total electronic   Diff electronic      SCC error    
    1   -0.19433718E+03    0.00000000E+00    0.22839035E-02
    2   -0.19433831E+03   -0.11275226E-02    0.92121106E-03
    3   -0.19433831E+03   -0.25455164E-05    0.20071870E-03
    4   -0.19433831E+03   -0.57348697E-06    0.34178684E-04
    5   -0.19433831E+03   -0.75932576E-08    0.70952270E-05
    6   -0.19433831E+03   -0.78955509E-09    0.17579944E-05
    7   -0.19433831E+03   -0.16569857E-10    0.42385359E-06
    8   -0.19433831E+03   -0.51159077E-12    0.83190107E-07
    9   -0.19433831E+03    0.00000000E+00    0.19109450E-07
   10   -0.19433831E+03    0.00000000E+00    0.26849460E-08

Total Energy:                     -192.3758823056 H        -5234.8141 eV
Extrapolated to 0K:               -192.3758823056 H        -5234.8141 eV
Total Mermin free energy:         -192.3758823056 H        -5234.8141 eV
Force related energy:             -192.3758823056 H        -5234.8141 eV

Volume:                              0.100556E+05 au^3   0.149009E+04 A^3
Pressure:                            0.166270E-05 au     0.489183E+08 Pa
>> Charges saved for restart in charges.bin

total energy  -1.9237588E+02 H       energy change -1.2659726E-04 H
gradient norm  8.2653844E-03 H/a0    max. gradient  1.5488770E-03 H/a0
step length    6.7575150E-02 a0      max. step      1.3883793E-02 a0

--------------------------------------------------------------------------------

***  Geometry step: 40

 iSCC Total electronic   Diff electronic      SCC error    
    1   -0.19433831E+03    0.00000000E+00    0.15936217E-02
    2   -0.19434063E+03   -0.23173385E-02    0.73862023E-03
    3   -0.19434063E+03   -0.22112493E-05    0.12657611E-03
    4   -0.19434063E+03   -0.44831771E-06    0.31967432E-04
    5   -0.19434063E+03   -0.60516641E-08    0.41126761E-05
    6   -0.19434063E+03   -0.40108716E-09    0.73632976E-06
    7   -0.19434063E+03   -0.20435209E-10    0.28688256E-06
    8   -0.19434063E+03   -0.34106051E-12    0.70425015E-07
    9   -0.19434063E+03    0.85265128E-13    0.11100532E-07
   10   -0.19434063E+03   -0.11368684E-12    0.30935006E-08

Total Energy:                     -192.3759917093 H        -5234.8171 eV
Extrapolated to 0K:               -192.3759917093 H        -5234.8171 eV
Total Mermin free energy:         -192.3759917093 H        -5234.8171 eV
Force related energy:             -192.3759917093 H        -5234.8171 eV

Volume:                              0.100578E+05 au^3   0.149041E+04 A^3
Pressure:                            0.194718E-05 au     0.572880E+08 Pa
>> Charges saved for restart in charges.bin

total energy  -1.9237599E+02 H       energy change -1.0940368E-04 H
gradient norm  8.8619397E-03 H/a0    max. gradient  2.6420082E-03 H/a0
step length    6.2665693E-02 a0      max. step      1.3292846E-02 a0

--------------------------------------------------------------------------------

***  Geometry step: 41

 iSCC Total electronic   Diff electronic      SCC error    
    1   -0.19434063E+03    0.00000000E+00    0.19333502E-02
    2   -0.19434394E+03   -0.33092001E-02    0.90442532E-03
    3   -0.19434394E+03   -0.27522365E-05    0.21291700E-03
    4   -0.19434394E+03   -0.60582613E-06    0.36672530E-04
    5   -0.19434394E+03   -0.86277794E-08    0.68454902E-05
    6   -0.19434394E+03   -0.56934368E-09    0.16498256E-05
    7   -0.19434394E+03   -0.25437430E-10    0.45171156E-06
    8   -0.19434394E+03   -0.42632564E-12    0.88861035E-07
    9   -0.19434394E+03    0.56843419E-13    0.19279911E-07
   10   -0.19434394E+03   -0.11368684E-12    0.28728255E-08

Total Energy:                     -192.3761051029 H        -5234.8202 eV
Extrapolated to 0K:               -192.3761051029 H        -5234.8202 eV
Total Mermin free energy:         -192.3761051029 H        -5234.8202 eV
Force related energy:             -192.3761051029 H        -5234.8202 eV

Volume:                              0.100604E+05 au^3   0.149080E+04 A^3
Pressure:                            0.267575E-05 au     0.787231E+08 Pa
>> Charges saved for restart in charges.bin

total energy  -1.9237611E+02 H       energy change -1.1339364E-04 H
gradient norm  8.5950747E-03 H/a0    max. gradient  2.0264085E-03 H/a0
step length    7.0923603E-02 a0      max. step      1.5238036E-02 a0

--------------------------------------------------------------------------------

***  Geometry step: 42

 iSCC Total electronic   Diff electronic      SCC error    
    1   -0.19434394E+03    0.00000000E+00    0.15681928E-02
    2   -0.19434541E+03   -0.14685843E-02    0.88772244E-03
    3   -0.19434541E+03   -0.17312683E-05    0.18614313E-03
    4   -0.19434541E+03   -0.38809259E-06    0.27446359E-04
    5   -0.19434541E+03   -0.63112964E-08    0.62356655E-05
    6   -0.19434541E+03   -0.44664716E-09    0.13590991E-05
    7   -0.19434541E+03   -0.10771828E-10    0.29435730E-06
    8   -0.19434541E+03   -0.31263880E-12    0.80413424E-07
    9   -0.19434541E+03    0.85265128E-13    0.21737830E-07
   10   -0.19434541E+03   -0.56843419E-13    0.20046578E-08

Total Energy:                     -192.3762003172 H        -5234.8228 eV
Extrapolated to 0K:               -192.3762003172 H        -5234.8228 eV
Total Mermin free energy:         -192.3762003172 H        -5234.8228 eV
Force related energy:             -192.3762003172 H        -5234.8228 eV

Volume:                              0.100655E+05 au^3   0.149155E+04 A^3
Pressure:                            0.264628E-05 au     0.778562E+08 Pa
>> Charges saved for restart in charges.bin

total energy  -1.9237620E+02 H       energy change -9.5214298E-05 H
gradient norm  7.7230481E-03 H/a0    max. gradient  1.6446456E-03 H/a0
step length    7.2707291E-02 a0      max. step      1.5047226E-02 a0

--------------------------------------------------------------------------------

***  Geometry step: 43

 iSCC Total electronic   Diff electronic      SCC error    
    1   -0.19434541E+03    0.00000000E+00    0.12665413E-02
    2   -0.19434613E+03   -0.71770333E-03    0.73450212E-03
    3   -0.19434613E+03   -0.11866568E-05    0.16741628E-03
    4   -0.19434613E+03   -0.27769474E-06    0.24055860E-04
    5   -0.19434613E+03   -0.51057043E-08    0.65270904E-05
    6   -0.19434613E+03   -0.46622972E-09    0.11504926E-05
    7   -0.19434613E+03   -0.75317530E-11    0.22192879E-06
    8   -0.19434613E+03   -0.17053026E-12    0.51667237E-07
    9   -0.19434613E+03   -0.56843419E-13    0.10062160E-07
   10   -0.19434613E+03    0.28421709E-13    0.11578161E-08

Total Energy:                     -192.3762908645 H        -5234.8252 eV
Extrapolated to 0K:               -192.3762908645 H        -5234.8252 eV
Total Mermin free energy:         -192.3762908645 H        -5234.8252 eV
Force related energy:             -192.3762908645 H        -5234.8252 eV

Volume:                              0.100702E+05 au^3   0.149225E+04 A^3
Pressure:                            0.253198E-05 au     0.744933E+08 Pa
>> Charges saved for restart in charges.bin

total energy  -1.9237629E+02 H       energy change -9.0547253E-05 H
gradient norm  7.1945097E-03 H/a0    max. gradient  2.0790059E-03 H/a0
step length    6.6165980E-02 a0      max. step      1.4575747E-02 a0

--------------------------------------------------------------------------------

***  Geometry step: 44

 iSCC Total electronic   Diff electronic      SCC error    
    1   -0.19434613E+03    0.00000000E+00    0.13453958E-02
    2   -0.19434531E+03    0.82670515E-03    0.58930929E-03
    3   -0.19434531E+03   -0.15040893E-05    0.17872493E-03
    4   -0.19434531E+03   -0.35344132E-06    0.27801380E-04
    5   -0.19434531E+03   -0.62519234E-08    0.54386226E-05
    6   -0.19434531E+03   -0.66381745E-09    0.10213947E-05
    7   -0.19434531E+03   -0.10118129E-10    0.23303669E-06
    8   -0.19434531E+03   -0.19895197E-12    0.54381291E-07
    9   -0.19434531E+03    0.00000000E+00    0.12979303E-07
   10   -0.19434531E+03    0.00000000E+00    0.18078037E-08

Total Energy:                     -192.3763906070 H        -5234.8279 eV
Extrapolated to 0K:               -192.3763906070 H        -5234.8279 eV
Total Mermin free energy:         -192.3763906070 H        -5234.8279 eV
Force related energy:             -192.3763906070 H        -5234.8279 eV

Volume:                              0.100760E+05 au^3   0.149311E+04 A^3
Pressure:                            0.185554E-05 au     0.545918E+08 Pa
>> Charges saved for restart in charges.bin

total energy  -1.9237639E+02 H       energy change -9.9742536E-05 H
gradient norm  8.1217262E-03 H/a0    max. gradient  2.0382502E-03 H/a0
step length    7.0682603E-02 a0      max. step      1.6449494E-02 a0

--------------------------------------------------------------------------------

***  Geometry step: 45

 iSCC Total electronic   Diff electronic      SCC error    
    1   -0.19434531E+03    0.00000000E+00    0.11354210E-02
    2   -0.19434388E+03    0.14308953E-02    0.54807265E-03
    3   -0.19434388E+03   -0.14951629E-05    0.19013861E-03
    4   -0.19434388E+03   -0.33705959E-06    0.22279816E-04
    5   -0.19434388E+03   -0.53784106E-08    0.27106569E-05
    6   -0.19434388E+03   -0.59955596E-09    0.69845001E-06
    7   -0.19434388E+03   -0.10061285E-10    0.26398515E-06
    8   -0.19434388E+03   -0.14210855E-12    0.52780362E-07
    9   -0.19434388E+03   -0.28421709E-13    0.10219406E-07
   10   -0.19434388E+03    0.85265128E-13    0.24312494E-08

Total Energy:                     -192.3764879676 H        -5234.8306 eV
Extrapolated to 0K:               -192.3764879676 H        -5234.8306 eV
Total Mermin free energy:         -192.3764879676 H        -5234.8306 eV
Force related energy:             -192.3764879676 H        -5234.8306 eV

Volume:                              0.100814E+05 au^3   0.149391E+04 A^3
Pressure:                            0.870966E-06 au     0.256247E+08 Pa
>> Charges saved for restart in charges.bin

total energy  -1.9237649E+02 H       energy change -9.7360629E-05 H
gradient norm  8.7178701E-03 H/a0    max. gradient  1.9075771E-03 H/a0
step length    6.7218769E-02 a0      max. step      1.6523005E-02 a0

--------------------------------------------------------------------------------

***  Geometry step: 46

 iSCC Total electronic   Diff electronic      SCC error    
    1   -0.19434388E+03    0.00000000E+00    0.11719119E-02
    2   -0.19434309E+03    0.78923506E-03    0.48405307E-03
    3   -0.19434309E+03   -0.14313098E-05    0.17131061E-03
    4   -0.19434309E+03   -0.32026199E-06    0.22989978E-04
    5   -0.19434309E+03   -0.46148045E-08    0.56666138E-05
    6   -0.19434309E+03   -0.40853365E-09    0.11752507E-05
    7   -0.19434309E+03   -0.87823082E-11    0.19563442E-06
    8   -0.19434309E+03   -0.17053026E-12    0.53604563E-07
    9   -0.19434309E+03    0.28421709E-13    0.20713384E-07
   10   -0.19434309E+03   -0.85265128E-13    0.19709452E-08

Total Energy:                     -192.3765799999 H        -5234.8331 eV
Extrapolated to 0K:               -192.3765799999 H        -5234.8331 eV
Total Mermin free energy:         -192.3765799999 H        -5234.8331 eV
Force related energy:             -192.3765799999 H        -5234.8331 eV

Volume:                              0.100856E+05 au^3   0.149453E+04 A^3
Pressure:                            0.127550E-06 au     0.375266E+07 Pa
>> Charges saved for restart in charges.bin

total energy  -1.9237658E+02 H       energy change -9.2032255E-05 H
gradient norm  7.4315499E-03 H/a0    max. gradient  1.4588334E-03 H/a0
step length    6.4515428E-02 a0      max. step      1.6715297E-02 a0

--------------------------------------------------------------------------------

***  Geometry step: 47

 iSCC Total electronic   Diff electronic      SCC error    
    1   -0.19434309E+03    0.00000000E+00    0.10675638E-02
    2   -0.19434362E+03   -0.53149824E-03    0.51683776E-03
    3   -0.19434362E+03   -0.12025992E-05    0.14783112E-03
    4   -0.19434362E+03   -0.28025789E-06    0.22266839E-04
    5   -0.19434362E+03   -0.31592151E-08    0.58246118E-05
    6   -0.19434362E+03   -0.22905056E-09    0.11112337E-05
    7   -0.19434362E+03   -0.65085715E-11    0.19639388E-06
    8   -0.19434362E+03   -0.11368684E-12    0.52184034E-07
    9   -0.19434362E+03   -0.56843419E-13    0.13542294E-07
   10   -0.19434362E+03    0.00000000E+00    0.14016486E-08

Total Energy:                     -192.3766550324 H        -5234.8351 eV
Extrapolated to 0K:               -192.3766550324 H        -5234.8351 eV
Total Mermin free energy:         -192.3766550324 H        -5234.8351 eV
Force related energy:             -192.3766550324 H        -5234.8351 eV

Volume:                              0.100880E+05 au^3   0.149488E+04 A^3
Pressure:                            0.666682E-08 au     0.196145E+06 Pa
>> Charges saved for restart in charges.bin

total energy  -1.9237666E+02 H       energy change -7.5032464E-05 H
gradient norm  6.1165413E-03 H/a0    max. gradient  1.2080256E-03 H/a0
step length    5.5350472E-02 a0      max. step      1.4504424E-02 a0

--------------------------------------------------------------------------------

***  Geometry step: 48

 iSCC Total electronic   Diff electronic      SCC error    
    1   -0.19434362E+03    0.00000000E+00    0.11880226E-02
    2   -0.19434480E+03   -0.11748249E-02    0.51931180E-03
    3   -0.19434480E+03   -0.10765460E-05    0.11797363E-03
    4   -0.19434480E+03   -0.25563898E-06    0.15549728E-04
    5   -0.19434480E+03   -0.24426186E-08    0.40021087E-05
    6   -0.19434480E+03   -0.16765966E-09    0.64973666E-06
    7   -0.19434480E+03   -0.19895197E-11    0.18141019E-06
    8   -0.19434480E+03   -0.85265128E-13    0.41433438E-07
    9   -0.19434480E+03   -0.11368684E-12    0.95219104E-08

Total Energy:                     -192.3767231562 H        -5234.8370 eV
Extrapolated to 0K:               -192.3767231562 H        -5234.8370 eV
Total Mermin free energy:         -192.3767231562 H        -5234.8370 eV
Force related energy:             -192.3767231562 H        -5234.8370 eV

Volume:                              0.100900E+05 au^3   0.149519E+04 A^3
Pressure:                            0.107588E-06 au     0.316534E+07 Pa
>> Charges saved for restart in charges.bin

total energy  -1.9237672E+02 H       energy change -6.8123892E-05 H
gradient norm  6.6138768E-03 H/a0    max. gradient  1.7764574E-03 H/a0
step length    5.7282743E-02 a0      max. step      1.4777965E-02 a0

--------------------------------------------------------------------------------

***  Geometry step: 49

 iSCC Total electronic   Diff electronic      SCC error    
    1   -0.19434480E+03    0.00000000E+00    0.11251101E-02
    2   -0.19434687E+03   -0.20721865E-02    0.49974786E-03
    3   -0.19434687E+03   -0.11379276E-05    0.12764894E-03
    4   -0.19434687E+03   -0.25602489E-06    0.15073302E-04
    5   -0.19434687E+03   -0.30938168E-08    0.35256634E-05
    6   -0.19434687E+03   -0.25173108E-09    0.76871142E-06
    7   -0.19434687E+03   -0.42348347E-11    0.17861264E-06
    8   -0.19434687E+03   -0.85265128E-13    0.50954386E-07
    9   -0.19434687E+03   -0.28421709E-13    0.97829638E-08

Total Energy:                     -192.3767976467 H        -5234.8390 eV
Extrapolated to 0K:               -192.3767976467 H        -5234.8390 eV
Total Mermin free energy:         -192.3767976467 H        -5234.8390 eV
Force related energy:             -192.3767976467 H        -5234.8390 eV

Volume:                              0.100918E+05 au^3   0.149545E+04 A^3
Pressure:                            0.383764E-06 au     0.112907E+08 Pa
>> Charges saved for restart in charges.bin

total energy  -1.9237680E+02 H       energy change -7.4490485E-05 H
gradient norm  7.6961557E-03 H/a0    max. gradient  2.1470004E-03 H/a0
step length    6.5401967E-02 a0      max. step      1.6196435E-02 a0

--------------------------------------------------------------------------------

***  Geometry step: 50

 iSCC Total electronic   Diff electronic      SCC error    
    1   -0.19434687E+03    0.00000000E+00    0.14633570E-02
    2   -0.19434993E+03   -0.30576031E-02    0.67357831E-03
    3   -0.19434993E+03   -0.16773846E-05    0.17267000E-03
    4   -0.19434993E+03   -0.35687589E-06    0.20255122E-04
    5   -0.19434993E+03   -0.58594765E-08    0.60347605E-05
    6   -0.19434993E+03   -0.47032245E-09    0.14764348E-05
    7   -0.19434993E+03   -0.77591267E-11    0.22032360E-06
    8   -0.19434993E+03   -0.34106051E-12    0.54159359E-07
    9   -0.19434993E+03    0.28421709E-13    0.14919863E-07
   10   -0.19434993E+03   -0.28421709E-13    0.15213395E-08

Total Energy:                     -192.3768861018 H        -5234.8414 eV
Extrapolated to 0K:               -192.3768861018 H        -5234.8414 eV
Total Mermin free energy:         -192.3768861018 H        -5234.8414 eV
Force related energy:             -192.3768861018 H        -5234.8414 eV

Volume:                              0.100934E+05 au^3   0.149568E+04 A^3
Pressure:                            0.127580E-05 au     0.375353E+08 Pa
>> Charges saved for restart in charges.bin

total energy  -1.9237689E+02 H       energy change -8.8455069E-05 H
gradient norm  7.8711088E-03 H/a0    max. gradient  1.7281489E-03 H/a0
step length    8.7560858E-02 a0      max. step      2.1490225E-02 a0

--------------------------------------------------------------------------------

***  Geometry step: 51

 iSCC Total electronic   Diff electronic      SCC error    
    1   -0.19434993E+03    0.00000000E+00    0.12730892E-02
    2   -0.19435085E+03   -0.91921237E-03    0.51464515E-03
    3   -0.19435085E+03   -0.11805350E-05    0.14835900E-03
    4   -0.19435085E+03   -0.24891537E-06    0.21301233E-04
    5   -0.19435085E+03   -0.43683883E-08    0.16568140E-05
    6   -0.19435085E+03   -0.32096636E-09    0.46573291E-06
    7   -0.19435085E+03   -0.28421709E-11    0.19716211E-06
    8   -0.19435085E+03    0.28421709E-13    0.29515411E-07
    9   -0.19435085E+03   -0.56843419E-13    0.62346417E-08

Total Energy:                     -192.3769680606 H        -5234.8436 eV
Extrapolated to 0K:               -192.3769680606 H        -5234.8436 eV
Total Mermin free energy:         -192.3769680606 H        -5234.8436 eV
Force related energy:             -192.3769680606 H        -5234.8436 eV

Volume:                              0.100964E+05 au^3   0.149614E+04 A^3
Pressure:                            0.140013E-05 au     0.411933E+08 Pa
>> Charges saved for restart in charges.bin

total energy  -1.9237697E+02 H       energy change -8.1958753E-05 H
gradient norm  7.3006220E-03 H/a0    max. gradient  1.6104385E-03 H/a0
step length    8.6834587E-02 a0      max. step      2.1326730E-02 a0

--------------------------------------------------------------------------------

***  Geometry step: 52

 iSCC Total electronic   Diff electronic      SCC error    
    1   -0.19435085E+03    0.00000000E+00    0.14102100E-02
    2   -0.19435050E+03    0.35678003E-03    0.55716726E-03
[...]
    8   -0.19434351E+03   -0.56843419E-13    0.45995057E-08

Total Energy:                     -192.3795026035 H        -5234.9126 eV
Extrapolated to 0K:               -192.3795026035 H        -5234.9126 eV
Total Mermin free energy:         -192.3795026035 H        -5234.9126 eV
Force related energy:             -192.3795026035 H        -5234.9126 eV

Volume:                              0.999255E+04 au^3   0.148074E+04 A^3
Pressure:                            0.219943E-06 au     0.647095E+07 Pa
>> Charges saved for restart in charges.bin

total energy  -1.9237950E+02 H       energy change -1.5057433E-06 H
gradient norm  8.2906589E-04 H/a0    max. gradient  1.7362492E-04 H/a0
step length    1.2058327E-02 a0      max. step      2.7328920E-03 a0

--------------------------------------------------------------------------------

***  Geometry step: 182

 iSCC Total electronic   Diff electronic      SCC error    
    1   -0.19434351E+03    0.00000000E+00    0.12811247E-03
    2   -0.19434325E+03    0.25692683E-03    0.58308382E-04
    3   -0.19434325E+03   -0.16939339E-07    0.22060786E-04
    4   -0.19434325E+03   -0.38774317E-08    0.29689142E-05
    5   -0.19434325E+03   -0.49254822E-10    0.23544356E-06
    6   -0.19434325E+03   -0.41779913E-11    0.57236335E-07
    7   -0.19434325E+03    0.56843419E-13    0.10134208E-07
    8   -0.19434325E+03    0.28421709E-13    0.26567109E-08

Total Energy:                     -192.3795035925 H        -5234.9126 eV
Extrapolated to 0K:               -192.3795035925 H        -5234.9126 eV
Total Mermin free energy:         -192.3795035925 H        -5234.9126 eV
Force related energy:             -192.3795035925 H        -5234.9126 eV

Volume:                              0.999277E+04 au^3   0.148078E+04 A^3
Pressure:                            0.115840E-06 au     0.340812E+07 Pa
>> Charges saved for restart in charges.bin

total energy  -1.9237950E+02 H       energy change -9.8906784E-07 H
gradient norm  7.5814181E-04 H/a0    max. gradient  1.5455910E-04 H/a0
step length    2.8848221E-03 a0      max. step      5.4969193E-04 a0

--------------------------------------------------------------------------------

***  Geometry step: 183

 iSCC Total electronic   Diff electronic      SCC error    
    1   -0.19434325E+03    0.00000000E+00    0.14280467E-03
    2   -0.19434300E+03    0.25106343E-03    0.90381933E-04
    3   -0.19434300E+03   -0.32319491E-07    0.31926383E-04
    4   -0.19434300E+03   -0.72060402E-08    0.33138834E-05
    5   -0.19434300E+03   -0.10419399E-09    0.41350027E-06
    6   -0.19434300E+03   -0.72475359E-11    0.89181059E-07
    7   -0.19434300E+03   -0.14210855E-12    0.14496681E-07
    8   -0.19434300E+03    0.85265128E-13    0.49151914E-08

Total Energy:                     -192.3795049635 H        -5234.9127 eV
Extrapolated to 0K:               -192.3795049635 H        -5234.9127 eV
Total Mermin free energy:         -192.3795049635 H        -5234.9127 eV
Force related energy:             -192.3795049635 H        -5234.9127 eV

Volume:                              0.999300E+04 au^3   0.148081E+04 A^3
Pressure:                            0.876989E-08 au     0.258019E+06 Pa
>> Charges saved for restart in charges.bin

total energy  -1.9237950E+02 H       energy change -1.3709499E-06 H
gradient norm  9.1347579E-04 H/a0    max. gradient  2.7019364E-04 H/a0
step length    1.1999885E-02 a0      max. step      2.8882278E-03 a0

--------------------------------------------------------------------------------

***  Geometry step: 184

 iSCC Total electronic   Diff electronic      SCC error    
    1   -0.19434300E+03    0.00000000E+00    0.15485235E-03
    2   -0.19434275E+03    0.24800499E-03    0.62985337E-04
    3   -0.19434275E+03   -0.14020259E-07    0.22167837E-04
    4   -0.19434275E+03   -0.27752947E-08    0.20438185E-05
    5   -0.19434275E+03   -0.41922021E-10    0.22886828E-06
    6   -0.19434275E+03   -0.34674486E-11    0.59008469E-07
    7   -0.19434275E+03    0.56843419E-13    0.86525938E-08

Total Energy:                     -192.3795059249 H        -5234.9127 eV
Extrapolated to 0K:               -192.3795059249 H        -5234.9127 eV
Total Mermin free energy:         -192.3795059249 H        -5234.9127 eV
Force related energy:             -192.3795059249 H        -5234.9127 eV

Volume:                              0.999305E+04 au^3   0.148082E+04 A^3
Pressure:                           -0.848500E-07 au    -0.249637E+07 Pa
>> Charges saved for restart in charges.bin

total energy  -1.9237951E+02 H       energy change -9.6136517E-07 H
gradient norm  9.0759837E-04 H/a0    max. gradient  3.5372094E-04 H/a0
step length    3.2868967E-03 a0      max. step      6.1395705E-04 a0

--------------------------------------------------------------------------------

***  Geometry step: 185

 iSCC Total electronic   Diff electronic      SCC error    
    1   -0.19434275E+03    0.00000000E+00    0.29087270E-03
    2   -0.19434250E+03    0.24895586E-03    0.11806589E-03
    3   -0.19434250E+03   -0.50953304E-07    0.38236770E-04
    4   -0.19434250E+03   -0.10128161E-07    0.48186979E-05
    5   -0.19434250E+03   -0.12241230E-09    0.44789690E-06
    6   -0.19434250E+03   -0.11254997E-10    0.13931583E-06
    7   -0.19434250E+03   -0.85265128E-13    0.28398395E-07
    8   -0.19434250E+03   -0.85265128E-13    0.56135061E-08

Total Energy:                     -192.3795076495 H        -5234.9128 eV
Extrapolated to 0K:               -192.3795076495 H        -5234.9128 eV
Total Mermin free energy:         -192.3795076495 H        -5234.9128 eV
Force related energy:             -192.3795076495 H        -5234.9128 eV

Volume:                              0.999283E+04 au^3   0.148078E+04 A^3
Pressure:                           -0.128872E-06 au    -0.379154E+07 Pa
>> Charges saved for restart in charges.bin

total energy  -1.9237951E+02 H       energy change -1.7246581E-06 H
gradient norm  9.8251143E-04 H/a0    max. gradient  2.8540510E-04 H/a0
step length    8.9146798E-03 a0      max. step      2.1286379E-03 a0

--------------------------------------------------------------------------------

***  Geometry step: 186

 iSCC Total electronic   Diff electronic      SCC error    
    1   -0.19434250E+03    0.00000000E+00    0.20200992E-03
    2   -0.19434249E+03    0.15334753E-04    0.83379213E-04
    3   -0.19434249E+03   -0.25337926E-07    0.20441829E-04
    4   -0.19434249E+03   -0.51129803E-08    0.25910338E-05
    5   -0.19434249E+03   -0.63579364E-10    0.36950232E-06
    6   -0.19434249E+03   -0.48601123E-11    0.88886126E-07
    7   -0.19434249E+03   -0.11368684E-12    0.17256354E-07
    8   -0.19434249E+03    0.00000000E+00    0.37667189E-08

Total Energy:                     -192.3795091063 H        -5234.9128 eV
Extrapolated to 0K:               -192.3795091063 H        -5234.9128 eV
Total Mermin free energy:         -192.3795091063 H        -5234.9128 eV
Force related energy:             -192.3795091063 H        -5234.9128 eV

Volume:                              0.999247E+04 au^3   0.148073E+04 A^3
Pressure:                           -0.178854E-06 au    -0.526206E+07 Pa
>> Charges saved for restart in charges.bin

total energy  -1.9237951E+02 H       energy change -1.4568083E-06 H
gradient norm  8.6864014E-04 H/a0    max. gradient  2.7010781E-04 H/a0
step length    1.1808068E-02 a0      max. step      2.5598655E-03 a0

--------------------------------------------------------------------------------

***  Geometry step: 187

 iSCC Total electronic   Diff electronic      SCC error    
    1   -0.19434249E+03    0.00000000E+00    0.20332985E-03
    2   -0.19434271E+03   -0.22570698E-03    0.11317224E-03
    3   -0.19434271E+03   -0.29658082E-07    0.32011629E-04
    4   -0.19434271E+03   -0.63687082E-08    0.23226497E-05
    5   -0.19434271E+03   -0.10723511E-09    0.36694584E-06
    6   -0.19434271E+03   -0.59117156E-11    0.84143609E-07
    7   -0.19434271E+03   -0.56843419E-13    0.13151074E-07
    8   -0.19434271E+03    0.00000000E+00    0.35492871E-08

Total Energy:                     -192.3795104106 H        -5234.9128 eV
Extrapolated to 0K:               -192.3795104106 H        -5234.9128 eV
Total Mermin free energy:         -192.3795104106 H        -5234.9128 eV
Force related energy:             -192.3795104106 H        -5234.9128 eV

Volume:                              0.999097E+04 au^3   0.148051E+04 A^3
Pressure:                           -0.409121E-07 au    -0.120367E+07 Pa
>> Charges saved for restart in charges.bin

total energy  -1.9237951E+02 H       energy change -1.3042755E-06 H
gradient norm  7.0025508E-04 H/a0    max. gradient  1.5879450E-04 H/a0
step length    2.3936798E-02 a0      max. step      6.7897228E-03 a0

--------------------------------------------------------------------------------

***  Geometry step: 188

 iSCC Total electronic   Diff electronic      SCC error    
    1   -0.19434271E+03    0.00000000E+00    0.13017443E-03
    2   -0.19434306E+03   -0.34395693E-03    0.53926995E-04
    3   -0.19434306E+03   -0.10853853E-07    0.11298994E-04
    4   -0.19434306E+03   -0.22406823E-08    0.16240056E-05
    5   -0.19434306E+03   -0.21202595E-10    0.18036292E-06
    6   -0.19434306E+03   -0.16484591E-11    0.49372745E-07
    7   -0.19434306E+03    0.00000000E+00    0.80560829E-08

Total Energy:                     -192.3795110351 H        -5234.9128 eV
Extrapolated to 0K:               -192.3795110351 H        -5234.9128 eV
Total Mermin free energy:         -192.3795110351 H        -5234.9128 eV
Force related energy:             -192.3795110351 H        -5234.9128 eV

Volume:                              0.999074E+04 au^3   0.148047E+04 A^3
Pressure:                            0.825664E-07 au     0.242919E+07 Pa
>> Charges saved for restart in charges.bin

total energy  -1.9237951E+02 H       energy change -6.2454484E-07 H
gradient norm  5.8012693E-04 H/a0    max. gradient  1.2029344E-04 H/a0
step length    1.9066038E-03 a0      max. step      3.8189187E-04 a0

--------------------------------------------------------------------------------

***  Geometry step: 189

 iSCC Total electronic   Diff electronic      SCC error    
    1   -0.19434306E+03    0.00000000E+00    0.19406986E-03
    2   -0.19434344E+03   -0.38584480E-03    0.82192844E-04
    3   -0.19434344E+03   -0.18486645E-07    0.17859567E-04
    4   -0.19434344E+03   -0.39969734E-08    0.22216194E-05
    5   -0.19434344E+03   -0.36834535E-10    0.32841638E-06
    6   -0.19434344E+03   -0.30979663E-11    0.77296436E-07
    7   -0.19434344E+03    0.28421709E-13    0.10223414E-07
    8   -0.19434344E+03    0.28421709E-13    0.25024778E-08

Total Energy:                     -192.3795117311 H        -5234.9129 eV
Extrapolated to 0K:               -192.3795117311 H        -5234.9129 eV
Total Mermin free energy:         -192.3795117311 H        -5234.9129 eV
Force related energy:             -192.3795117311 H        -5234.9129 eV

Volume:                              0.999044E+04 au^3   0.148043E+04 A^3
Pressure:                            0.219181E-06 au     0.644853E+07 Pa
>> Charges saved for restart in charges.bin

total energy  -1.9237951E+02 H       energy change -6.9598181E-07 H
gradient norm  5.5412079E-04 H/a0    max. gradient  1.2997862E-04 H/a0
step length    3.0395514E-03 a0      max. step      6.5210716E-04 a0

--------------------------------------------------------------------------------

***  Geometry step: 190

 iSCC Total electronic   Diff electronic      SCC error    
    1   -0.19434344E+03    0.00000000E+00    0.85858063E-04
    2   -0.19434360E+03   -0.15610147E-03    0.46221742E-04
    3   -0.19434360E+03   -0.63160996E-08    0.15941866E-04
    4   -0.19434360E+03   -0.13853594E-08    0.13595303E-05
    5   -0.19434360E+03   -0.20094149E-10    0.17609894E-06
    6   -0.19434360E+03   -0.15063506E-11    0.31460349E-07
    7   -0.19434360E+03    0.56843419E-13    0.53281575E-08

Total Energy:                     -192.3795122566 H        -5234.9129 eV
Extrapolated to 0K:               -192.3795122566 H        -5234.9129 eV
Total Mermin free energy:         -192.3795122566 H        -5234.9129 eV
Force related energy:             -192.3795122566 H        -5234.9129 eV

Volume:                              0.999024E+04 au^3   0.148040E+04 A^3
Pressure:                            0.302678E-06 au     0.890510E+07 Pa
>> Charges saved for restart in charges.bin

total energy  -1.9237951E+02 H       energy change -5.2548967E-07 H
gradient norm  6.0892943E-04 H/a0    max. gradient  1.6118634E-04 H/a0
step length    2.7504003E-03 a0      max. step      6.9887198E-04 a0

--------------------------------------------------------------------------------

***  Geometry step: 191

 iSCC Total electronic   Diff electronic      SCC error    
    1   -0.19434360E+03    0.00000000E+00    0.12108496E-03
    2   -0.19434358E+03    0.18394461E-04    0.78322210E-04
    3   -0.19434358E+03   -0.12923550E-07    0.25581691E-04
    4   -0.19434358E+03   -0.28673242E-08    0.21062696E-05
    5   -0.19434358E+03   -0.67615247E-10    0.27326815E-06
    6   -0.19434358E+03   -0.38369308E-11    0.68314381E-07
    7   -0.19434358E+03    0.00000000E+00    0.10754398E-07
    8   -0.19434358E+03   -0.56843419E-13    0.23341098E-08

Total Energy:                     -192.3795130272 H        -5234.9129 eV
Extrapolated to 0K:               -192.3795130272 H        -5234.9129 eV
Total Mermin free energy:         -192.3795130272 H        -5234.9129 eV
Force related energy:             -192.3795130272 H        -5234.9129 eV

Volume:                              0.999015E+04 au^3   0.148039E+04 A^3
Pressure:                            0.273236E-06 au     0.803889E+07 Pa
>> Charges saved for restart in charges.bin

total energy  -1.9237951E+02 H       energy change -7.7059559E-07 H
gradient norm  7.2051037E-04 H/a0    max. gradient  2.0780012E-04 H/a0
step length    4.6344115E-03 a0      max. step      1.2454942E-03 a0

--------------------------------------------------------------------------------

***  Geometry step: 192

 iSCC Total electronic   Diff electronic      SCC error    
    1   -0.19434358E+03    0.00000000E+00    0.11895060E-03
    2   -0.19434339E+03    0.18880166E-03    0.57258860E-04
    3   -0.19434339E+03   -0.10423520E-07    0.18168597E-04
    4   -0.19434339E+03   -0.21175310E-08    0.16042770E-05
    5   -0.19434339E+03   -0.54086513E-10    0.26435349E-06
    6   -0.19434339E+03   -0.29842795E-11    0.57707380E-07
    7   -0.19434339E+03    0.28421709E-13    0.67963386E-08

Total Energy:                     -192.3795137243 H        -5234.9129 eV
Extrapolated to 0K:               -192.3795137243 H        -5234.9129 eV
Total Mermin free energy:         -192.3795137243 H        -5234.9129 eV
Force related energy:             -192.3795137243 H        -5234.9129 eV

Volume:                              0.999000E+04 au^3   0.148037E+04 A^3
Pressure:                            0.253080E-06 au     0.744586E+07 Pa
>> Charges saved for restart in charges.bin

total energy  -1.9237951E+02 H       energy change -6.9711945E-07 H
gradient norm  6.2204222E-04 H/a0    max. gradient  1.8582068E-04 H/a0
step length    5.1442988E-03 a0      max. step      1.1286451E-03 a0

--------------------------------------------------------------------------------

***  Geometry step: 193

 iSCC Total electronic   Diff electronic      SCC error    
    1   -0.19434339E+03    0.00000000E+00    0.12415742E-03
    2   -0.19434305E+03    0.34142694E-03    0.67650140E-04
    3   -0.19434305E+03   -0.11760733E-07    0.22705649E-04
    4   -0.19434305E+03   -0.23693474E-08    0.15398667E-05
    5   -0.19434305E+03   -0.42575721E-10    0.25283041E-06
    6   -0.19434305E+03   -0.28137492E-11    0.51591184E-07
    7   -0.19434305E+03    0.00000000E+00    0.65963190E-08

Total Energy:                     -192.3795144818 H        -5234.9129 eV
Extrapolated to 0K:               -192.3795144818 H        -5234.9129 eV
Total Mermin free energy:         -192.3795144818 H        -5234.9129 eV
Force related energy:             -192.3795144818 H        -5234.9129 eV

Volume:                              0.999000E+04 au^3   0.148037E+04 A^3
Pressure:                            0.120949E-06 au     0.355843E+07 Pa
>> Charges saved for restart in charges.bin

total energy  -1.9237951E+02 H       energy change -7.5750336E-07 H
gradient norm  5.7405830E-04 H/a0    max. gradient  1.6758977E-04 H/a0
step length    8.6780423E-03 a0      max. step      1.7880747E-03 a0

--------------------------------------------------------------------------------

***  Geometry step: 194

 iSCC Total electronic   Diff electronic      SCC error    
    1   -0.19434305E+03    0.00000000E+00    0.10275314E-03
    2   -0.19434280E+03    0.24669440E-03    0.45098612E-04
    3   -0.19434280E+03   -0.66461041E-08    0.10364732E-04
    4   -0.19434280E+03   -0.15234320E-08    0.12454228E-05
    5   -0.19434280E+03   -0.15006663E-10    0.14076098E-06
    6   -0.19434280E+03   -0.11084467E-11    0.36945812E-07
    7   -0.19434280E+03   -0.56843419E-13    0.72190200E-08

Total Energy:                     -192.3795149567 H        -5234.9130 eV
Extrapolated to 0K:               -192.3795149567 H        -5234.9130 eV
Total Mermin free energy:         -192.3795149567 H        -5234.9130 eV
Force related energy:             -192.3795149567 H        -5234.9130 eV

Volume:                              0.999011E+04 au^3   0.148038E+04 A^3
Pressure:                            0.333952E-07 au     0.982520E+06 Pa
>> Charges saved for restart in charges.bin

total energy  -1.9237951E+02 H       energy change -4.7489863E-07 H
gradient norm  4.6689890E-04 H/a0    max. gradient  1.0859862E-04 H/a0
step length    1.7579646E-03 a0      max. step      4.4442553E-04 a0

--------------------------------------------------------------------------------

***  Geometry step: 195

 iSCC Total electronic   Diff electronic      SCC error    
    1   -0.19434280E+03    0.00000000E+00    0.10031056E-03
    2   -0.19434265E+03    0.15608661E-03    0.47838223E-04
    3   -0.19434265E+03   -0.10452482E-07    0.13839326E-04
    4   -0.19434265E+03   -0.23638904E-08    0.13404741E-05
    5   -0.19434265E+03   -0.23987923E-10    0.18238192E-06
    6   -0.19434265E+03   -0.17337243E-11    0.42745594E-07
    7   -0.19434265E+03    0.00000000E+00    0.70697026E-08

Total Energy:                     -192.3795154596 H        -5234.9130 eV
Extrapolated to 0K:               -192.3795154596 H        -5234.9130 eV
Total Mermin free energy:         -192.3795154596 H        -5234.9130 eV
Force related energy:             -192.3795154596 H        -5234.9130 eV

Volume:                              0.999017E+04 au^3   0.148039E+04 A^3
Pressure:                           -0.199185E-07 au    -0.586022E+06 Pa
>> Charges saved for restart in charges.bin

total energy  -1.9237952E+02 H       energy change -5.0287878E-07 H
gradient norm  4.2079806E-04 H/a0    max. gradient  9.2253738E-05 H/a0
step length    2.8415699E-03 a0      max. step      6.8289478E-04 a0

Geometry converged

--------------------------------------------------------------------------------
DFTB+ running times                          cpu [s]             wall clock [s]
--------------------------------------------------------------------------------
Pre-SCC initialisation                 +      17.60 (  1.0%)       2.56 (  1.2%)
SCC                                    +    1532.28 ( 88.1%)     193.78 ( 89.3%)
Post-SCC processing                    +     188.58 ( 10.8%)      20.68 (  9.5%)
--------------------------------------------------------------------------------
Missing                                +       0.06 (  0.0%)       0.01 (  0.0%)
Total                                  =    1738.52 (100.0%)     217.03 (100.0%)
--------------------------------------------------------------------------------
