|===============================================================================
|
|  DFTB+ release 24.1
|
|  Copyright (C) 2006 - 2024  DFTB+ developers group
|
|===============================================================================
|
|  When publishing results obtained with DFTB+, please cite the following
|  reference:
|
|  * DFTB+, a software package for efficient approximate density functional
|    theory based atomistic simulations, J. Chem. Phys. 152, 124101 (2020).
|    [doi: 10.1063/1.5143190]
|
|  You should also cite additional publications crediting the parametrization
|  data you use. Please consult the documentation of the SK-files for the
|  references.
|
|===============================================================================

Reading input file 'dftb_in.hsd'
Parser version: 14

--------------------------------------------------------------------------------
Reading SK-files:
./SKFiles/Ge-Ge.skf
./SKFiles/Ge-Si.skf
./SKFiles/Ge-O.skf
./SKFiles/Si-Si.skf
./SKFiles/Si-O.skf
./SKFiles/O-O.skf
Done.


Processed input in HSD format written to 'dftb_pin.hsd'

Starting initialization...
--------------------------------------------------------------------------------
WARNING!
-> Dipole printed for extended system : value printed is not well defined
MPI processes:               1
OpenMP threads:              8
BLACS orbital grid size:     1 x 1
BLACS atom grid size:        1 x 1
Chosen random seed:          140224846
Current stacksize:           unlimited
Mode:                        Static calculation
Self consistent charges:     Yes
SCC-tolerance:                 0.100000E-07
Max. scc iterations:                    500
Shell resolved Hubbard:      No
Spin polarisation:           No
Nr. of up electrons:           192.000000
Nr. of down electrons:         192.000000
Periodic boundaries:         Yes
Electronic solver:           Relatively robust
Mixer:                       Broyden mixer
Mixing parameter:                  0.200000
Maximal SCC-cycles:                     500
Nr. of chrg. vec. in memory:            500
Electronic temperature:              0.100000E-07 H      0.272114E-06 eV
Initial charges:             Set automatically (system chrg:   0.000E+00)
Included shells:            Ge:  s, p, d
                            Si:  s, p, d
                             O:  s, p
K-points and weights:           1:  0.500000  0.500000  0.500000     1.000000

K-points in absolute space:     1:  0.025319  0.017606  0.037774

Extra options:
                             Mulliken analysis
Force type                   original

--------------------------------------------------------------------------------

***  Geometry step: 0

 iSCC Total electronic   Diff electronic      SCC error    
    1    0.00000000E+00    0.00000000E+00    0.14598040E+01
    2   -0.19480596E+03   -0.19480596E+03    0.99398451E+00
    3   -0.19517185E+03   -0.36588870E+00    0.38265713E-01
    4   -0.19548764E+03   -0.31579664E+00    0.27442545E-01
    5   -0.19548954E+03   -0.18957080E-02    0.38064708E-02
    6   -0.19548968E+03   -0.13571995E-03    0.16948083E-02
    7   -0.19548968E+03   -0.29360561E-05    0.37466863E-03
    8   -0.19548968E+03   -0.10320036E-05    0.46692607E-04
    9   -0.19548968E+03   -0.50705665E-07    0.26346317E-04
   10   -0.19548968E+03   -0.71338491E-10    0.94190550E-06
   11   -0.19548968E+03   -0.14495072E-09    0.16917147E-06
   12   -0.19548968E+03   -0.16200374E-11    0.15640793E-06
   13   -0.19548968E+03    0.56843419E-13    0.16260767E-07
   14   -0.19548968E+03   -0.14210855E-12    0.22909274E-08

Total Energy:                     -191.8776876480 H        -5221.2575 eV
Extrapolated to 0K:               -191.8776876480 H        -5221.2575 eV
Total Mermin free energy:         -191.8776876480 H        -5221.2575 eV
Force related energy:             -191.8776876480 H        -5221.2575 eV

Volume:                              0.913789E+04 au^3   0.135410E+04 A^3
Pressure:                            0.717297E-03 au     0.211036E+11 Pa
>> Charges saved for restart in charges.bin

total energy  -1.9187769E+02 H       energy change -1.9187769E+02 H
gradient norm  8.6257798E-01 H/a0    max. gradient  4.4148640E-01 H/a0
step length    0.0000000E+00 a0      max. step      0.0000000E+00 a0

--------------------------------------------------------------------------------

***  Geometry step: 1

 iSCC Total electronic   Diff electronic      SCC error    
    1   -0.19548968E+03    0.00000000E+00    0.89177432E-01
    2   -0.19514896E+03    0.34071685E+00    0.44638013E-01
    3   -0.19515489E+03   -0.59287698E-02    0.14923876E-01
    4   -0.19515620E+03   -0.13084526E-02    0.11289787E-02
    5   -0.19515621E+03   -0.13623638E-04    0.29574718E-03
    6   -0.19515621E+03   -0.56418682E-06    0.11723435E-03
    7   -0.19515621E+03   -0.39014139E-07    0.13396464E-04
    8   -0.19515621E+03   -0.36221763E-08    0.20982764E-05
    9   -0.19515621E+03   -0.20031621E-09    0.65088465E-06
   10   -0.19515621E+03   -0.26716407E-11    0.22413673E-06
   11   -0.19515621E+03   -0.28421709E-13    0.26424806E-07
   12   -0.19515621E+03   -0.28421709E-13    0.68633788E-08

Total Energy:                     -192.0547651476 H        -5226.0761 eV
Extrapolated to 0K:               -192.0547651476 H        -5226.0761 eV
Total Mermin free energy:         -192.0547651476 H        -5226.0761 eV
Force related energy:             -192.0547651476 H        -5226.0761 eV

Volume:                              0.944681E+04 au^3   0.139987E+04 A^3
Pressure:                            0.470650E-03 au     0.138470E+11 Pa
>> Charges saved for restart in charges.bin

total energy  -1.9205477E+02 H       energy change -1.7707750E-01 H
gradient norm  5.4730904E-01 H/a0    max. gradient  1.5867366E-01 H/a0
step length    5.7619826E-01 a0      max. step      2.9491096E-01 a0

--------------------------------------------------------------------------------

***  Geometry step: 2

 iSCC Total electronic   Diff electronic      SCC error    
    1   -0.19515621E+03    0.00000000E+00    0.44308657E-01
    2   -0.19507184E+03    0.84374536E-01    0.21152395E-01
    3   -0.19507417E+03   -0.23323804E-02    0.57155625E-02
    4   -0.19507472E+03   -0.55054903E-03    0.83366811E-03
    5   -0.19507473E+03   -0.44803535E-05    0.17536362E-03
    6   -0.19507473E+03   -0.28243699E-06    0.10164067E-03
    7   -0.19507473E+03   -0.15376486E-07    0.17129553E-04
    8   -0.19507473E+03   -0.14686634E-08    0.10472454E-05
    9   -0.19507473E+03   -0.71707973E-10    0.28008671E-06
   10   -0.19507473E+03   -0.13642421E-11    0.73715495E-07
   11   -0.19507473E+03   -0.28421709E-13    0.15991430E-07
   12   -0.19507473E+03    0.85265128E-13    0.53652247E-08

Total Energy:                     -192.1811197095 H        -5229.5143 eV
Extrapolated to 0K:               -192.1811197095 H        -5229.5143 eV
Total Mermin free energy:         -192.1811197095 H        -5229.5143 eV
Force related energy:             -192.1811197095 H        -5229.5143 eV

Volume:                              0.945467E+04 au^3   0.140104E+04 A^3
Pressure:                            0.395912E-03 au     0.116481E+11 Pa
>> Charges saved for restart in charges.bin

total energy  -1.9218112E+02 H       energy change -1.2635456E-01 H
gradient norm  2.7855373E-01 H/a0    max. gradient  5.9705763E-02 H/a0
step length    3.9431509E-01 a0      max. step      8.4522156E-02 a0

--------------------------------------------------------------------------------

***  Geometry step: 3

 iSCC Total electronic   Diff electronic      SCC error    
    1   -0.19507473E+03    0.00000000E+00    0.42311709E-01
    2   -0.19485816E+03    0.21656532E+00    0.23558378E-01
    3   -0.19486001E+03   -0.18510073E-02    0.50836016E-02
    4   -0.19486052E+03   -0.51074837E-03    0.82824586E-03
    5   -0.19486053E+03   -0.52103087E-05    0.21798252E-03
    6   -0.19486053E+03   -0.36380354E-06    0.75645424E-04
    7   -0.19486053E+03   -0.22129996E-07    0.13837168E-04
    8   -0.19486053E+03   -0.10505801E-08    0.13788817E-05
    9   -0.19486053E+03   -0.32457592E-10    0.43748425E-06
   10   -0.19486053E+03   -0.11084467E-11    0.19368831E-06
   11   -0.19486053E+03    0.28421709E-13    0.19566252E-07
   12   -0.19486053E+03    0.00000000E+00    0.30857841E-08

Total Energy:                     -192.2612384876 H        -5231.6945 eV
Extrapolated to 0K:               -192.2612384876 H        -5231.6945 eV
Total Mermin free energy:         -192.2612384876 H        -5231.6945 eV
Force related energy:             -192.2612384876 H        -5231.6945 eV

Volume:                              0.955935E+04 au^3   0.141655E+04 A^3
Pressure:                            0.282320E-03 au     0.830613E+10 Pa
>> Charges saved for restart in charges.bin

total energy  -1.9226124E+02 H       energy change -8.0118778E-02 H
gradient norm  1.7825519E-01 H/a0    max. gradient  6.4785766E-02 H/a0
step length    4.7023417E-01 a0      max. step      1.1442474E-01 a0

--------------------------------------------------------------------------------

***  Geometry step: 4

 iSCC Total electronic   Diff electronic      SCC error    
    1   -0.19486053E+03    0.00000000E+00    0.29350875E-01
    2   -0.19464569E+03    0.21483497E+00    0.12813272E-01
    3   -0.19464621E+03   -0.51448046E-03    0.32334085E-02
    4   -0.19464634E+03   -0.13541614E-03    0.33574938E-03
    5   -0.19464635E+03   -0.32833389E-05    0.83500256E-04
    6   -0.19464635E+03   -0.15042539E-06    0.43768693E-04
    7   -0.19464635E+03   -0.23529765E-08    0.42934401E-05
    8   -0.19464635E+03   -0.31604941E-09    0.89000734E-06
    9   -0.19464635E+03   -0.13130830E-10    0.27933120E-06
   10   -0.19464635E+03   -0.42632564E-12    0.77119743E-07
   11   -0.19464635E+03   -0.11368684E-12    0.14923312E-07
   12   -0.19464635E+03    0.85265128E-13    0.22024098E-08

Total Energy:                     -192.3020654917 H        -5232.8054 eV
Extrapolated to 0K:               -192.3020654917 H        -5232.8054 eV
Total Mermin free energy:         -192.3020654917 H        -5232.8054 eV
Force related energy:             -192.3020654917 H        -5232.8054 eV

Volume:                              0.966459E+04 au^3   0.143214E+04 A^3
Pressure:                            0.180893E-03 au     0.532205E+10 Pa
>> Charges saved for restart in charges.bin

total energy  -1.9230207E+02 H       energy change -4.0827004E-02 H
gradient norm  1.6119893E-01 H/a0    max. gradient  6.9472457E-02 H/a0
step length    4.3002612E-01 a0      max. step      1.0269825E-01 a0

--------------------------------------------------------------------------------

***  Geometry step: 5

 iSCC Total electronic   Diff electronic      SCC error    
    1   -0.19464635E+03    0.00000000E+00    0.21262762E-01
    2   -0.19446494E+03    0.18140566E+00    0.95129310E-02
    3   -0.19446529E+03   -0.35055016E-03    0.28480238E-02
    4   -0.19446537E+03   -0.75631635E-04    0.37406789E-03
    5   -0.19446537E+03   -0.25189717E-05    0.86559609E-04
    6   -0.19446537E+03   -0.10972255E-06    0.42621685E-04
    7   -0.19446537E+03   -0.14281341E-08    0.47210408E-05
    8   -0.19446537E+03   -0.20679636E-09    0.10169295E-05
    9   -0.19446537E+03   -0.11965540E-10    0.18390168E-06
   10   -0.19446537E+03   -0.22737368E-12    0.46680159E-07
   11   -0.19446537E+03    0.28421709E-13    0.76379894E-08

Total Energy:                     -192.3249327822 H        -5233.4277 eV
Extrapolated to 0K:               -192.3249327822 H        -5233.4277 eV
Total Mermin free energy:         -192.3249327822 H        -5233.4277 eV
Force related energy:             -192.3249327822 H        -5233.4277 eV

Volume:                              0.975767E+04 au^3   0.144594E+04 A^3
Pressure:                            0.998428E-04 au     0.293748E+10 Pa
>> Charges saved for restart in charges.bin

total energy  -1.9232493E+02 H       energy change -2.2867291E-02 H
gradient norm  1.0113145E-01 H/a0    max. gradient  3.2820903E-02 H/a0
step length    3.6852946E-01 a0      max. step      9.2939503E-02 a0

--------------------------------------------------------------------------------

***  Geometry step: 6

 iSCC Total electronic   Diff electronic      SCC error    
    1   -0.19446537E+03    0.00000000E+00    0.18365201E-01
    2   -0.19437782E+03    0.87553175E-01    0.77759131E-02
    3   -0.19437809E+03   -0.27549773E-03    0.17187223E-02
    4   -0.19437815E+03   -0.60784671E-04    0.36522859E-03
    5   -0.19437815E+03   -0.39442273E-06    0.51128554E-04
    6   -0.19437815E+03   -0.34810824E-07    0.14694389E-04
    7   -0.19437815E+03   -0.12512658E-08    0.30902943E-05
    8   -0.19437815E+03   -0.10564349E-09    0.73168575E-06
    9   -0.19437815E+03   -0.29274361E-11    0.84860099E-07
   10   -0.19437815E+03   -0.14210855E-12    0.26475450E-07
   11   -0.19437815E+03    0.00000000E+00    0.57986913E-08

Total Energy:                     -192.3353715223 H        -5233.7117 eV
Extrapolated to 0K:               -192.3353715223 H        -5233.7117 eV
Total Mermin free energy:         -192.3353715223 H        -5233.7117 eV
Force related energy:             -192.3353715223 H        -5233.7117 eV

Volume:                              0.980011E+04 au^3   0.145223E+04 A^3
Pressure:                            0.586920E-04 au     0.172678E+10 Pa
>> Charges saved for restart in charges.bin

total energy  -1.9233537E+02 H       energy change -1.0438740E-02 H
gradient norm  9.9401610E-02 H/a0    max. gradient  4.6330093E-02 H/a0
step length    2.5422273E-01 a0      max. step      5.0764843E-02 a0

--------------------------------------------------------------------------------

***  Geometry step: 7

 iSCC Total electronic   Diff electronic      SCC error    
    1   -0.19437815E+03    0.00000000E+00    0.18193316E-01
    2   -0.19432164E+03    0.56515677E-01    0.81026921E-02
    3   -0.19432201E+03   -0.37071396E-03    0.23405481E-02
    4   -0.19432210E+03   -0.89727048E-04    0.35982155E-03
    5   -0.19432210E+03   -0.60579362E-06    0.41514632E-04
    6   -0.19432210E+03   -0.48232124E-07    0.14541787E-04
    7   -0.19432210E+03   -0.16504487E-08    0.53651143E-05
    8   -0.19432210E+03   -0.11382895E-09    0.73135469E-06
    9   -0.19432210E+03   -0.43200998E-11    0.14001086E-06
   10   -0.19432210E+03   -0.22737368E-12    0.19037584E-07
   11   -0.19432210E+03    0.00000000E+00    0.31778269E-08

Total Energy:                     -192.3445219314 H        -5233.9607 eV
Extrapolated to 0K:               -192.3445219314 H        -5233.9607 eV
Total Mermin free energy:         -192.3445219314 H        -5233.9607 eV
Force related energy:             -192.3445219314 H        -5233.9607 eV

Volume:                              0.982892E+04 au^3   0.145650E+04 A^3
Pressure:                            0.316224E-04 au     0.930361E+09 Pa
>> Charges saved for restart in charges.bin

total energy  -1.9234452E+02 H       energy change -9.1504090E-03 H
gradient norm  8.6037165E-02 H/a0    max. gradient  4.5076456E-02 H/a0
step length    2.7160009E-01 a0      max. step      5.7344498E-02 a0

--------------------------------------------------------------------------------

***  Geometry step: 8

 iSCC Total electronic   Diff electronic      SCC error    
    1   -0.19432210E+03    0.00000000E+00    0.94261543E-02
    2   -0.19434172E+03   -0.19616286E-01    0.58084213E-02
    3   -0.19434182E+03   -0.99894263E-04    0.15646081E-02
    4   -0.19434184E+03   -0.26188698E-04    0.17656447E-03
    5   -0.19434184E+03   -0.70148346E-06    0.45016967E-04
    6   -0.19434184E+03   -0.50034799E-07    0.12112527E-04
    7   -0.19434184E+03   -0.18069102E-08    0.42316663E-05
    8   -0.19434184E+03   -0.90835783E-10    0.39064092E-06
    9   -0.19434184E+03   -0.47180038E-11    0.72187136E-07
   10   -0.19434184E+03   -0.19895197E-12    0.12779301E-07
   11   -0.19434184E+03    0.56843419E-13    0.25978544E-08

Total Energy:                     -192.3502805892 H        -5234.1174 eV
Extrapolated to 0K:               -192.3502805892 H        -5234.1174 eV
Total Mermin free energy:         -192.3502805892 H        -5234.1174 eV
Force related energy:             -192.3502805892 H        -5234.1174 eV

Volume:                              0.981494E+04 au^3   0.145442E+04 A^3
Pressure:                            0.370747E-04 au     0.109077E+10 Pa
>> Charges saved for restart in charges.bin

total energy  -1.9235028E+02 H       energy change -5.7586579E-03 H
gradient norm  5.6215106E-02 H/a0    max. gradient  2.0498646E-02 H/a0
step length    1.5884458E-01 a0      max. step      2.6762841E-02 a0

--------------------------------------------------------------------------------

***  Geometry step: 9

 iSCC Total electronic   Diff electronic      SCC error    
    1   -0.19434184E+03    0.00000000E+00    0.93824338E-02
    2   -0.19436407E+03   -0.22225363E-01    0.58156937E-02
    3   -0.19436416E+03   -0.87408082E-04    0.15106155E-02
    4   -0.19436418E+03   -0.21391514E-04    0.15704241E-03
    5   -0.19436418E+03   -0.77028483E-06    0.47153961E-04
    6   -0.19436418E+03   -0.51799987E-07    0.86097282E-05
    7   -0.19436418E+03   -0.22095890E-08    0.25862944E-05
    8   -0.19436418E+03   -0.86913587E-10    0.41307525E-06
    9   -0.19436418E+03   -0.50306426E-11    0.53766705E-07
   10   -0.19436418E+03    0.56843419E-13    0.20539813E-07
   11   -0.19436418E+03   -0.11368684E-12    0.31947058E-08

Total Energy:                     -192.3547034676 H        -5234.2378 eV
Extrapolated to 0K:               -192.3547034676 H        -5234.2378 eV
Total Mermin free energy:         -192.3547034676 H        -5234.2378 eV
Force related energy:             -192.3547034676 H        -5234.2378 eV

Volume:                              0.980154E+04 au^3   0.145244E+04 A^3
Pressure:                            0.432812E-04 au     0.127338E+10 Pa
>> Charges saved for restart in charges.bin

total energy  -1.9235470E+02 H       energy change -4.4228783E-03 H
gradient norm  3.9934617E-02 H/a0    max. gradient  7.2018838E-03 H/a0
step length    1.8044092E-01 a0      max. step      2.7897245E-02 a0

--------------------------------------------------------------------------------

***  Geometry step: 10

 iSCC Total electronic   Diff electronic      SCC error    
    1   -0.19436418E+03    0.00000000E+00    0.61307608E-02
    2   -0.19436672E+03   -0.25395619E-02    0.30721229E-02
    3   -0.19436676E+03   -0.42895603E-04    0.94045965E-03
    4   -0.19436677E+03   -0.98327752E-05    0.12061172E-03
    5   -0.19436677E+03   -0.25538296E-06    0.27621897E-04
    6   -0.19436677E+03   -0.18421304E-07    0.53121466E-05
    7   -0.19436677E+03   -0.74041395E-09    0.18779679E-05
    8   -0.19436677E+03   -0.26545877E-10    0.20253244E-06
    9   -0.19436677E+03   -0.17905677E-11    0.49279617E-07
   10   -0.19436677E+03    0.00000000E+00    0.95646318E-08

Total Energy:                     -192.3571676148 H        -5234.3048 eV
Extrapolated to 0K:               -192.3571676148 H        -5234.3048 eV
Total Mermin free energy:         -192.3571676148 H        -5234.3048 eV
Force related energy:             -192.3571676148 H        -5234.3048 eV

Volume:                              0.980358E+04 au^3   0.145274E+04 A^3
Pressure:                            0.410642E-04 au     0.120815E+10 Pa
>> Charges saved for restart in charges.bin

total energy  -1.9235717E+02 H       energy change -2.4641472E-03 H
gradient norm  3.7009110E-02 H/a0    max. gradient  8.5821682E-03 H/a0
step length    1.4345883E-01 a0      max. step      2.5026335E-02 a0

--------------------------------------------------------------------------------

***  Geometry step: 11

 iSCC Total electronic   Diff electronic      SCC error    
    1   -0.19436677E+03    0.00000000E+00    0.68888286E-02
    2   -0.19436305E+03    0.37182378E-02    0.33232964E-02
    3   -0.19436309E+03   -0.39789625E-04    0.76991931E-03
    4   -0.19436310E+03   -0.94914846E-05    0.10056764E-03
    5   -0.19436310E+03   -0.20302099E-06    0.32609606E-04
    6   -0.19436310E+03   -0.14584515E-07    0.94889575E-05
    7   -0.19436310E+03   -0.39761971E-09    0.22915013E-05
    8   -0.19436310E+03   -0.20037305E-10    0.36977525E-06
    9   -0.19436310E+03   -0.19326762E-11    0.10446227E-06
   10   -0.19436310E+03   -0.11368684E-12    0.86768175E-08

Total Energy:                     -192.3593180848 H        -5234.3634 eV
Extrapolated to 0K:               -192.3593180848 H        -5234.3634 eV
Total Mermin free energy:         -192.3593180848 H        -5234.3634 eV
Force related energy:             -192.3593180848 H        -5234.3634 eV

Volume:                              0.981379E+04 au^3   0.145425E+04 A^3
Pressure:                            0.373045E-04 au     0.109753E+10 Pa
>> Charges saved for restart in charges.bin

total energy  -1.9235932E+02 H       energy change -2.1504700E-03 H
gradient norm  3.7763052E-02 H/a0    max. gradient  1.6431905E-02 H/a0
step length    1.4469607E-01 a0      max. step      2.6929867E-02 a0

--------------------------------------------------------------------------------

***  Geometry step: 12

 iSCC Total electronic   Diff electronic      SCC error    
    1   -0.19436310E+03    0.00000000E+00    0.63500518E-02
    2   -0.19434755E+03    0.15548702E-01    0.36805699E-02
    3   -0.19434757E+03   -0.19151175E-04    0.55667176E-03
    4   -0.19434758E+03   -0.50900383E-05    0.81230302E-04
    5   -0.19434758E+03   -0.16795187E-06    0.26477955E-04
    6   -0.19434758E+03   -0.65805352E-08    0.85372187E-05
    7   -0.19434758E+03   -0.77278628E-10    0.10587889E-05
    8   -0.19434758E+03   -0.13727686E-10    0.30828629E-06
    9   -0.19434758E+03   -0.99475983E-12    0.88218924E-07
   10   -0.19434758E+03    0.00000000E+00    0.65807990E-08

Total Energy:                     -192.3612315777 H        -5234.4154 eV
Extrapolated to 0K:               -192.3612315777 H        -5234.4154 eV
Total Mermin free energy:         -192.3612315777 H        -5234.4154 eV
Force related energy:             -192.3612315777 H        -5234.4154 eV

Volume:                              0.983745E+04 au^3   0.145776E+04 A^3
Pressure:                            0.297764E-04 au     0.876051E+09 Pa
>> Charges saved for restart in charges.bin

total energy  -1.9236123E+02 H       energy change -1.9134929E-03 H
gradient norm  3.3721790E-02 H/a0    max. gradient  1.1824074E-02 H/a0
step length    1.4224057E-01 a0      max. step      2.5722373E-02 a0

--------------------------------------------------------------------------------

***  Geometry step: 13

 iSCC Total electronic   Diff electronic      SCC error    
    1   -0.19434758E+03    0.00000000E+00    0.58433901E-02
    2   -0.19433004E+03    0.17536778E-01    0.34288866E-02
    3   -0.19433006E+03   -0.23156973E-04    0.70124331E-03
    4   -0.19433007E+03   -0.57709010E-05    0.85635104E-04
    5   -0.19433007E+03   -0.19344904E-06    0.33585882E-04
    6   -0.19433007E+03   -0.76320532E-08    0.10365178E-04
    7   -0.19433007E+03   -0.16413537E-09    0.16544358E-05
    8   -0.19433007E+03   -0.13073986E-10    0.29782417E-06
    9   -0.19433007E+03   -0.14779289E-11    0.76317888E-07
   10   -0.19433007E+03   -0.11368684E-12    0.69510051E-08

Total Energy:                     -192.3630304643 H        -5234.4644 eV
Extrapolated to 0K:               -192.3630304643 H        -5234.4644 eV
Total Mermin free energy:         -192.3630304643 H        -5234.4644 eV
Force related energy:             -192.3630304643 H        -5234.4644 eV

Volume:                              0.986693E+04 au^3   0.146213E+04 A^3
Pressure:                            0.207874E-04 au     0.611585E+09 Pa
>> Charges saved for restart in charges.bin

total energy  -1.9236303E+02 H       energy change -1.7988866E-03 H
gradient norm  3.1042048E-02 H/a0    max. gradient  8.8376035E-03 H/a0
step length    1.6003247E-01 a0      max. step      3.0280337E-02 a0

--------------------------------------------------------------------------------

***  Geometry step: 14

 iSCC Total electronic   Diff electronic      SCC error    
    1   -0.19433007E+03    0.00000000E+00    0.52829582E-02
    2   -0.19432134E+03    0.87260915E-02    0.26864000E-02
    3   -0.19432138E+03   -0.36310247E-04    0.83148620E-03
    4   -0.19432139E+03   -0.75193475E-05    0.19532775E-03
    5   -0.19432139E+03   -0.19705791E-06    0.19154969E-04
    6   -0.19432139E+03   -0.23390413E-07    0.55850096E-05
    7   -0.19432139E+03   -0.44948933E-09    0.20438218E-05
    8   -0.19432139E+03   -0.26886937E-10    0.33095223E-06
    9   -0.19432139E+03   -0.12505552E-11    0.48100005E-07
   10   -0.19432139E+03   -0.19895197E-12    0.10219194E-07
   11   -0.19432139E+03    0.11368684E-12    0.15815571E-08

Total Energy:                     -192.3643683897 H        -5234.5008 eV
Extrapolated to 0K:               -192.3643683897 H        -5234.5008 eV
Total Mermin free energy:         -192.3643683897 H        -5234.5008 eV
Force related energy:             -192.3643683897 H        -5234.5008 eV

Volume:                              0.989248E+04 au^3   0.146591E+04 A^3
Pressure:                            0.148074E-04 au     0.435649E+09 Pa
>> Charges saved for restart in charges.bin

total energy  -1.9236437E+02 H       energy change -1.3379254E-03 H
gradient norm  2.9351651E-02 H/a0    max. gradient  7.7569350E-03 H/a0
step length    1.3506476E-01 a0      max. step      2.5511222E-02 a0

--------------------------------------------------------------------------------

***  Geometry step: 15

 iSCC Total electronic   Diff electronic      SCC error    
    1   -0.19432139E+03    0.00000000E+00    0.57255506E-02
    2   -0.19432627E+03   -0.48830599E-02    0.25200838E-02
    3   -0.19432629E+03   -0.23931987E-04    0.67489017E-03
    4   -0.19432630E+03   -0.52702525E-05    0.94437923E-04
    5   -0.19432630E+03   -0.13999653E-06    0.17777184E-04
    6   -0.19432630E+03   -0.12452972E-07    0.54617312E-05
    7   -0.19432630E+03   -0.35666403E-09    0.16741248E-05
    8   -0.19432630E+03   -0.16996182E-10    0.34290198E-06
    9   -0.19432630E+03   -0.93791641E-12    0.51309015E-07
   10   -0.19432630E+03   -0.85265128E-13    0.78231568E-08

Total Energy:                     -192.3655183011 H        -5234.5321 eV
Extrapolated to 0K:               -192.3655183011 H        -5234.5321 eV
Total Mermin free energy:         -192.3655183011 H        -5234.5321 eV
Force related energy:             -192.3655183011 H        -5234.5321 eV

Volume:                              0.990650E+04 au^3   0.146799E+04 A^3
Pressure:                            0.146479E-04 au     0.430956E+09 Pa
>> Charges saved for restart in charges.bin

total energy  -1.9236552E+02 H       energy change -1.1499113E-03 H
gradient norm  2.6110196E-02 H/a0    max. gradient  5.3104559E-03 H/a0
step length    1.1547072E-01 a0      max. step      2.2058052E-02 a0

--------------------------------------------------------------------------------

***  Geometry step: 16

 iSCC Total electronic   Diff electronic      SCC error    
    1   -0.19432630E+03    0.00000000E+00    0.45493516E-02
    2   -0.19433606E+03   -0.97607932E-02    0.22865365E-02
    3   -0.19433608E+03   -0.20758665E-04    0.67227342E-03
    4   -0.19433609E+03   -0.42224871E-05    0.11600436E-03
    5   -0.19433609E+03   -0.14471635E-06    0.31752902E-04
    6   -0.19433609E+03   -0.14000932E-07    0.75148882E-05
    7   -0.19433609E+03   -0.36288839E-09    0.16715934E-05
    8   -0.19433609E+03   -0.10288659E-10    0.41937605E-06
    9   -0.19433609E+03   -0.11084467E-11    0.68574385E-07
   10   -0.19433609E+03    0.00000000E+00    0.75915834E-08

Total Energy:                     -192.3665731395 H        -5234.5608 eV
Extrapolated to 0K:               -192.3665731395 H        -5234.5608 eV
Total Mermin free energy:         -192.3665731395 H        -5234.5608 eV
Force related energy:             -192.3665731395 H        -5234.5608 eV

Volume:                              0.991765E+04 au^3   0.146964E+04 A^3
Pressure:                            0.163812E-04 au     0.481952E+09 Pa
>> Charges saved for restart in charges.bin

total energy  -1.9236657E+02 H       energy change -1.0548384E-03 H
gradient norm  2.4234026E-02 H/a0    max. gradient  6.2867431E-03 H/a0
step length    1.2245279E-01 a0      max. step      2.1539025E-02 a0

--------------------------------------------------------------------------------

***  Geometry step: 17

 iSCC Total electronic   Diff electronic      SCC error    
    1   -0.19433609E+03    0.00000000E+00    0.35657650E-02
    2   -0.19434229E+03   -0.62076724E-02    0.19364890E-02
    3   -0.19434231E+03   -0.12114460E-04    0.60924003E-03
    4   -0.19434231E+03   -0.25354005E-05    0.83395656E-04
    5   -0.19434231E+03   -0.66070697E-07    0.19219781E-04
    6   -0.19434231E+03   -0.50255551E-08    0.50414914E-05
    7   -0.19434231E+03   -0.12087753E-09    0.15218712E-05
    8   -0.19434231E+03   -0.36379788E-11    0.28491867E-06
    9   -0.19434231E+03   -0.62527761E-12    0.55568882E-07
   10   -0.19434231E+03    0.28421709E-13    0.55410432E-08

Total Energy:                     -192.3674385195 H        -5234.5843 eV
Extrapolated to 0K:               -192.3674385195 H        -5234.5843 eV
Total Mermin free energy:         -192.3674385195 H        -5234.5843 eV
Force related energy:             -192.3674385195 H        -5234.5843 eV

Volume:                              0.992747E+04 au^3   0.147110E+04 A^3
Pressure:                            0.176458E-04 au     0.519157E+09 Pa
>> Charges saved for restart in charges.bin

total energy  -1.9236744E+02 H       energy change -8.6538000E-04 H
gradient norm  2.2010169E-02 H/a0    max. gradient  4.6708843E-03 H/a0
step length    1.0881424E-01 a0      max. step      1.8769110E-02 a0

--------------------------------------------------------------------------------

***  Geometry step: 18

 iSCC Total electronic   Diff electronic      SCC error    
    1   -0.19434231E+03    0.00000000E+00    0.40191857E-02
    2   -0.19434344E+03   -0.11266308E-02    0.22037897E-02
    3   -0.19434345E+03   -0.17154795E-04    0.74550575E-03
    4   -0.19434346E+03   -0.35821643E-05    0.11130024E-03
    5   -0.19434346E+03   -0.57009117E-07    0.15543034E-04
    6   -0.19434346E+03   -0.54984923E-08    0.53403307E-05
    7   -0.19434346E+03   -0.13093882E-09    0.19983767E-05
    8   -0.19434346E+03   -0.34674486E-11    0.31578037E-06
    9   -0.19434346E+03   -0.45474735E-12    0.50857081E-07
   10   -0.19434346E+03   -0.17053026E-12    0.82100202E-08

Total Energy:                     -192.3683230966 H        -5234.6084 eV
Extrapolated to 0K:               -192.3683230966 H        -5234.6084 eV
Total Mermin free energy:         -192.3683230966 H        -5234.6084 eV
Force related energy:             -192.3683230966 H        -5234.6084 eV

Volume:                              0.994153E+04 au^3   0.147318E+04 A^3
Pressure:                            0.170918E-04 au     0.502857E+09 Pa
>> Charges saved for restart in charges.bin

total energy  -1.9236832E+02 H       energy change -8.8457712E-04 H
gradient norm  2.2295399E-02 H/a0    max. gradient  6.1417685E-03 H/a0
step length    1.2833099E-01 a0      max. step      2.3728842E-02 a0

--------------------------------------------------------------------------------

***  Geometry step: 19

 iSCC Total electronic   Diff electronic      SCC error    
    1   -0.19434346E+03    0.00000000E+00    0.56957486E-02
    2   -0.19433611E+03    0.73455712E-02    0.24653480E-02
    3   -0.19433613E+03   -0.20779843E-04    0.56768155E-03
    4   -0.19433614E+03   -0.45576460E-05    0.98030840E-04
    5   -0.19433614E+03   -0.63208603E-07    0.10629658E-04
    6   -0.19433614E+03   -0.59949627E-08    0.43092498E-05
    7   -0.19433614E+03   -0.11132784E-09    0.17454397E-05
    8   -0.19433614E+03   -0.49169557E-11    0.30220634E-06
    9   -0.19433614E+03   -0.36948222E-12    0.49332828E-07
   10   -0.19433614E+03   -0.56843419E-13    0.69425536E-08

Total Energy:                     -192.3691488310 H        -5234.6309 eV
Extrapolated to 0K:               -192.3691488310 H        -5234.6309 eV
Total Mermin free energy:         -192.3691488310 H        -5234.6309 eV
Force related energy:             -192.3691488310 H        -5234.6309 eV

Volume:                              0.996291E+04 au^3   0.147635E+04 A^3
Pressure:                            0.130189E-04 au     0.383030E+09 Pa
>> Charges saved for restart in charges.bin

total energy  -1.9236915E+02 H       energy change -8.2573446E-04 H
gradient norm  2.2229614E-02 H/a0    max. gradient  5.5439757E-03 H/a0
step length    1.3653735E-01 a0      max. step      2.6008414E-02 a0

--------------------------------------------------------------------------------

***  Geometry step: 20

 iSCC Total electronic   Diff electronic      SCC error    
    1   -0.19433614E+03    0.00000000E+00    0.48957167E-02
    2   -0.19432786E+03    0.82802213E-02    0.21787476E-02
    3   -0.19432787E+03   -0.13228817E-04    0.61102730E-03
    4   -0.19432787E+03   -0.29540211E-05    0.67006002E-04
    5   -0.19432787E+03   -0.79012693E-07    0.10136001E-04
    6   -0.19432787E+03   -0.55985367E-08    0.28205226E-05
    7   -0.19432787E+03   -0.13145041E-09    0.87328960E-06
    8   -0.19432787E+03   -0.72475359E-11    0.17700393E-06
    9   -0.19432787E+03   -0.45474735E-12    0.30570129E-07
   10   -0.19432787E+03   -0.56843419E-13    0.45188524E-08

Total Energy:                     -192.3698745741 H        -5234.6506 eV
Extrapolated to 0K:               -192.3698745741 H        -5234.6506 eV
Total Mermin free energy:         -192.3698745741 H        -5234.6506 eV
Force related energy:             -192.3698745741 H        -5234.6506 eV

Volume:                              0.998415E+04 au^3   0.147950E+04 A^3
Pressure:                            0.874658E-05 au     0.257333E+09 Pa
>> Charges saved for restart in charges.bin

total energy  -1.9236987E+02 H       energy change -7.2574310E-04 H
gradient norm  2.0792347E-02 H/a0    max. gradient  5.8136685E-03 H/a0
step length    1.3028697E-01 a0      max. step      2.5212295E-02 a0

--------------------------------------------------------------------------------

***  Geometry step: 21

 iSCC Total electronic   Diff electronic      SCC error    
    1   -0.19432787E+03    0.00000000E+00    0.35025548E-02
    2   -0.19432006E+03    0.78167325E-02    0.15105008E-02
    3   -0.19432006E+03   -0.90521303E-05    0.44132598E-03
    4   -0.19432007E+03   -0.20038935E-05    0.59541232E-04
    5   -0.19432007E+03   -0.63652465E-07    0.66816964E-05
    6   -0.19432007E+03   -0.31190837E-08    0.20136223E-05
    7   -0.19432007E+03   -0.12425971E-09    0.74848106E-06
    8   -0.19432007E+03   -0.42064130E-11    0.17586577E-06
    9   -0.19432007E+03   -0.25579538E-12    0.26694673E-07
   10   -0.19432007E+03   -0.28421709E-13    0.66877690E-08

Total Energy:                     -192.3704513120 H        -5234.6663 eV
Extrapolated to 0K:               -192.3704513120 H        -5234.6663 eV
Total Mermin free energy:         -192.3704513120 H        -5234.6663 eV
Force related energy:             -192.3704513120 H        -5234.6663 eV

Volume:                              0.100050E+05 au^3   0.148258E+04 A^3
Pressure:                            0.494850E-05 au     0.145590E+09 Pa
>> Charges saved for restart in charges.bin

total energy  -1.9237045E+02 H       energy change -5.7673789E-04 H
gradient norm  1.6261353E-02 H/a0    max. gradient  3.7345548E-03 H/a0
step length    1.1072415E-01 a0      max. step      2.1949964E-02 a0

--------------------------------------------------------------------------------

***  Geometry step: 22

 iSCC Total electronic   Diff electronic      SCC error    
    1   -0.19432007E+03    0.00000000E+00    0.36652053E-02
    2   -0.19431899E+03    0.10808385E-02    0.15005712E-02
    3   -0.19431899E+03   -0.86094501E-05    0.40687080E-03
    4   -0.19431900E+03   -0.19388346E-05    0.73213011E-04
    5   -0.19431900E+03   -0.35758831E-07    0.11631311E-04
    6   -0.19431900E+03   -0.23268001E-08    0.34011601E-05
    7   -0.19431900E+03   -0.10609824E-09    0.88867500E-06
    8   -0.19431900E+03   -0.20747848E-11    0.22372256E-06
    9   -0.19431900E+03   -0.34106051E-12    0.31912852E-07
   10   -0.19431900E+03   -0.28421709E-13    0.42235264E-08

Total Energy:                     -192.3708530266 H        -5234.6772 eV
Extrapolated to 0K:               -192.3708530266 H        -5234.6772 eV
Total Mermin free energy:         -192.3708530266 H        -5234.6772 eV
Force related energy:             -192.3708530266 H        -5234.6772 eV

Volume:                              0.100173E+05 au^3   0.148442E+04 A^3
Pressure:                            0.364339E-05 au     0.107192E+09 Pa
>> Charges saved for restart in charges.bin

total energy  -1.9237085E+02 H       energy change -4.0171457E-04 H
gradient norm  1.3904476E-02 H/a0    max. gradient  2.6074445E-03 H/a0
step length    8.1081174E-02 a0      max. step      1.7060989E-02 a0

--------------------------------------------------------------------------------

***  Geometry step: 23

 iSCC Total electronic   Diff electronic      SCC error    
    1   -0.19431900E+03    0.00000000E+00    0.26784791E-02
    2   -0.19432164E+03   -0.26467356E-02    0.15766675E-02
    3   -0.19432165E+03   -0.71519802E-05    0.39672117E-03
    4   -0.19432165E+03   -0.16651961E-05    0.52457082E-04
    5   -0.19432165E+03   -0.24244855E-07    0.12816637E-04
    6   -0.19432165E+03   -0.12987300E-08    0.32899415E-05
    7   -0.19432165E+03   -0.23902658E-10    0.53654679E-06
    8   -0.19432165E+03   -0.16200374E-11    0.16600206E-06
    9   -0.19432165E+03   -0.56843419E-13    0.31993201E-07
   10   -0.19432165E+03   -0.56843419E-13    0.26660842E-08

Total Energy:                     -192.3711467281 H        -5234.6852 eV
Extrapolated to 0K:               -192.3711467281 H        -5234.6852 eV
Total Mermin free energy:         -192.3711467281 H        -5234.6852 eV
Force related energy:             -192.3711467281 H        -5234.6852 eV

Volume:                              0.100250E+05 au^3   0.148555E+04 A^3
Pressure:                            0.375305E-05 au     0.110419E+09 Pa
>> Charges saved for restart in charges.bin

total energy  -1.9237115E+02 H       energy change -2.9370154E-04 H
gradient norm  1.3246124E-02 H/a0    max. gradient  3.5634358E-03 H/a0
step length    5.9195609E-02 a0      max. step      1.2196513E-02 a0

--------------------------------------------------------------------------------

***  Geometry step: 24

 iSCC Total electronic   Diff electronic      SCC error    
    1   -0.19432165E+03    0.00000000E+00    0.29377413E-02
    2   -0.19432718E+03   -0.55290943E-02    0.15270856E-02
    3   -0.19432719E+03   -0.57331078E-05    0.29583250E-03
    4   -0.19432719E+03   -0.14257017E-05    0.45722048E-04
    5   -0.19432719E+03   -0.28405168E-07    0.12616642E-04
    6   -0.19432719E+03   -0.12098553E-08    0.27614526E-05
    7   -0.19432719E+03   -0.21969981E-10    0.55858929E-06
    8   -0.19432719E+03   -0.13073986E-11    0.19538028E-06
    9   -0.19432719E+03   -0.22737368E-12    0.38070460E-07
   10   -0.19432719E+03   -0.28421709E-13    0.28586040E-08

Total Energy:                     -192.3713802753 H        -5234.6916 eV
Extrapolated to 0K:               -192.3713802753 H        -5234.6916 eV
Total Mermin free energy:         -192.3713802753 H        -5234.6916 eV
Force related energy:             -192.3713802753 H        -5234.6916 eV

Volume:                              0.100296E+05 au^3   0.148623E+04 A^3
Pressure:                            0.511472E-05 au     0.150480E+09 Pa
>> Charges saved for restart in charges.bin

total energy  -1.9237138E+02 H       energy change -2.3354720E-04 H
gradient norm  1.1753670E-02 H/a0    max. gradient  2.5291045E-03 H/a0
step length    5.4437583E-02 a0      max. step      1.0224647E-02 a0

--------------------------------------------------------------------------------

***  Geometry step: 25

 iSCC Total electronic   Diff electronic      SCC error    
    1   -0.19432719E+03    0.00000000E+00    0.20526460E-02
    2   -0.19433018E+03   -0.29932963E-02    0.11709523E-02
    3   -0.19433018E+03   -0.22221111E-05    0.24076071E-03
    4   -0.19433018E+03   -0.56106680E-06    0.34039252E-04
    5   -0.19433018E+03   -0.23548722E-07    0.82076992E-05
    6   -0.19433018E+03   -0.46199489E-09    0.15727260E-05
    7   -0.19433018E+03   -0.80433438E-11    0.35533111E-06
    8   -0.19433018E+03   -0.59685590E-12    0.10142665E-06
    9   -0.19433018E+03    0.28421709E-13    0.10388750E-07
   10   -0.19433018E+03   -0.28421709E-13    0.13922392E-08

Total Energy:                     -192.3715759868 H        -5234.6969 eV
Extrapolated to 0K:               -192.3715759868 H        -5234.6969 eV
Total Mermin free energy:         -192.3715759868 H        -5234.6969 eV
Force related energy:             -192.3715759868 H        -5234.6969 eV

Volume:                              0.100354E+05 au^3   0.148709E+04 A^3
Pressure:                            0.574527E-05 au     0.169032E+09 Pa
>> Charges saved for restart in charges.bin

total energy  -1.9237158E+02 H       energy change -1.9571148E-04 H
gradient norm  1.0793158E-02 H/a0    max. gradient  2.2939197E-03 H/a0
step length    5.1434704E-02 a0      max. step      9.7153077E-03 a0

--------------------------------------------------------------------------------

***  Geometry step: 26

 iSCC Total electronic   Diff electronic      SCC error    
    1   -0.19433018E+03    0.00000000E+00    0.21049209E-02
    2   -0.19433060E+03   -0.41999528E-03    0.11975575E-02
    3   -0.19433061E+03   -0.31662374E-05    0.30209593E-03
    4   -0.19433061E+03   -0.75081709E-06    0.24996305E-04
    5   -0.19433061E+03   -0.25315870E-07    0.64288925E-05
    6   -0.19433061E+03   -0.66393113E-09    0.14097315E-05
    7   -0.19433061E+03   -0.12732926E-10    0.51098815E-06
    8   -0.19433061E+03   -0.59685590E-12    0.88552001E-07
    9   -0.19433061E+03   -0.56843419E-13    0.21822267E-07
   10   -0.19433061E+03    0.11368684E-12    0.14300729E-08

Total Energy:                     -192.3717980881 H        -5234.7030 eV
Extrapolated to 0K:               -192.3717980881 H        -5234.7030 eV
Total Mermin free energy:         -192.3717980881 H        -5234.7030 eV
Force related energy:             -192.3717980881 H        -5234.7030 eV

Volume:                              0.100448E+05 au^3   0.148848E+04 A^3
Pressure:                            0.522214E-05 au     0.153641E+09 Pa
>> Charges saved for restart in charges.bin

total energy  -1.9237180E+02 H       energy change -2.2210132E-04 H
gradient norm  1.1636400E-02 H/a0    max. gradient  2.8074595E-03 H/a0
step length    6.6650182E-02 a0      max. step      1.4240547E-02 a0

--------------------------------------------------------------------------------

***  Geometry step: 27

 iSCC Total electronic   Diff electronic      SCC error    
    1   -0.19433061E+03    0.00000000E+00    0.21205864E-02
    2   -0.19432828E+03    0.23312721E-02    0.13042031E-02
    3   -0.19432828E+03   -0.45210206E-05    0.35139574E-03
    4   -0.19432828E+03   -0.10381340E-05    0.30560737E-04
    5   -0.19432828E+03   -0.24890596E-07    0.74274203E-05
    6   -0.19432828E+03   -0.83090868E-09    0.20329166E-05
    7   -0.19432828E+03   -0.14551915E-10    0.59921307E-06
    8   -0.19432828E+03   -0.39790393E-12    0.10379635E-06
    9   -0.19432828E+03   -0.19895197E-12    0.23054727E-07
   10   -0.19432828E+03    0.28421709E-13    0.17004469E-08

Total Energy:                     -192.3720412461 H        -5234.7096 eV
Extrapolated to 0K:               -192.3720412461 H        -5234.7096 eV
Total Mermin free energy:         -192.3720412461 H        -5234.7096 eV
Force related energy:             -192.3720412461 H        -5234.7096 eV

Volume:                              0.100578E+05 au^3   0.149042E+04 A^3
Pressure:                            0.347150E-05 au     0.102135E+09 Pa
>> Charges saved for restart in charges.bin

total energy  -1.9237204E+02 H       energy change -2.4315798E-04 H
gradient norm  1.3298419E-02 H/a0    max. gradient  3.9723235E-03 H/a0
step length    8.1584087E-02 a0      max. step      1.7923335E-02 a0

--------------------------------------------------------------------------------

***  Geometry step: 28

 iSCC Total electronic   Diff electronic      SCC error    
    1   -0.19432828E+03    0.00000000E+00    0.24408629E-02
    2   -0.19432481E+03    0.34682565E-02    0.12102611E-02
    3   -0.19432482E+03   -0.40245202E-05    0.35055399E-03
    4   -0.19432482E+03   -0.87956400E-06    0.31477569E-04
    5   -0.19432482E+03   -0.21917430E-07    0.11800876E-04
    6   -0.19432482E+03   -0.12795169E-08    0.21301554E-05
    7   -0.19432482E+03   -0.22197355E-10    0.52621644E-06
    8   -0.19432482E+03   -0.68212103E-12    0.13020262E-06
    9   -0.19432482E+03   -0.31263880E-12    0.27673032E-07
   10   -0.19432482E+03    0.28421709E-13    0.22838105E-08

Total Energy:                     -192.3722831539 H        -5234.7162 eV
Extrapolated to 0K:               -192.3722831539 H        -5234.7162 eV
Total Mermin free energy:         -192.3722831539 H        -5234.7162 eV
Force related energy:             -192.3722831539 H        -5234.7162 eV

Volume:                              0.100717E+05 au^3   0.149247E+04 A^3
Pressure:                            0.975119E-06 au     0.286890E+08 Pa
>> Charges saved for restart in charges.bin

total energy  -1.9237228E+02 H       energy change -2.4190780E-04 H
gradient norm  1.3217605E-02 H/a0    max. gradient  2.7940150E-03 H/a0
step length    8.6886914E-02 a0      max. step      1.9727991E-02 a0

--------------------------------------------------------------------------------

***  Geometry step: 29

 iSCC Total electronic   Diff electronic      SCC error    
    1   -0.19432482E+03    0.00000000E+00    0.23644462E-02
    2   -0.19432320E+03    0.16152458E-02    0.13856071E-02
    3   -0.19432321E+03   -0.41141148E-05    0.32062258E-03
    4   -0.19432321E+03   -0.89600627E-06    0.44711392E-04
    5   -0.19432321E+03   -0.21746558E-07    0.13773604E-04
    6   -0.19432321E+03   -0.15174351E-08    0.26460558E-05
    7   -0.19432321E+03   -0.29700686E-10    0.45461346E-06
    8   -0.19432321E+03   -0.13358203E-11    0.13382537E-06
    9   -0.19432321E+03   -0.19895197E-12    0.31227064E-07
   10   -0.19432321E+03    0.56843419E-13    0.29952689E-08

Total Energy:                     -192.3725468401 H        -5234.7233 eV
Extrapolated to 0K:               -192.3725468401 H        -5234.7233 eV
Total Mermin free energy:         -192.3725468401 H        -5234.7233 eV
Force related energy:             -192.3725468401 H        -5234.7233 eV

Volume:                              0.100840E+05 au^3   0.149429E+04 A^3
Pressure:                           -0.880190E-06 au    -0.258961E+08 Pa
>> Charges saved for restart in charges.bin

total energy  -1.9237255E+02 H       energy change -2.6368613E-04 H
gradient norm  1.2165846E-02 H/a0    max. gradient  2.3711193E-03 H/a0
step length    9.1737441E-02 a0      max. step      2.0081008E-02 a0

--------------------------------------------------------------------------------

***  Geometry step: 30

 iSCC Total electronic   Diff electronic      SCC error    
    1   -0.19432321E+03    0.00000000E+00    0.25399900E-02
    2   -0.19432468E+03   -0.14759660E-02    0.14638869E-02
    3   -0.19432469E+03   -0.49875038E-05    0.33698718E-03
    4   -0.19432469E+03   -0.10648467E-05    0.43650069E-04
    5   -0.19432469E+03   -0.21868374E-07    0.14491059E-04
    6   -0.19432469E+03   -0.18432615E-08    0.32866505E-05
    7   -0.19432469E+03   -0.39477754E-10    0.66455566E-06
    8   -0.19432469E+03   -0.14495072E-11    0.12056565E-06
    9   -0.19432469E+03   -0.28421709E-12    0.27949186E-07
   10   -0.19432469E+03    0.85265128E-13    0.37451651E-08

Total Energy:                     -192.3728337347 H        -5234.7311 eV
Extrapolated to 0K:               -192.3728337347 H        -5234.7311 eV
Total Mermin free energy:         -192.3728337347 H        -5234.7311 eV
Force related energy:             -192.3728337347 H        -5234.7311 eV

Volume:                              0.100937E+05 au^3   0.149573E+04 A^3
Pressure:                           -0.154694E-05 au    -0.455125E+08 Pa
>> Charges saved for restart in charges.bin

total energy  -1.9237283E+02 H       energy change -2.8689462E-04 H
gradient norm  1.2292648E-02 H/a0    max. gradient  3.9724869E-03 H/a0
step length    1.0398426E-01 a0      max. step      2.1441446E-02 a0

--------------------------------------------------------------------------------

***  Geometry step: 31

 iSCC Total electronic   Diff electronic      SCC error    
    1   -0.19432469E+03    0.00000000E+00    0.17351913E-02
    2   -0.19432848E+03   -0.37898709E-02    0.78934647E-03
    3   -0.19432849E+03   -0.44165756E-05    0.28850213E-03
    4   -0.19432849E+03   -0.91353670E-06    0.40791052E-04
    5   -0.19432849E+03   -0.11958463E-07    0.96573174E-05
    6   -0.19432849E+03   -0.12550458E-08    0.27200187E-05
    7   -0.19432849E+03   -0.23135271E-10    0.70477012E-06
    8   -0.19432849E+03   -0.56843419E-12    0.95962021E-07
    9   -0.19432849E+03   -0.56843419E-13    0.21022100E-07
   10   -0.19432849E+03    0.85265128E-13    0.22660003E-08

Total Energy:                     -192.3730895283 H        -5234.7381 eV
Extrapolated to 0K:               -192.3730895283 H        -5234.7381 eV
Total Mermin free energy:         -192.3730895283 H        -5234.7381 eV
Force related energy:             -192.3730895283 H        -5234.7381 eV

Volume:                              0.100988E+05 au^3   0.149649E+04 A^3
Pressure:                           -0.108048E-05 au    -0.317888E+08 Pa
>> Charges saved for restart in charges.bin

total energy  -1.9237309E+02 H       energy change -2.5579360E-04 H
gradient norm  1.3387920E-02 H/a0    max. gradient  5.4970714E-03 H/a0
step length    9.4999188E-02 a0      max. step      1.9158692E-02 a0

--------------------------------------------------------------------------------

***  Geometry step: 32

 iSCC Total electronic   Diff electronic      SCC error    
    1   -0.19432849E+03    0.00000000E+00    0.20633021E-02
    2   -0.19433445E+03   -0.59687584E-02    0.92155001E-03
    3   -0.19433446E+03   -0.53557425E-05    0.26137175E-03
    4   -0.19433446E+03   -0.11070838E-05    0.38527696E-04
    5   -0.19433446E+03   -0.12086360E-07    0.80772188E-05
    6   -0.19433446E+03   -0.13071144E-08    0.22168012E-05
    7   -0.19433446E+03   -0.26147973E-10    0.61491367E-06
    8   -0.19433446E+03   -0.39790393E-12    0.85302552E-07
    9   -0.19433446E+03   -0.56843419E-13    0.22452614E-07
   10   -0.19433446E+03    0.00000000E+00    0.22708382E-08

Total Energy:                     -192.3733759511 H        -5234.7459 eV
Extrapolated to 0K:               -192.3733759511 H        -5234.7459 eV
Total Mermin free energy:         -192.3733759511 H        -5234.7459 eV
Force related energy:             -192.3733759511 H        -5234.7459 eV

Volume:                              0.101012E+05 au^3   0.149685E+04 A^3
Pressure:                            0.404819E-06 au     0.119102E+08 Pa
>> Charges saved for restart in charges.bin

total energy  -1.9237338E+02 H       energy change -2.8642287E-04 H
gradient norm  1.3812520E-02 H/a0    max. gradient  5.0362314E-03 H/a0
step length    1.0835035E-01 a0      max. step      2.1735388E-02 a0

--------------------------------------------------------------------------------

***  Geometry step: 33

 iSCC Total electronic   Diff electronic      SCC error    
    1   -0.19433446E+03    0.00000000E+00    0.27045507E-02
    2   -0.19433964E+03   -0.51785944E-02    0.12664198E-02
    3   -0.19433964E+03   -0.49861535E-05    0.30596093E-03
    4   -0.19433965E+03   -0.10545855E-05    0.43419154E-04
    5   -0.19433965E+03   -0.14215146E-07    0.10496476E-04
    6   -0.19433965E+03   -0.12529426E-08    0.22879981E-05
    7   -0.19433965E+03   -0.28791192E-10    0.56940198E-06
    8   -0.19433965E+03   -0.71054274E-12    0.11103465E-06
    9   -0.19433965E+03   -0.17053026E-12    0.21014352E-07
   10   -0.19433965E+03    0.00000000E+00    0.24111060E-08

Total Energy:                     -192.3736655650 H        -5234.7538 eV
Extrapolated to 0K:               -192.3736655650 H        -5234.7538 eV
Total Mermin free energy:         -192.3736655650 H        -5234.7538 eV
Force related energy:             -192.3736655650 H        -5234.7538 eV

Volume:                              0.101025E+05 au^3   0.149703E+04 A^3
Pressure:                            0.201783E-05 au     0.593667E+08 Pa
>> Charges saved for restart in charges.bin

total energy  -1.9237367E+02 H       energy change -2.8961389E-04 H
gradient norm  1.3451814E-02 H/a0    max. gradient  3.4236673E-03 H/a0
step length    1.1643376E-01 a0      max. step      2.3246481E-02 a0

--------------------------------------------------------------------------------

***  Geometry step: 34

 iSCC Total electronic   Diff electronic      SCC error    
    1   -0.19433965E+03    0.00000000E+00    0.25983480E-02
    2   -0.19434208E+03   -0.24312154E-02    0.11510151E-02
    3   -0.19434208E+03   -0.39472718E-05    0.29384212E-03
    4   -0.19434208E+03   -0.86064364E-06    0.26113757E-04
    5   -0.19434208E+03   -0.17589855E-07    0.90895538E-05
    6   -0.19434208E+03   -0.11114025E-08    0.22165515E-05
    7   -0.19434208E+03   -0.21827873E-10    0.69358047E-06
    8   -0.19434208E+03   -0.59685590E-12    0.15028987E-06
    9   -0.19434208E+03   -0.17053026E-12    0.23132032E-07
   10   -0.19434208E+03    0.28421709E-13    0.25566838E-08

Total Energy:                     -192.3739612943 H        -5234.7618 eV
Extrapolated to 0K:               -192.3739612943 H        -5234.7618 eV
Total Mermin free energy:         -192.3739612943 H        -5234.7618 eV
Force related energy:             -192.3739612943 H        -5234.7618 eV

Volume:                              0.101044E+05 au^3   0.149731E+04 A^3
Pressure:                            0.285662E-05 au     0.840446E+08 Pa
>> Charges saved for restart in charges.bin

total energy  -1.9237396E+02 H       energy change -2.9572930E-04 H
gradient norm  1.3154772E-02 H/a0    max. gradient  2.6162724E-03 H/a0
step length    1.2336114E-01 a0      max. step      2.4356604E-02 a0

--------------------------------------------------------------------------------

***  Geometry step: 35

 iSCC Total electronic   Diff electronic      SCC error    
    1   -0.19434208E+03    0.00000000E+00    0.21532164E-02
    2   -0.19434096E+03    0.11268212E-02    0.12479305E-02
    3   -0.19434096E+03   -0.60334777E-05    0.33908786E-03
    4   -0.19434096E+03   -0.12937526E-05    0.29876965E-04
    5   -0.19434096E+03   -0.37418829E-07    0.77509053E-05
    6   -0.19434096E+03   -0.12050521E-08    0.28831516E-05
    7   -0.19434096E+03   -0.12192913E-10    0.61415097E-06
    8   -0.19434096E+03   -0.11937118E-11    0.11247191E-06
    9   -0.19434096E+03   -0.14210855E-12    0.25651893E-07
   10   -0.19434096E+03    0.85265128E-13    0.28018246E-08

Total Energy:                     -192.3742873555 H        -5234.7707 eV
Extrapolated to 0K:               -192.3742873555 H        -5234.7707 eV
Total Mermin free energy:         -192.3742873555 H        -5234.7707 eV
Force related energy:             -192.3742873555 H        -5234.7707 eV

Volume:                              0.101078E+05 au^3   0.149781E+04 A^3
Pressure:                            0.247124E-05 au     0.727062E+08 Pa
>> Charges saved for restart in charges.bin

total energy  -1.9237429E+02 H       energy change -3.2606115E-04 H
gradient norm  1.3573217E-02 H/a0    max. gradient  2.8308825E-03 H/a0
step length    1.4229551E-01 a0      max. step      2.7549840E-02 a0

--------------------------------------------------------------------------------

***  Geometry step: 36

 iSCC Total electronic   Diff electronic      SCC error    
    1   -0.19434096E+03    0.00000000E+00    0.28143423E-02
    2   -0.19433809E+03    0.28699064E-02    0.14651814E-02
    3   -0.19433810E+03   -0.59394001E-05    0.37585542E-03
    4   -0.19433810E+03   -0.13001689E-05    0.34651953E-04
    5   -0.19433810E+03   -0.38420211E-07    0.11071610E-04
    6   -0.19433810E+03   -0.11138468E-08    0.36904895E-05
    7   -0.19433810E+03   -0.17621460E-10    0.63781243E-06
    8   -0.19433810E+03   -0.93791641E-12    0.17076356E-06
    9   -0.19433810E+03   -0.25579538E-12    0.35554285E-07
   10   -0.19433810E+03    0.14210855E-12    0.30013112E-08

Total Energy:                     -192.3745538012 H        -5234.7780 eV
Extrapolated to 0K:               -192.3745538012 H        -5234.7780 eV
Total Mermin free energy:         -192.3745538012 H        -5234.7780 eV
Force related energy:             -192.3745538012 H        -5234.7780 eV

Volume:                              0.101110E+05 au^3   0.149829E+04 A^3
Pressure:                            0.131831E-05 au     0.387860E+08 Pa
>> Charges saved for restart in charges.bin

total energy  -1.9237455E+02 H       energy change -2.6644575E-04 H
gradient norm  1.2481478E-02 H/a0    max. gradient  3.0940359E-03 H/a0
step length    1.2104209E-01 a0      max. step      2.2345022E-02 a0

--------------------------------------------------------------------------------

***  Geometry step: 37

 iSCC Total electronic   Diff electronic      SCC error    
    1   -0.19433810E+03    0.00000000E+00    0.25241788E-02
    2   -0.19433651E+03    0.15866977E-02    0.13545263E-02
    3   -0.19433652E+03   -0.40657100E-05    0.33325578E-03
    4   -0.19433652E+03   -0.91849037E-06    0.34948409E-04
    5   -0.19433652E+03   -0.22635390E-07    0.13306942E-04
    6   -0.19433652E+03   -0.12409487E-08    0.26315290E-05
    7   -0.19433652E+03   -0.31036507E-10    0.58777859E-06
    8   -0.19433652E+03   -0.65369932E-12    0.12656945E-06
    9   -0.19433652E+03   -0.11368684E-12    0.24576053E-07
   10   -0.19433652E+03    0.56843419E-13    0.23307951E-08

Total Energy:                     -192.3747573875 H        -5234.7835 eV
Extrapolated to 0K:               -192.3747573875 H        -5234.7835 eV
Total Mermin free energy:         -192.3747573875 H        -5234.7835 eV
Force related energy:             -192.3747573875 H        -5234.7835 eV

Volume:                              0.101128E+05 au^3   0.149856E+04 A^3
Pressure:                            0.472802E-06 au     0.139103E+08 Pa
>> Charges saved for restart in charges.bin

total energy  -1.9237476E+02 H       energy change -2.0358623E-04 H
gradient norm  1.0378384E-02 H/a0    max. gradient  2.1502801E-03 H/a0
step length    9.2649715E-02 a0      max. step      1.6104868E-02 a0

--------------------------------------------------------------------------------

***  Geometry step: 38

 iSCC Total electronic   Diff electronic      SCC error    
    1   -0.19433652E+03    0.00000000E+00    0.15211622E-02
    2   -0.19433719E+03   -0.67621093E-03    0.88729439E-03
    3   -0.19433720E+03   -0.28791812E-05    0.26879066E-03
    4   -0.19433720E+03   -0.63872127E-06    0.32314701E-04
    5   -0.19433720E+03   -0.11498514E-07    0.91676758E-05
    6   -0.19433720E+03   -0.10751080E-08    0.16507980E-05
    7   -0.19433720E+03   -0.26574298E-10    0.43645939E-06
    8   -0.19433720E+03   -0.56843419E-12    0.10827232E-06
    9   -0.19433720E+03   -0.28421709E-13    0.16209281E-07
   10   -0.19433720E+03    0.00000000E+00    0.18241173E-08

Total Energy:                     -192.3749234289 H        -5234.7880 eV
Extrapolated to 0K:               -192.3749234289 H        -5234.7880 eV
Total Mermin free energy:         -192.3749234289 H        -5234.7880 eV
Force related energy:             -192.3749234289 H        -5234.7880 eV

Volume:                              0.101136E+05 au^3   0.149869E+04 A^3
Pressure:                            0.188761E-06 au     0.555354E+07 Pa
>> Charges saved for restart in charges.bin

total energy  -1.9237492E+02 H       energy change -1.6604143E-04 H
gradient norm  9.1873739E-03 H/a0    max. gradient  1.6484034E-03 H/a0
step length    7.6859008E-02 a0      max. step      1.4290348E-02 a0

--------------------------------------------------------------------------------

***  Geometry step: 39

 iSCC Total electronic   Diff electronic      SCC error    
    1   -0.19433720E+03    0.00000000E+00    0.18933891E-02
    2   -0.19434082E+03   -0.36258776E-02    0.79583964E-03
    3   -0.19434083E+03   -0.35540124E-05    0.21182710E-03
    4   -0.19434083E+03   -0.72952750E-06    0.44630629E-04
    5   -0.19434083E+03   -0.11556523E-07    0.67723609E-05
    6   -0.19434083E+03   -0.10095675E-08    0.18511193E-05
    7   -0.19434083E+03   -0.33907099E-10    0.42320797E-06
    8   -0.19434083E+03   -0.51159077E-12    0.73003079E-07
    9   -0.19434083E+03   -0.85265128E-13    0.22366399E-07
   10   -0.19434083E+03    0.28421709E-13    0.25714368E-08

Total Energy:                     -192.3750732532 H        -5234.7921 eV
Extrapolated to 0K:               -192.3750732532 H        -5234.7921 eV
Total Mermin free energy:         -192.3750732532 H        -5234.7921 eV
Force related energy:             -192.3750732532 H        -5234.7921 eV

Volume:                              0.101135E+05 au^3   0.149866E+04 A^3
Pressure:                            0.108798E-05 au     0.320094E+08 Pa
>> Charges saved for restart in charges.bin

total energy  -1.9237507E+02 H       energy change -1.4982427E-04 H
gradient norm  9.6245067E-03 H/a0    max. gradient  2.4567017E-03 H/a0
step length    7.5182768E-02 a0      max. step      1.4487948E-02 a0

--------------------------------------------------------------------------------

***  Geometry step: 40

 iSCC Total electronic   Diff electronic      SCC error    
    1   -0.19434083E+03    0.00000000E+00    0.16573753E-02
    2   -0.19434423E+03   -0.34041883E-02    0.83677769E-03
    3   -0.19434423E+03   -0.22752029E-05    0.21726427E-03
    4   -0.19434423E+03   -0.45038746E-06    0.30893097E-04
    5   -0.19434423E+03   -0.75721402E-08    0.63627802E-05
    6   -0.19434423E+03   -0.63769789E-09    0.17810884E-05
    7   -0.19434423E+03   -0.21600499E-10    0.36652796E-06
    8   -0.19434423E+03   -0.39790393E-12    0.83834757E-07
    9   -0.19434423E+03   -0.28421709E-13    0.18157315E-07
   10   -0.19434423E+03    0.56843419E-13    0.18944357E-08

Total Energy:                     -192.3751937026 H        -5234.7954 eV
Extrapolated to 0K:               -192.3751937026 H        -5234.7954 eV
Total Mermin free energy:         -192.3751937026 H        -5234.7954 eV
Force related energy:             -192.3751937026 H        -5234.7954 eV

Volume:                              0.101142E+05 au^3   0.149877E+04 A^3
Pressure:                            0.189965E-05 au     0.558896E+08 Pa
>> Charges saved for restart in charges.bin

total energy  -1.9237519E+02 H       energy change -1.2044942E-04 H
gradient norm  9.2998935E-03 H/a0    max. gradient  2.3272017E-03 H/a0
step length    6.3419095E-02 a0      max. step      1.2149872E-02 a0

--------------------------------------------------------------------------------

***  Geometry step: 41

 iSCC Total electronic   Diff electronic      SCC error    
    1   -0.19434423E+03    0.00000000E+00    0.24983896E-02
    2   -0.19434787E+03   -0.36400353E-02    0.14288745E-02
    3   -0.19434788E+03   -0.31175508E-05    0.34673144E-03
    4   -0.19434788E+03   -0.64513992E-06    0.37336778E-04
    5   -0.19434788E+03   -0.12986163E-07    0.10982901E-04
    6   -0.19434788E+03   -0.10221015E-08    0.21174256E-05
    7   -0.19434788E+03   -0.29388048E-10    0.49582007E-06
    8   -0.19434788E+03   -0.76738615E-12    0.12082142E-06
    9   -0.19434788E+03   -0.14210855E-12    0.25657106E-07
   10   -0.19434788E+03   -0.28421709E-13    0.21443123E-08

Total Energy:                     -192.3753179206 H        -5234.7987 eV
Extrapolated to 0K:               -192.3753179206 H        -5234.7987 eV
Total Mermin free energy:         -192.3753179206 H        -5234.7987 eV
Force related energy:             -192.3753179206 H        -5234.7987 eV

Volume:                              0.101160E+05 au^3   0.149904E+04 A^3
Pressure:                            0.287874E-05 au     0.846953E+08 Pa
>> Charges saved for restart in charges.bin

total energy  -1.9237532E+02 H       energy change -1.2421802E-04 H
gradient norm  7.9317067E-03 H/a0    max. gradient  1.4595982E-03 H/a0
step length    7.5556283E-02 a0      max. step      1.4567165E-02 a0

--------------------------------------------------------------------------------

***  Geometry step: 42

 iSCC Total electronic   Diff electronic      SCC error    
    1   -0.19434788E+03    0.00000000E+00    0.15443785E-02
    2   -0.19434866E+03   -0.78127462E-03    0.89182639E-03
    3   -0.19434866E+03   -0.14679341E-05    0.20038390E-03
    4   -0.19434866E+03   -0.32077864E-06    0.27233776E-04
    5   -0.19434866E+03   -0.60560694E-08    0.70920390E-05
    6   -0.19434866E+03   -0.45582738E-09    0.12644933E-05
    7   -0.19434866E+03   -0.11453949E-10    0.23744754E-06
    8   -0.19434866E+03   -0.45474735E-12    0.80986861E-07
    9   -0.19434866E+03    0.56843419E-13    0.14804090E-07
   10   -0.19434866E+03   -0.85265128E-13    0.16952422E-08

Total Energy:                     -192.3754065741 H        -5234.8012 eV
Extrapolated to 0K:               -192.3754065741 H        -5234.8012 eV
Total Mermin free energy:         -192.3754065741 H        -5234.8012 eV
Force related energy:             -192.3754065741 H        -5234.8012 eV

Volume:                              0.101192E+05 au^3   0.149951E+04 A^3
Pressure:                            0.291071E-05 au     0.856361E+08 Pa
>> Charges saved for restart in charges.bin

total energy  -1.9237541E+02 H       energy change -8.8653520E-05 H
gradient norm  7.5811957E-03 H/a0    max. gradient  1.4182272E-03 H/a0
step length    5.7301899E-02 a0      max. step      1.1086472E-02 a0

--------------------------------------------------------------------------------

***  Geometry step: 43

 iSCC Total electronic   Diff electronic      SCC error    
    1   -0.19434866E+03    0.00000000E+00    0.12685298E-02
    2   -0.19434800E+03    0.66515477E-03    0.71342826E-03
    3   -0.19434800E+03   -0.18275771E-05    0.22137593E-03
    4   -0.19434800E+03   -0.42265006E-06    0.36667360E-04
    5   -0.19434800E+03   -0.71815123E-08    0.64519017E-05
    6   -0.19434800E+03   -0.64014216E-09    0.10746018E-05
    7   -0.19434800E+03   -0.14154011E-10    0.22215558E-06
    8   -0.19434800E+03   -0.14210855E-12    0.69726094E-07
    9   -0.19434800E+03   -0.14210855E-12    0.13677058E-07
   10   -0.19434800E+03    0.00000000E+00    0.21427438E-08

Total Energy:                     -192.3755153538 H        -5234.8041 eV
Extrapolated to 0K:               -192.3755153538 H        -5234.8041 eV
Total Mermin free energy:         -192.3755153538 H        -5234.8041 eV
Force related energy:             -192.3755153538 H        -5234.8041 eV

Volume:                              0.101242E+05 au^3   0.150026E+04 A^3
Pressure:                            0.230405E-05 au     0.677876E+08 Pa
>> Charges saved for restart in charges.bin

total energy  -1.9237552E+02 H       energy change -1.0877968E-04 H
gradient norm  8.4301477E-03 H/a0    max. gradient  2.0333445E-03 H/a0
step length    7.0778033E-02 a0      max. step      1.4346812E-02 a0

--------------------------------------------------------------------------------

***  Geometry step: 44

 iSCC Total electronic   Diff electronic      SCC error    
    1   -0.19434800E+03    0.00000000E+00    0.12544241E-02
    2   -0.19434612E+03    0.18776739E-02    0.77081352E-03
    3   -0.19434612E+03   -0.20684306E-05    0.25257425E-03
    4   -0.19434612E+03   -0.44389935E-06    0.36716821E-04
    5   -0.19434612E+03   -0.79865572E-08    0.42492244E-05
    6   -0.19434612E+03   -0.75752382E-09    0.86093220E-06
    7   -0.19434612E+03   -0.15830892E-10    0.32461079E-06
    8   -0.19434612E+03   -0.28421709E-12    0.82905070E-07
    9   -0.19434612E+03   -0.85265128E-13    0.13486236E-07
   10   -0.19434612E+03   -0.28421709E-13    0.14464847E-08

Total Energy:                     -192.3756261863 H        -5234.8071 eV
Extrapolated to 0K:               -192.3756261863 H        -5234.8071 eV
Total Mermin free energy:         -192.3756261863 H        -5234.8071 eV
Force related energy:             -192.3756261863 H        -5234.8071 eV

Volume:                              0.101302E+05 au^3   0.150114E+04 A^3
Pressure:                            0.131586E-05 au     0.387139E+08 Pa
>> Charges saved for restart in charges.bin

total energy  -1.9237563E+02 H       energy change -1.1083247E-04 H
gradient norm  9.0933202E-03 H/a0    max. gradient  2.2200713E-03 H/a0
step length    7.2771439E-02 a0      max. step      1.5729007E-02 a0

--------------------------------------------------------------------------------

***  Geometry step: 45

 iSCC Total electronic   Diff electronic      SCC error    
    1   -0.19434612E+03    0.00000000E+00    0.12846464E-02
    2   -0.19434408E+03    0.20398355E-02    0.65454643E-03
    3   -0.19434409E+03   -0.16256016E-05    0.20665078E-03
    4   -0.19434409E+03   -0.36202448E-06    0.23444015E-04
    5   -0.19434409E+03   -0.64331971E-08    0.57509727E-05
    6   -0.19434409E+03   -0.54390625E-09    0.12114320E-05
    7   -0.19434409E+03   -0.97202246E-11    0.24153704E-06
    8   -0.19434409E+03   -0.31263880E-12    0.51472441E-07
    9   -0.19434409E+03    0.56843419E-13    0.16496280E-07
   10   -0.19434409E+03   -0.11368684E-12    0.17238557E-08

Total Energy:                     -192.3757305454 H        -5234.8100 eV
Extrapolated to 0K:               -192.3757305454 H        -5234.8100 eV
Total Mermin free energy:         -192.3757305454 H        -5234.8100 eV
Force related energy:             -192.3757305454 H        -5234.8100 eV

Volume:                              0.101362E+05 au^3   0.150203E+04 A^3
Pressure:                            0.959407E-07 au     0.282267E+07 Pa
>> Charges saved for restart in charges.bin

total energy  -1.9237573E+02 H       energy change -1.0435912E-04 H
gradient norm  7.9781192E-03 H/a0    max. gradient  1.5995621E-03 H/a0
step length    7.1622407E-02 a0      max. step      1.5836949E-02 a0

--------------------------------------------------------------------------------

***  Geometry step: 46

 iSCC Total electronic   Diff electronic      SCC error    
    1   -0.19434409E+03    0.00000000E+00    0.11891654E-02
    2   -0.19434367E+03    0.41598620E-03    0.63492918E-03
    3   -0.19434367E+03   -0.15295656E-05    0.15020745E-03
    4   -0.19434367E+03   -0.35175486E-06    0.21656065E-04
    5   -0.19434367E+03   -0.53526605E-08    0.85690972E-05
    6   -0.19434367E+03   -0.40699888E-09    0.14337562E-05
    7   -0.19434367E+03   -0.12050805E-10    0.24162967E-06
    8   -0.19434367E+03   -0.25579538E-12    0.78971197E-07
    9   -0.19434367E+03   -0.85265128E-13    0.16861537E-07
   10   -0.19434367E+03    0.85265128E-13    0.16259385E-08

Total Energy:                     -192.3758163161 H        -5234.8123 eV
Extrapolated to 0K:               -192.3758163161 H        -5234.8123 eV
Total Mermin free energy:         -192.3758163161 H        -5234.8123 eV
Force related energy:             -192.3758163161 H        -5234.8123 eV

Volume:                              0.101398E+05 au^3   0.150257E+04 A^3
Pressure:                           -0.496650E-06 au    -0.146120E+08 Pa
>> Charges saved for restart in charges.bin

total energy  -1.9237582E+02 H       energy change -8.5770743E-05 H
gradient norm  6.4141999E-03 H/a0    max. gradient  1.3160822E-03 H/a0
step length    5.7766878E-02 a0      max. step      1.3443485E-02 a0

--------------------------------------------------------------------------------

***  Geometry step: 47

 iSCC Total electronic   Diff electronic      SCC error    
    1   -0.19434367E+03    0.00000000E+00    0.13834887E-02
    2   -0.19434493E+03   -0.12545404E-02    0.62445294E-03
    3   -0.19434493E+03   -0.12860110E-05    0.15855693E-03
    4   -0.19434493E+03   -0.30148897E-06    0.16872726E-04
    5   -0.19434493E+03   -0.41081591E-08    0.74408055E-05
    6   -0.19434493E+03   -0.26790303E-09    0.13042640E-05
    7   -0.19434493E+03   -0.66791017E-11    0.23384639E-06
    8   -0.19434493E+03   -0.22737368E-12    0.77013957E-07
    9   -0.19434493E+03    0.28421709E-13    0.15545689E-07
   10   -0.19434493E+03   -0.85265128E-13    0.14142447E-08

Total Energy:                     -192.3758862916 H        -5234.8142 eV
Extrapolated to 0K:               -192.3758862916 H        -5234.8142 eV
Total Mermin free energy:         -192.3758862916 H        -5234.8142 eV
Force related energy:             -192.3758862916 H        -5234.8142 eV

Volume:                              0.101415E+05 au^3   0.150282E+04 A^3
Pressure:                           -0.422788E-06 au    -0.124388E+08 Pa
>> Charges saved for restart in charges.bin

total energy  -1.9237589E+02 H       energy change -6.9975493E-05 H
gradient norm  6.3861283E-03 H/a0    max. gradient  1.5956050E-03 H/a0
step length    5.0931099E-02 a0      max. step      1.1860352E-02 a0

--------------------------------------------------------------------------------

***  Geometry step: 48

 iSCC Total electronic   Diff electronic      SCC error    
    1   -0.19434493E+03    0.00000000E+00    0.13180965E-02
    2   -0.19434716E+03   -0.22279216E-02    0.59269320E-03
    3   -0.19434716E+03   -0.11268184E-05    0.18538733E-03
    4   -0.19434716E+03   -0.25406672E-06    0.17095524E-04
    5   -0.19434716E+03   -0.35914809E-08    0.41563287E-05
    6   -0.19434716E+03   -0.26520297E-09    0.94557555E-06
    7   -0.19434716E+03   -0.51727511E-11    0.24812715E-06
    8   -0.19434716E+03   -0.28421709E-13    0.66874374E-07
    9   -0.19434716E+03    0.56843419E-13    0.14969091E-07
   10   -0.19434716E+03   -0.85265128E-13    0.17433193E-08

Total Energy:                     -192.3759529375 H        -5234.8160 eV
Extrapolated to 0K:               -192.3759529375 H        -5234.8160 eV
Total Mermin free energy:         -192.3759529375 H        -5234.8160 eV
Force related energy:             -192.3759529375 H        -5234.8160 eV

Volume:                              0.101419E+05 au^3   0.150288E+04 A^3
Pressure:                            0.160237E-06 au     0.471434E+07 Pa
>> Charges saved for restart in charges.bin

total energy  -1.9237595E+02 H       energy change -6.6645889E-05 H
gradient norm  7.0583480E-03 H/a0    max. gradient  1.9635165E-03 H/a0
step length    5.0326636E-02 a0      max. step      1.2164307E-02 a0

--------------------------------------------------------------------------------

***  Geometry step: 49

 iSCC Total electronic   Diff electronic      SCC error    
    1   -0.19434716E+03    0.00000000E+00    0.11521941E-02
    2   -0.19434948E+03   -0.23204048E-02    0.58915964E-03
    3   -0.19434948E+03   -0.12661451E-05    0.20620726E-03
    4   -0.19434948E+03   -0.26664657E-06    0.17398687E-04
    5   -0.19434948E+03   -0.46204036E-08    0.23445315E-05
    6   -0.19434948E+03   -0.31675995E-09    0.80285167E-06
    7   -0.19434948E+03   -0.46327386E-11    0.26786751E-06
    8   -0.19434948E+03   -0.56843419E-13    0.55042782E-07
    9   -0.19434948E+03   -0.56843419E-13    0.64416397E-08

Total Energy:                     -192.3760292735 H        -5234.8181 eV
Extrapolated to 0K:               -192.3760292735 H        -5234.8181 eV
Total Mermin free energy:         -192.3760292735 H        -5234.8181 eV
Force related energy:             -192.3760292735 H        -5234.8181 eV

Volume:                              0.101428E+05 au^3   0.150300E+04 A^3
Pressure:                            0.804849E-06 au     0.236795E+08 Pa
>> Charges saved for restart in charges.bin

total energy  -1.9237603E+02 H       energy change -7.6335980E-05 H
gradient norm  7.3402046E-03 H/a0    max. gradient  1.5869622E-03 H/a0
step length    6.7307711E-02 a0      max. step      1.6946709E-02 a0

--------------------------------------------------------------------------------

***  Geometry step: 50

 iSCC Total electronic   Diff electronic      SCC error    
    1   -0.19434948E+03    0.00000000E+00    0.12664654E-02
    2   -0.19435079E+03   -0.13087386E-02    0.57404953E-03
    3   -0.19435079E+03   -0.13946383E-05    0.15286444E-03
    4   -0.19435079E+03   -0.28662757E-06    0.15338133E-04
    5   -0.19435079E+03   -0.40823807E-08    0.25066693E-05
    6   -0.19435079E+03   -0.29564262E-09    0.66501974E-06
    7   -0.19435079E+03   -0.23874236E-11    0.21193550E-06
    8   -0.19435079E+03    0.28421709E-13    0.40117004E-07
    9   -0.19435079E+03    0.11368684E-12    0.67547092E-08

Total Energy:                     -192.3761082373 H        -5234.8202 eV
Extrapolated to 0K:               -192.3761082373 H        -5234.8202 eV
Total Mermin free energy:         -192.3761082373 H        -5234.8202 eV
Force related energy:             -192.3761082373 H        -5234.8202 eV

Volume:                              0.101441E+05 au^3   0.150320E+04 A^3
Pressure:                            0.104938E-05 au     0.308737E+08 Pa
>> Charges saved for restart in charges.bin

total energy  -1.9237611E+02 H       energy change -7.8963844E-05 H
gradient norm  6.7846711E-03 H/a0    max. gradient  1.4595460E-03 H/a0
step length    6.9865761E-02 a0      max. step      1.7774107E-02 a0

--------------------------------------------------------------------------------

***  Geometry step: 51

 iSCC Total electronic   Diff electronic      SCC error    
    1   -0.19435079E+03    0.00000000E+00    0.16152106E-02
    2   -0.19435096E+03   -0.17131181E-03    0.69395680E-03
    3   -0.19435096E+03   -0.20092910E-05    0.21674946E-03
    4   -0.19435096E+03   -0.41874398E-06    0.24935507E-04
    5   -0.19435096E+03   -0.54636473E-08    0.36859808E-05
    6   -0.19435096E+03   -0.45073989E-09    0.10100880E-05
    7   -0.19435096E+03   -0.30695446E-11    0.22415712E-06
    8   -0.19435096E+03   -0.56843419E-13    0.27753298E-07
    9   -0.19435096E+03   -0.85265128E-13    0.73345934E-08

Total Energy:                     -192.3761860273 H        -5234.8224 eV
Extrapolated to 0K:               -192.3761860273 H        -5234.8224 eV
Total Mermin free energy:         -192.3761860273 H        -5234.8224 eV
Force related energy:             -192.3761860273 H        -5234.8224 eV

Volume:                              0.101452E+05 au^3   0.150336E+04 A^3
Pressure:                            0.115521E-05 au     0.339874E+08 Pa
>> Charges saved for restart in charges.bin

total energy  -1.9237619E+02 H       energy change -7.7789960E-05 H
gradient norm  6.6434967E-03 H/a0    max. gradient  1.3097060E-03 H/a0
step length    6.7717556E-02 a0      max. step      1.6799405E-02 a0

--------------------------------------------------------------------------------

***  Geometry step: 52

 iSCC Total electronic   Diff electronic      SCC error    
    1   -0.19435096E+03    0.00000000E+00    0.13765234E-02
    2   -0.19434951E+03    0.14573077E-02    0.59512438E-03
    3   -0.19434951E+03   -0.14102365E-05    0.19295722E-03
    4   -0.19434951E+03   -0.31977265E-06    0.18438872E-04
    5   -0.19434951E+03   -0.45474451E-08    0.28524527E-05
    6   -0.19434951E+03   -0.35964831E-09    0.86358784E-06
[...]
Total Mermin free energy:         -192.3789423656 H        -5234.8974 eV
Force related energy:             -192.3789423656 H        -5234.8974 eV

Volume:                              0.100053E+05 au^3   0.148263E+04 A^3
Pressure:                            0.215080E-06 au     0.632786E+07 Pa
>> Charges saved for restart in charges.bin

total energy  -1.9237894E+02 H       energy change -9.9918586E-07 H
gradient norm  7.2953804E-04 H/a0    max. gradient  1.4838921E-04 H/a0
step length    6.1740150E-03 a0      max. step      1.5575554E-03 a0

--------------------------------------------------------------------------------

***  Geometry step: 155

 iSCC Total electronic   Diff electronic      SCC error    
    1   -0.19434056E+03    0.00000000E+00    0.15801555E-03
    2   -0.19434058E+03   -0.20531697E-04    0.66887578E-04
    3   -0.19434058E+03   -0.21830715E-07    0.20522792E-04
    4   -0.19434058E+03   -0.42216186E-08    0.51332950E-05
    5   -0.19434058E+03   -0.60992988E-10    0.41954570E-06
    6   -0.19434058E+03   -0.49169557E-11    0.11819335E-06
    7   -0.19434058E+03   -0.11368684E-12    0.12524846E-07
    8   -0.19434058E+03    0.00000000E+00    0.37291570E-08

Total Energy:                     -192.3789433136 H        -5234.8974 eV
Extrapolated to 0K:               -192.3789433136 H        -5234.8974 eV
Total Mermin free energy:         -192.3789433136 H        -5234.8974 eV
Force related energy:             -192.3789433136 H        -5234.8974 eV

Volume:                              0.100051E+05 au^3   0.148261E+04 A^3
Pressure:                            0.221919E-06 au     0.652908E+07 Pa
>> Charges saved for restart in charges.bin

total energy  -1.9237894E+02 H       energy change -9.4804676E-07 H
gradient norm  8.2256137E-04 H/a0    max. gradient  2.0229898E-04 H/a0
step length    7.1746889E-03 a0      max. step      1.8596108E-03 a0

--------------------------------------------------------------------------------

***  Geometry step: 156

 iSCC Total electronic   Diff electronic      SCC error    
    1   -0.19434058E+03    0.00000000E+00    0.10292281E-03
    2   -0.19434047E+03    0.11717272E-03    0.63070739E-04
    3   -0.19434047E+03   -0.10704127E-07    0.20675064E-04
    4   -0.19434047E+03   -0.21146320E-08    0.24644586E-05
    5   -0.19434047E+03   -0.44479975E-10    0.25627866E-06
    6   -0.19434047E+03   -0.44053650E-11    0.69408617E-07
    7   -0.19434047E+03   -0.85265128E-13    0.10310320E-07
    8   -0.19434047E+03    0.28421709E-13    0.20705841E-08

Total Energy:                     -192.3789442260 H        -5234.8974 eV
Extrapolated to 0K:               -192.3789442260 H        -5234.8974 eV
Total Mermin free energy:         -192.3789442260 H        -5234.8974 eV
Force related energy:             -192.3789442260 H        -5234.8974 eV

Volume:                              0.100052E+05 au^3   0.148261E+04 A^3
Pressure:                            0.193333E-06 au     0.568805E+07 Pa
>> Charges saved for restart in charges.bin

total energy  -1.9237894E+02 H       energy change -9.1236723E-07 H
gradient norm  7.6933563E-04 H/a0    max. gradient  1.4998300E-04 H/a0
step length    2.6789904E-03 a0      max. step      6.2828216E-04 a0

--------------------------------------------------------------------------------

***  Geometry step: 157

 iSCC Total electronic   Diff electronic      SCC error    
    1   -0.19434047E+03    0.00000000E+00    0.19344344E-03
    2   -0.19434029E+03    0.17487143E-03    0.89208985E-04
    3   -0.19434029E+03   -0.44641126E-07    0.32996409E-04
    4   -0.19434029E+03   -0.70766646E-08    0.54829389E-05
    5   -0.19434029E+03   -0.13076829E-09    0.66555645E-06
    6   -0.19434029E+03   -0.12846613E-10    0.16966958E-06
    7   -0.19434029E+03   -0.22737368E-12    0.21956165E-07
    8   -0.19434029E+03    0.00000000E+00    0.48648632E-08

Total Energy:                     -192.3789457082 H        -5234.8975 eV
Extrapolated to 0K:               -192.3789457082 H        -5234.8975 eV
Total Mermin free energy:         -192.3789457082 H        -5234.8975 eV
Force related energy:             -192.3789457082 H        -5234.8975 eV

Volume:                              0.100054E+05 au^3   0.148265E+04 A^3
Pressure:                            0.135902E-06 au     0.399836E+07 Pa
>> Charges saved for restart in charges.bin

total energy  -1.9237895E+02 H       energy change -1.4821752E-06 H
gradient norm  8.6833217E-04 H/a0    max. gradient  1.8611717E-04 H/a0
step length    1.0679229E-02 a0      max. step      2.3597656E-03 a0

--------------------------------------------------------------------------------

***  Geometry step: 158

 iSCC Total electronic   Diff electronic      SCC error    
    1   -0.19434029E+03    0.00000000E+00    0.11838138E-03
    2   -0.19434012E+03    0.17283128E-03    0.71270661E-04
    3   -0.19434012E+03   -0.15394164E-07    0.24029601E-04
    4   -0.19434012E+03   -0.28852867E-08    0.34973243E-05
    5   -0.19434012E+03   -0.66933126E-10    0.74555869E-06
    6   -0.19434012E+03   -0.59685590E-11    0.13117965E-06
    7   -0.19434012E+03   -0.11368684E-12    0.19577309E-07
    8   -0.19434012E+03    0.00000000E+00    0.50023914E-08

Total Energy:                     -192.3789467917 H        -5234.8975 eV
Extrapolated to 0K:               -192.3789467917 H        -5234.8975 eV
Total Mermin free energy:         -192.3789467917 H        -5234.8975 eV
Force related energy:             -192.3789467917 H        -5234.8975 eV

Volume:                              0.100055E+05 au^3   0.148267E+04 A^3
Pressure:                            0.828896E-07 au     0.243870E+07 Pa
>> Charges saved for restart in charges.bin

total energy  -1.9237895E+02 H       energy change -1.0835493E-06 H
gradient norm  7.9864366E-04 H/a0    max. gradient  1.6304476E-04 H/a0
step length    6.7641525E-03 a0      max. step      1.5291565E-03 a0

--------------------------------------------------------------------------------

***  Geometry step: 159

 iSCC Total electronic   Diff electronic      SCC error    
    1   -0.19434012E+03    0.00000000E+00    0.22875046E-03
    2   -0.19434009E+03    0.27775289E-04    0.10176738E-03
    3   -0.19434009E+03   -0.30657361E-07    0.28704029E-04
    4   -0.19434009E+03   -0.65772667E-08    0.36105012E-05
    5   -0.19434009E+03   -0.10967938E-09    0.90366739E-06
    6   -0.19434009E+03   -0.84128260E-11    0.16530159E-06
    7   -0.19434009E+03   -0.31263880E-12    0.25674744E-07
    8   -0.19434009E+03    0.56843419E-13    0.86374468E-08

Total Energy:                     -192.3789479277 H        -5234.8975 eV
Extrapolated to 0K:               -192.3789479277 H        -5234.8975 eV
Total Mermin free energy:         -192.3789479277 H        -5234.8975 eV
Force related energy:             -192.3789479277 H        -5234.8975 eV

Volume:                              0.100057E+05 au^3   0.148269E+04 A^3
Pressure:                            0.606560E-07 au     0.178456E+07 Pa
>> Charges saved for restart in charges.bin

total energy  -1.9237895E+02 H       energy change -1.1360045E-06 H
gradient norm  6.5907853E-04 H/a0    max. gradient  1.4603098E-04 H/a0
step length    7.7769123E-03 a0      max. step      1.7023128E-03 a0

--------------------------------------------------------------------------------

***  Geometry step: 160

 iSCC Total electronic   Diff electronic      SCC error    
    1   -0.19434009E+03    0.00000000E+00    0.94937308E-04
    2   -0.19434019E+03   -0.93605713E-04    0.60684236E-04
    3   -0.19434019E+03   -0.84640419E-08    0.19881505E-04
    4   -0.19434019E+03   -0.20807818E-08    0.16666547E-05
    5   -0.19434019E+03   -0.28364866E-10    0.17710925E-06
    6   -0.19434019E+03   -0.21316282E-11    0.43861653E-07
    7   -0.19434019E+03   -0.11368684E-12    0.87166230E-08

Total Energy:                     -192.3789485119 H        -5234.8975 eV
Extrapolated to 0K:               -192.3789485119 H        -5234.8975 eV
Total Mermin free energy:         -192.3789485119 H        -5234.8975 eV
Force related energy:             -192.3789485119 H        -5234.8975 eV

Volume:                              0.100056E+05 au^3   0.148268E+04 A^3
Pressure:                            0.926833E-07 au     0.272683E+07 Pa
>> Charges saved for restart in charges.bin

total energy  -1.9237895E+02 H       energy change -5.8421315E-07 H
gradient norm  5.9486393E-04 H/a0    max. gradient  1.3280011E-04 H/a0
step length    1.8636851E-03 a0      max. step      4.4458561E-04 a0

--------------------------------------------------------------------------------

***  Geometry step: 161

 iSCC Total electronic   Diff electronic      SCC error    
    1   -0.19434019E+03    0.00000000E+00    0.15559819E-03
    2   -0.19434031E+03   -0.12615009E-03    0.97535685E-04
    3   -0.19434031E+03   -0.17156367E-07    0.32506494E-04
    4   -0.19434031E+03   -0.41123371E-08    0.23785159E-05
    5   -0.19434031E+03   -0.59770855E-10    0.25244610E-06
    6   -0.19434031E+03   -0.42348347E-11    0.79043207E-07
    7   -0.19434031E+03   -0.11368684E-12    0.12370569E-07
    8   -0.19434031E+03   -0.28421709E-13    0.30954586E-08

Total Energy:                     -192.3789494283 H        -5234.8976 eV
Extrapolated to 0K:               -192.3789494283 H        -5234.8976 eV
Total Mermin free energy:         -192.3789494283 H        -5234.8976 eV
Force related energy:             -192.3789494283 H        -5234.8976 eV

Volume:                              0.100054E+05 au^3   0.148265E+04 A^3
Pressure:                            0.155547E-06 au     0.457636E+07 Pa
>> Charges saved for restart in charges.bin

total energy  -1.9237895E+02 H       energy change -9.1633206E-07 H
gradient norm  6.9414567E-04 H/a0    max. gradient  1.6205325E-04 H/a0
step length    6.8960812E-03 a0      max. step      1.5792841E-03 a0

--------------------------------------------------------------------------------

***  Geometry step: 162

 iSCC Total electronic   Diff electronic      SCC error    
    1   -0.19434031E+03    0.00000000E+00    0.13190370E-03
    2   -0.19434038E+03   -0.69928191E-04    0.84786968E-04
    3   -0.19434038E+03   -0.10361305E-07    0.26704081E-04
    4   -0.19434038E+03   -0.25482620E-08    0.18420829E-05
    5   -0.19434038E+03   -0.48402171E-10    0.25884610E-06
    6   -0.19434038E+03   -0.30979663E-11    0.66742173E-07
    7   -0.19434038E+03   -0.56843419E-13    0.91619734E-08

Total Energy:                     -192.3789501860 H        -5234.8976 eV
Extrapolated to 0K:               -192.3789501860 H        -5234.8976 eV
Total Mermin free energy:         -192.3789501860 H        -5234.8976 eV
Force related energy:             -192.3789501860 H        -5234.8976 eV

Volume:                              0.100053E+05 au^3   0.148264E+04 A^3
Pressure:                            0.181352E-06 au     0.533557E+07 Pa
>> Charges saved for restart in charges.bin

total energy  -1.9237895E+02 H       energy change -7.5773079E-07 H
gradient norm  7.7328107E-04 H/a0    max. gradient  2.3523741E-04 H/a0
step length    7.3263579E-03 a0      max. step      1.6279136E-03 a0

--------------------------------------------------------------------------------

***  Geometry step: 163

 iSCC Total electronic   Diff electronic      SCC error    
    1   -0.19434038E+03    0.00000000E+00    0.19201486E-03
    2   -0.19434051E+03   -0.13180773E-03    0.88163963E-04
    3   -0.19434051E+03   -0.21112953E-07    0.30634508E-04
    4   -0.19434051E+03   -0.47950550E-08    0.20520409E-05
    5   -0.19434051E+03   -0.63323569E-10    0.32314210E-06
    6   -0.19434051E+03   -0.48601123E-11    0.88258088E-07
    7   -0.19434051E+03    0.28421709E-13    0.13566031E-07
    8   -0.19434051E+03   -0.11368684E-12    0.36991334E-08

Total Energy:                     -192.3789510990 H        -5234.8976 eV
Extrapolated to 0K:               -192.3789510990 H        -5234.8976 eV
Total Mermin free energy:         -192.3789510990 H        -5234.8976 eV
Force related energy:             -192.3789510990 H        -5234.8976 eV

Volume:                              0.100053E+05 au^3   0.148264E+04 A^3
Pressure:                            0.213859E-06 au     0.629194E+07 Pa
>> Charges saved for restart in charges.bin

total energy  -1.9237895E+02 H       energy change -9.1303934E-07 H
gradient norm  6.8600859E-04 H/a0    max. gradient  1.3796918E-04 H/a0
step length    9.8878937E-03 a0      max. step      2.1278556E-03 a0

--------------------------------------------------------------------------------

***  Geometry step: 164

 iSCC Total electronic   Diff electronic      SCC error    
    1   -0.19434051E+03    0.00000000E+00    0.11449366E-03
    2   -0.19434054E+03   -0.25547331E-04    0.51991715E-04
    3   -0.19434054E+03   -0.10503555E-07    0.14939518E-04
    4   -0.19434054E+03   -0.23490827E-08    0.24072083E-05
    5   -0.19434054E+03   -0.32628122E-10    0.37013875E-06
    6   -0.19434054E+03   -0.27853275E-11    0.86848296E-07
    7   -0.19434054E+03   -0.11368684E-12    0.10619609E-07
    8   -0.19434054E+03   -0.56843419E-13    0.23761348E-08

Total Energy:                     -192.3789517642 H        -5234.8976 eV
Extrapolated to 0K:               -192.3789517642 H        -5234.8976 eV
Total Mermin free energy:         -192.3789517642 H        -5234.8976 eV
Force related energy:             -192.3789517642 H        -5234.8976 eV

Volume:                              0.100053E+05 au^3   0.148263E+04 A^3
Pressure:                            0.227735E-06 au     0.670019E+07 Pa
>> Charges saved for restart in charges.bin

total energy  -1.9237895E+02 H       energy change -6.6514298E-07 H
gradient norm  6.1834660E-04 H/a0    max. gradient  1.4219718E-04 H/a0
step length    2.2025210E-03 a0      max. step      5.6881176E-04 a0

--------------------------------------------------------------------------------

***  Geometry step: 165

 iSCC Total electronic   Diff electronic      SCC error    
    1   -0.19434054E+03    0.00000000E+00    0.16897605E-03
    2   -0.19434042E+03    0.11575076E-03    0.77282230E-04
    3   -0.19434042E+03   -0.24572500E-07    0.19297943E-04
    4   -0.19434042E+03   -0.56571423E-08    0.25568579E-05
    5   -0.19434042E+03   -0.68069994E-10    0.41420245E-06
    6   -0.19434042E+03   -0.61959327E-11    0.88545340E-07
    7   -0.19434042E+03   -0.85265128E-13    0.16513372E-07
    8   -0.19434042E+03   -0.11368684E-12    0.44048711E-08

Total Energy:                     -192.3789526105 H        -5234.8976 eV
Extrapolated to 0K:               -192.3789526105 H        -5234.8976 eV
Total Mermin free energy:         -192.3789526105 H        -5234.8976 eV
Force related energy:             -192.3789526105 H        -5234.8976 eV

Volume:                              0.100054E+05 au^3   0.148265E+04 A^3
Pressure:                            0.190014E-06 au     0.559041E+07 Pa
>> Charges saved for restart in charges.bin

total energy  -1.9237895E+02 H       energy change -8.4636579E-07 H
gradient norm  5.8903481E-04 H/a0    max. gradient  1.2317527E-04 H/a0
step length    3.7789671E-03 a0      max. step      8.2852038E-04 a0

--------------------------------------------------------------------------------

***  Geometry step: 166

 iSCC Total electronic   Diff electronic      SCC error    
    1   -0.19434042E+03    0.00000000E+00    0.13903719E-03
    2   -0.19434021E+03    0.20887562E-03    0.59463284E-04
    3   -0.19434021E+03   -0.14238992E-07    0.18106856E-04
    4   -0.19434021E+03   -0.29558009E-08    0.24532298E-05
    5   -0.19434021E+03   -0.47208459E-10    0.24043003E-06
    6   -0.19434021E+03   -0.42916781E-11    0.56448660E-07
    7   -0.19434021E+03   -0.85265128E-13    0.14675402E-07
    8   -0.19434021E+03   -0.28421709E-13    0.20503359E-08

Total Energy:                     -192.3789534350 H        -5234.8977 eV
Extrapolated to 0K:               -192.3789534350 H        -5234.8977 eV
Total Mermin free energy:         -192.3789534350 H        -5234.8977 eV
Force related energy:             -192.3789534350 H        -5234.8977 eV

Volume:                              0.100055E+05 au^3   0.148267E+04 A^3
Pressure:                            0.126393E-06 au     0.371861E+07 Pa
>> Charges saved for restart in charges.bin

total energy  -1.9237895E+02 H       energy change -8.2444299E-07 H
gradient norm  6.8585807E-04 H/a0    max. gradient  1.4794671E-04 H/a0
step length    9.6916904E-03 a0      max. step      2.3209548E-03 a0

--------------------------------------------------------------------------------

***  Geometry step: 167

 iSCC Total electronic   Diff electronic      SCC error    
    1   -0.19434021E+03    0.00000000E+00    0.15422080E-03
    2   -0.19433992E+03    0.28994741E-03    0.62877560E-04
    3   -0.19433992E+03   -0.16532738E-07    0.13664283E-04
    4   -0.19433992E+03   -0.35025778E-08    0.24633356E-05
    5   -0.19433992E+03   -0.44536819E-10    0.33231838E-06
    6   -0.19433992E+03   -0.41779913E-11    0.52234583E-07
    7   -0.19433992E+03   -0.56843419E-13    0.12461593E-07
    8   -0.19433992E+03    0.56843419E-13    0.20220234E-08

Total Energy:                     -192.3789542525 H        -5234.8977 eV
Extrapolated to 0K:               -192.3789542525 H        -5234.8977 eV
Total Mermin free energy:         -192.3789542525 H        -5234.8977 eV
Force related energy:             -192.3789542525 H        -5234.8977 eV

Volume:                              0.100056E+05 au^3   0.148268E+04 A^3
Pressure:                            0.273662E-07 au     0.805140E+06 Pa
>> Charges saved for restart in charges.bin

total energy  -1.9237895E+02 H       energy change -8.1750602E-07 H
gradient norm  6.1492799E-04 H/a0    max. gradient  1.2798315E-04 H/a0
step length    1.1378665E-02 a0      max. step      2.9333512E-03 a0

--------------------------------------------------------------------------------

***  Geometry step: 168

 iSCC Total electronic   Diff electronic      SCC error    
    1   -0.19433992E+03    0.00000000E+00    0.15828898E-03
    2   -0.19433982E+03    0.10216916E-03    0.69289537E-04
    3   -0.19433982E+03   -0.97635109E-08    0.16080302E-04
    4   -0.19433982E+03   -0.22338327E-08    0.18353421E-05
    5   -0.19433982E+03   -0.23163693E-10    0.21362562E-06
    6   -0.19433982E+03   -0.18189894E-11    0.54706343E-07
    7   -0.19433982E+03   -0.14210855E-12    0.86190326E-08

Total Energy:                     -192.3789547740 H        -5234.8977 eV
Extrapolated to 0K:               -192.3789547740 H        -5234.8977 eV
Total Mermin free energy:         -192.3789547740 H        -5234.8977 eV
Force related energy:             -192.3789547740 H        -5234.8977 eV

Volume:                              0.100055E+05 au^3   0.148266E+04 A^3
Pressure:                            0.818912E-08 au     0.240932E+06 Pa
>> Charges saved for restart in charges.bin

total energy  -1.9237895E+02 H       energy change -5.2150477E-07 H
gradient norm  4.6678142E-04 H/a0    max. gradient  8.5806339E-05 H/a0
step length    2.3507670E-03 a0      max. step      5.0883253E-04 a0

Geometry converged

--------------------------------------------------------------------------------
DFTB+ running times                          cpu [s]             wall clock [s]
--------------------------------------------------------------------------------
Pre-SCC initialisation                 +      16.45 (  1.1%)       2.16 (  1.2%)
SCC                                    +    1262.69 ( 87.9%)     159.36 ( 89.1%)
Post-SCC processing                    +     157.99 ( 11.0%)      17.38 (  9.7%)
--------------------------------------------------------------------------------
Missing                                +       0.01 (  0.0%)       0.01 (  0.0%)
Total                                  =    1437.13 (100.0%)     178.91 (100.0%)
--------------------------------------------------------------------------------
