|===============================================================================
|
|  DFTB+ release 24.1
|
|  Copyright (C) 2006 - 2024  DFTB+ developers group
|
|===============================================================================
|
|  When publishing results obtained with DFTB+, please cite the following
|  reference:
|
|  * DFTB+, a software package for efficient approximate density functional
|    theory based atomistic simulations, J. Chem. Phys. 152, 124101 (2020).
|    [doi: 10.1063/1.5143190]
|
|  You should also cite additional publications crediting the parametrization
|  data you use. Please consult the documentation of the SK-files for the
|  references.
|
|===============================================================================

Reading input file 'dftb_in.hsd'
Parser version: 14

--------------------------------------------------------------------------------
Reading SK-files:
./SKFiles/Ge-Ge.skf
./SKFiles/Ge-Si.skf
./SKFiles/Ge-O.skf
./SKFiles/Si-Si.skf
./SKFiles/Si-O.skf
./SKFiles/O-O.skf
Done.


Processed input in HSD format written to 'dftb_pin.hsd'

Starting initialization...
--------------------------------------------------------------------------------
WARNING!
-> Dipole printed for extended system : value printed is not well defined
MPI processes:               1
OpenMP threads:              8
BLACS orbital grid size:     1 x 1
BLACS atom grid size:        1 x 1
Chosen random seed:          145929646
Current stacksize:           unlimited
Mode:                        Static calculation
Self consistent charges:     Yes
SCC-tolerance:                 0.100000E-07
Max. scc iterations:                    500
Shell resolved Hubbard:      No
Spin polarisation:           No
Nr. of up electrons:           192.000000
Nr. of down electrons:         192.000000
Periodic boundaries:         Yes
Electronic solver:           Relatively robust
Mixer:                       Broyden mixer
Mixing parameter:                  0.200000
Maximal SCC-cycles:                     500
Nr. of chrg. vec. in memory:            500
Electronic temperature:              0.100000E-07 H      0.272114E-06 eV
Initial charges:             Set automatically (system chrg:   0.000E+00)
Included shells:            Ge:  s, p, d
                            Si:  s, p, d
                             O:  s, p
K-points and weights:           1:  0.500000  0.500000  0.500000     1.000000

K-points in absolute space:     1:  0.025319  0.017606  0.037774

Extra options:
                             Mulliken analysis
Force type                   original

--------------------------------------------------------------------------------

***  Geometry step: 0

 iSCC Total electronic   Diff electronic      SCC error    
    1    0.00000000E+00    0.00000000E+00    0.14596896E+01
    2   -0.19479959E+03   -0.19479959E+03    0.99404809E+00
    3   -0.19516641E+03   -0.36681640E+00    0.59488363E-01
    4   -0.19548228E+03   -0.31586873E+00    0.28443762E-01
    5   -0.19548439E+03   -0.21126708E-02    0.76659513E-02
    6   -0.19548454E+03   -0.15436194E-03    0.17563285E-02
    7   -0.19548455E+03   -0.48908587E-05    0.44834741E-03
    8   -0.19548455E+03   -0.11945964E-05    0.57808217E-04
    9   -0.19548455E+03   -0.76285005E-07    0.31801232E-04
   10   -0.19548455E+03    0.44906301E-11    0.12460382E-05
   11   -0.19548455E+03   -0.27276315E-09    0.30143668E-06
   12   -0.19548455E+03   -0.39506176E-11    0.12707376E-06
   13   -0.19548455E+03    0.85265128E-13    0.15229924E-07
   14   -0.19548455E+03    0.28421709E-13    0.12727481E-08

Total Energy:                     -191.8767523496 H        -5221.2321 eV
Extrapolated to 0K:               -191.8767523496 H        -5221.2321 eV
Total Mermin free energy:         -191.8767523496 H        -5221.2321 eV
Force related energy:             -191.8767523496 H        -5221.2321 eV

Volume:                              0.913789E+04 au^3   0.135410E+04 A^3
Pressure:                            0.714702E-03 au     0.210273E+11 Pa
>> Charges saved for restart in charges.bin

total energy  -1.9187675E+02 H       energy change -1.9187675E+02 H
gradient norm  7.5992565E-01 H/a0    max. gradient  2.8954986E-01 H/a0
step length    0.0000000E+00 a0      max. step      0.0000000E+00 a0

--------------------------------------------------------------------------------

***  Geometry step: 1

 iSCC Total electronic   Diff electronic      SCC error    
    1   -0.19548455E+03    0.00000000E+00    0.71309197E-01
    2   -0.19519193E+03    0.29261795E+00    0.36687967E-01
    3   -0.19519637E+03   -0.44361932E-02    0.12350000E-01
    4   -0.19519745E+03   -0.10791836E-02    0.11659811E-02
    5   -0.19519746E+03   -0.14399206E-04    0.27237002E-03
    6   -0.19519746E+03   -0.55218078E-06    0.10368298E-03
    7   -0.19519746E+03   -0.36669036E-07    0.16257401E-04
    8   -0.19519746E+03   -0.27989699E-08    0.13882502E-05
    9   -0.19519746E+03   -0.14000534E-09    0.51503696E-06
   10   -0.19519746E+03   -0.44337867E-11    0.18430506E-06
   11   -0.19519746E+03   -0.11368684E-12    0.32684998E-07
   12   -0.19519746E+03   -0.14210855E-12    0.49157585E-08

Total Energy:                     -192.0489751684 H        -5225.9185 eV
Extrapolated to 0K:               -192.0489751684 H        -5225.9185 eV
Total Mermin free energy:         -192.0489751684 H        -5225.9185 eV
Force related energy:             -192.0489751684 H        -5225.9185 eV

Volume:                              0.936970E+04 au^3   0.138845E+04 A^3
Pressure:                            0.497858E-03 au     0.146475E+11 Pa
>> Charges saved for restart in charges.bin

total energy  -1.9204898E+02 H       energy change -1.7222282E-01 H
gradient norm  4.9502773E-01 H/a0    max. gradient  1.5765176E-01 H/a0
step length    5.3908316E-01 a0      max. step      2.0540358E-01 a0

--------------------------------------------------------------------------------

***  Geometry step: 2

 iSCC Total electronic   Diff electronic      SCC error    
    1   -0.19519746E+03    0.00000000E+00    0.63253592E-01
    2   -0.19509837E+03    0.99091382E-01    0.36403019E-01
    3   -0.19510091E+03   -0.25445344E-02    0.81428927E-02
    4   -0.19510158E+03   -0.66949021E-03    0.77045390E-03
    5   -0.19510159E+03   -0.58349682E-05    0.16643921E-03
    6   -0.19510159E+03   -0.28028404E-06    0.66119438E-04
    7   -0.19510159E+03   -0.12809608E-07    0.12215339E-04
    8   -0.19510159E+03   -0.16483739E-08    0.13368504E-05
    9   -0.19510159E+03   -0.80575546E-10    0.48417057E-06
   10   -0.19510159E+03   -0.21032065E-11    0.19694158E-06
   11   -0.19510159E+03   -0.85265128E-13    0.29762683E-07
   12   -0.19510159E+03   -0.28421709E-13    0.28717357E-08

Total Energy:                     -192.1754820175 H        -5229.3609 eV
Extrapolated to 0K:               -192.1754820175 H        -5229.3609 eV
Total Mermin free energy:         -192.1754820175 H        -5229.3609 eV
Force related energy:             -192.1754820175 H        -5229.3609 eV

Volume:                              0.937620E+04 au^3   0.138941E+04 A^3
Pressure:                            0.415016E-03 au     0.122102E+11 Pa
>> Charges saved for restart in charges.bin

total energy  -1.9217548E+02 H       energy change -1.2650685E-01 H
gradient norm  2.7653302E-01 H/a0    max. gradient  5.4395073E-02 H/a0
step length    4.1213547E-01 a0      max. step      9.1929888E-02 a0

--------------------------------------------------------------------------------

***  Geometry step: 3

 iSCC Total electronic   Diff electronic      SCC error    
    1   -0.19510159E+03    0.00000000E+00    0.65528816E-01
    2   -0.19485393E+03    0.24766058E+00    0.38270007E-01
    3   -0.19485611E+03   -0.21849110E-02    0.70950451E-02
    4   -0.19485671E+03   -0.59734886E-03    0.62786602E-03
    5   -0.19485672E+03   -0.73372305E-05    0.17442015E-03
    6   -0.19485672E+03   -0.33790678E-06    0.96601020E-04
    7   -0.19485672E+03   -0.11709744E-07    0.88729607E-05
    8   -0.19485672E+03   -0.15334081E-08    0.13297505E-05
    9   -0.19485672E+03   -0.94019015E-10    0.44337693E-06
   10   -0.19485672E+03   -0.12221335E-11    0.57855472E-07
   11   -0.19485672E+03   -0.56843419E-13    0.12904467E-07
   12   -0.19485672E+03    0.56843419E-13    0.42536104E-08

Total Energy:                     -192.2616162097 H        -5231.7048 eV
Extrapolated to 0K:               -192.2616162097 H        -5231.7048 eV
Total Mermin free energy:         -192.2616162097 H        -5231.7048 eV
Force related energy:             -192.2616162097 H        -5231.7048 eV

Volume:                              0.948905E+04 au^3   0.140613E+04 A^3
Pressure:                            0.281972E-03 au     0.829590E+10 Pa
>> Charges saved for restart in charges.bin

total energy  -1.9226162E+02 H       energy change -8.6134192E-02 H
gradient norm  2.1768540E-01 H/a0    max. gradient  1.1173036E-01 H/a0
step length    5.3788972E-01 a0      max. step      1.0742613E-01 a0

--------------------------------------------------------------------------------

***  Geometry step: 4

 iSCC Total electronic   Diff electronic      SCC error    
    1   -0.19485672E+03    0.00000000E+00    0.48438784E-01
    2   -0.19461360E+03    0.24312076E+00    0.26068772E-01
    3   -0.19461467E+03   -0.10724643E-02    0.43858873E-02
    4   -0.19461493E+03   -0.26216539E-03    0.61944697E-03
    5   -0.19461494E+03   -0.51118629E-05    0.20564322E-03
    6   -0.19461494E+03   -0.30890709E-06    0.10495121E-03
    7   -0.19461494E+03   -0.54656937E-08    0.76162735E-05
    8   -0.19461494E+03   -0.11104930E-08    0.17390600E-05
    9   -0.19461494E+03   -0.50533799E-10    0.34889843E-06
   10   -0.19461494E+03   -0.48316906E-12    0.95965609E-07
   11   -0.19461494E+03    0.00000000E+00    0.20628677E-07
   12   -0.19461494E+03   -0.85265128E-13    0.54446505E-08

Total Energy:                     -192.3062144114 H        -5232.9183 eV
Extrapolated to 0K:               -192.3062144114 H        -5232.9183 eV
Total Mermin free energy:         -192.3062144114 H        -5232.9183 eV
Force related energy:             -192.3062144114 H        -5232.9183 eV

Volume:                              0.960328E+04 au^3   0.142306E+04 A^3
Pressure:                            0.166251E-03 au     0.489126E+10 Pa
>> Charges saved for restart in charges.bin

total energy  -1.9230621E+02 H       energy change -4.4598202E-02 H
gradient norm  1.8349473E-01 H/a0    max. gradient  9.6926376E-02 H/a0
step length    4.8331044E-01 a0      max. step      1.0593224E-01 a0

--------------------------------------------------------------------------------

***  Geometry step: 5

 iSCC Total electronic   Diff electronic      SCC error    
    1   -0.19461494E+03    0.00000000E+00    0.26036754E-01
    2   -0.19447594E+03    0.13899573E+00    0.11869427E-01
    3   -0.19447638E+03   -0.43821154E-03    0.18764495E-02
    4   -0.19447650E+03   -0.11686213E-03    0.28222722E-03
    5   -0.19447650E+03   -0.16817743E-05    0.10006836E-03
    6   -0.19447650E+03   -0.66904306E-07    0.49806662E-04
    7   -0.19447650E+03   -0.20796449E-08    0.37346295E-05
    8   -0.19447650E+03   -0.24104452E-09    0.95025913E-06
    9   -0.19447650E+03   -0.12164492E-10    0.21869103E-06
   10   -0.19447650E+03   -0.22737368E-12    0.48962511E-07
   11   -0.19447650E+03   -0.85265128E-13    0.94128811E-08

Total Energy:                     -192.3309248550 H        -5233.5907 eV
Extrapolated to 0K:               -192.3309248550 H        -5233.5907 eV
Total Mermin free energy:         -192.3309248550 H        -5233.5907 eV
Force related energy:             -192.3309248550 H        -5233.5907 eV

Volume:                              0.965795E+04 au^3   0.143116E+04 A^3
Pressure:                            0.103341E-03 au     0.304038E+10 Pa
>> Charges saved for restart in charges.bin

total energy  -1.9233092E+02 H       energy change -2.4710444E-02 H
gradient norm  1.0801177E-01 H/a0    max. gradient  2.9709330E-02 H/a0
step length    3.3783654E-01 a0      max. step      5.8114311E-02 a0

--------------------------------------------------------------------------------

***  Geometry step: 6

 iSCC Total electronic   Diff electronic      SCC error    
    1   -0.19447650E+03    0.00000000E+00    0.14713190E-01
    2   -0.19436971E+03    0.10679521E+00    0.77342760E-02
    3   -0.19436999E+03   -0.28641807E-03    0.23513382E-02
    4   -0.19437006E+03   -0.66943109E-04    0.27052787E-03
    5   -0.19437006E+03   -0.84343066E-06    0.37238034E-04
    6   -0.19437006E+03   -0.84854491E-07    0.14588373E-04
    7   -0.19437006E+03   -0.91586116E-09    0.49527107E-05
    8   -0.19437006E+03   -0.11792167E-09    0.56630391E-06
    9   -0.19437006E+03   -0.40074610E-11    0.15756365E-06
   10   -0.19437006E+03   -0.25579538E-12    0.39898742E-07
   11   -0.19437006E+03    0.00000000E+00    0.72380280E-08

Total Energy:                     -192.3441870247 H        -5233.9516 eV
Extrapolated to 0K:               -192.3441870247 H        -5233.9516 eV
Total Mermin free energy:         -192.3441870247 H        -5233.9516 eV
Force related energy:             -192.3441870247 H        -5233.9516 eV

Volume:                              0.971227E+04 au^3   0.143921E+04 A^3
Pressure:                            0.545659E-04 au     0.160539E+10 Pa
>> Charges saved for restart in charges.bin

total energy  -1.9234419E+02 H       energy change -1.3262170E-02 H
gradient norm  7.3103940E-02 H/a0    max. gradient  1.4947805E-02 H/a0
step length    2.8246908E-01 a0      max. step      6.1290108E-02 a0

--------------------------------------------------------------------------------

***  Geometry step: 7

 iSCC Total electronic   Diff electronic      SCC error    
    1   -0.19437006E+03    0.00000000E+00    0.12611901E-01
    2   -0.19434034E+03    0.29723193E-01    0.75155114E-02
    3   -0.19434055E+03   -0.21423762E-03    0.18108150E-02
    4   -0.19434060E+03   -0.50371787E-04    0.33557471E-03
    5   -0.19434060E+03   -0.70718102E-06    0.70416741E-04
    6   -0.19434060E+03   -0.63936255E-07    0.27985115E-04
    7   -0.19434060E+03   -0.13205010E-08    0.52901667E-05
    8   -0.19434060E+03   -0.66933126E-10    0.62127194E-06
    9   -0.19434060E+03   -0.10629719E-10    0.17855746E-06
   10   -0.19434060E+03   -0.56843419E-13    0.22404020E-07
   11   -0.19434060E+03    0.00000000E+00    0.28331195E-08

Total Energy:                     -192.3513471039 H        -5234.1465 eV
Extrapolated to 0K:               -192.3513471039 H        -5234.1465 eV
Total Mermin free energy:         -192.3513471039 H        -5234.1465 eV
Force related energy:             -192.3513471039 H        -5234.1465 eV

Volume:                              0.972312E+04 au^3   0.144082E+04 A^3
Pressure:                            0.401168E-04 au     0.118028E+10 Pa
>> Charges saved for restart in charges.bin

total energy  -1.9235135E+02 H       energy change -7.1600792E-03 H
gradient norm  6.1223712E-02 H/a0    max. gradient  2.1251194E-02 H/a0
step length    2.1032679E-01 a0      max. step      4.6277650E-02 a0

--------------------------------------------------------------------------------

***  Geometry step: 8

 iSCC Total electronic   Diff electronic      SCC error    
    1   -0.19434060E+03    0.00000000E+00    0.16140122E-01
    2   -0.19434133E+03   -0.73324299E-03    0.96990970E-02
    3   -0.19434145E+03   -0.11818172E-03    0.17254916E-02
    4   -0.19434148E+03   -0.29168011E-04    0.21204529E-03
    5   -0.19434148E+03   -0.94415404E-06    0.76193602E-04
    6   -0.19434148E+03   -0.36642604E-07    0.16495574E-04
    7   -0.19434148E+03   -0.10358292E-08    0.39456118E-05
    8   -0.19434148E+03   -0.64972028E-10    0.56774528E-06
    9   -0.19434148E+03   -0.97770680E-11    0.15794604E-06
   10   -0.19434148E+03   -0.11368684E-12    0.18100795E-07
   11   -0.19434148E+03    0.85265128E-13    0.33549292E-08

Total Energy:                     -192.3559262774 H        -5234.2711 eV
Extrapolated to 0K:               -192.3559262774 H        -5234.2711 eV
Total Mermin free energy:         -192.3559262774 H        -5234.2711 eV
Force related energy:             -192.3559262774 H        -5234.2711 eV

Volume:                              0.972720E+04 au^3   0.144142E+04 A^3
Pressure:                            0.367896E-04 au     0.108239E+10 Pa
>> Charges saved for restart in charges.bin

total energy  -1.9235593E+02 H       energy change -4.5791735E-03 H
gradient norm  4.8298620E-02 H/a0    max. gradient  1.3372058E-02 H/a0
step length    1.7567657E-01 a0      max. step      3.2885441E-02 a0

--------------------------------------------------------------------------------

***  Geometry step: 9

 iSCC Total electronic   Diff electronic      SCC error    
    1   -0.19434148E+03    0.00000000E+00    0.89329383E-02
    2   -0.19436010E+03   -0.18614136E-01    0.53900774E-02
    3   -0.19436014E+03   -0.46490572E-04    0.85812837E-03
    4   -0.19436016E+03   -0.12683644E-04    0.16172003E-03
    5   -0.19436016E+03   -0.74731139E-06    0.53604406E-04
    6   -0.19436016E+03   -0.26093488E-07    0.95018550E-05
    7   -0.19436016E+03   -0.85850616E-09    0.26244903E-05
    8   -0.19436016E+03   -0.35328185E-10    0.40468983E-06
    9   -0.19436016E+03   -0.40358827E-11    0.63927477E-07
   10   -0.19436016E+03   -0.19895197E-12    0.11270141E-07
   11   -0.19436016E+03    0.00000000E+00    0.18010389E-08

Total Energy:                     -192.3589680043 H        -5234.3538 eV
Extrapolated to 0K:               -192.3589680043 H        -5234.3538 eV
Total Mermin free energy:         -192.3589680043 H        -5234.3538 eV
Force related energy:             -192.3589680043 H        -5234.3538 eV

Volume:                              0.972069E+04 au^3   0.144046E+04 A^3
Pressure:                            0.404104E-04 au     0.118891E+10 Pa
>> Charges saved for restart in charges.bin

total energy  -1.9235897E+02 H       energy change -3.0417269E-03 H
gradient norm  4.1889956E-02 H/a0    max. gradient  8.0338888E-03 H/a0
step length    1.4609455E-01 a0      max. step      2.6771148E-02 a0

--------------------------------------------------------------------------------

***  Geometry step: 10

 iSCC Total electronic   Diff electronic      SCC error    
    1   -0.19436016E+03    0.00000000E+00    0.10840239E-01
    2   -0.19437710E+03   -0.16943535E-01    0.52551256E-02
    3   -0.19437717E+03   -0.68849345E-04    0.13332415E-02
    4   -0.19437719E+03   -0.18401621E-04    0.16505664E-03
    5   -0.19437719E+03   -0.82265962E-06    0.30213475E-04
    6   -0.19437719E+03   -0.30013723E-07    0.86302904E-05
    7   -0.19437719E+03   -0.81249141E-09    0.21824113E-05
    8   -0.19437719E+03   -0.63494099E-10    0.32714794E-06
    9   -0.19437719E+03   -0.24726887E-11    0.59060725E-07
   10   -0.19437719E+03   -0.56843419E-13    0.16855414E-07
   11   -0.19437719E+03    0.56843419E-13    0.38998893E-08

Total Energy:                     -192.3621001466 H        -5234.4391 eV
Extrapolated to 0K:               -192.3621001466 H        -5234.4391 eV
Total Mermin free energy:         -192.3621001466 H        -5234.4391 eV
Force related energy:             -192.3621001466 H        -5234.4391 eV

Volume:                              0.971986E+04 au^3   0.144034E+04 A^3
Pressure:                            0.442330E-04 au     0.130138E+10 Pa
>> Charges saved for restart in charges.bin

total energy  -1.9236210E+02 H       energy change -3.1321423E-03 H
gradient norm  3.7866613E-02 H/a0    max. gradient  7.5529993E-03 H/a0
step length    1.6032476E-01 a0      max. step      3.0799505E-02 a0

--------------------------------------------------------------------------------

***  Geometry step: 11

 iSCC Total electronic   Diff electronic      SCC error    
    1   -0.19437719E+03    0.00000000E+00    0.90762327E-02
    2   -0.19437547E+03    0.17182268E-02    0.53852260E-02
    3   -0.19437554E+03   -0.70849918E-04    0.14334931E-02
    4   -0.19437556E+03   -0.17944676E-04    0.15376883E-03
    5   -0.19437556E+03   -0.58073977E-06    0.30162252E-04
    6   -0.19437556E+03   -0.27019752E-07    0.11307437E-04
    7   -0.19437556E+03   -0.44516923E-09    0.21059779E-05
    8   -0.19437556E+03   -0.41467274E-10    0.24295646E-06
    9   -0.19437556E+03   -0.14779289E-11    0.64961055E-07
   10   -0.19437556E+03   -0.11368684E-12    0.14229306E-07
   11   -0.19437556E+03    0.00000000E+00    0.22789464E-08

Total Energy:                     -192.3648209926 H        -5234.5131 eV
Extrapolated to 0K:               -192.3648209926 H        -5234.5131 eV
Total Mermin free energy:         -192.3648209926 H        -5234.5131 eV
Force related energy:             -192.3648209926 H        -5234.5131 eV

Volume:                              0.973165E+04 au^3   0.144208E+04 A^3
Pressure:                            0.402240E-04 au     0.118343E+10 Pa
>> Charges saved for restart in charges.bin

total energy  -1.9236482E+02 H       energy change -2.7208460E-03 H
gradient norm  3.9393680E-02 H/a0    max. gradient  1.3864705E-02 H/a0
step length    1.7581195E-01 a0      max. step      3.3987368E-02 a0

--------------------------------------------------------------------------------

***  Geometry step: 12

 iSCC Total electronic   Diff electronic      SCC error    
    1   -0.19437556E+03    0.00000000E+00    0.68759098E-02
    2   -0.19436200E+03    0.13555039E-01    0.42783485E-02
    3   -0.19436204E+03   -0.38496899E-04    0.11183031E-02
    4   -0.19436205E+03   -0.89448999E-05    0.15189595E-03
    5   -0.19436205E+03   -0.33767336E-06    0.42483678E-04
    6   -0.19436205E+03   -0.16451651E-07    0.13960482E-04
    7   -0.19436205E+03   -0.22606628E-09    0.20854385E-05
    8   -0.19436205E+03   -0.14892976E-10    0.31102694E-06
    9   -0.19436205E+03   -0.23874236E-11    0.82237282E-07
   10   -0.19436205E+03    0.00000000E+00    0.80664053E-08

Total Energy:                     -192.3669715130 H        -5234.5716 eV
Extrapolated to 0K:               -192.3669715130 H        -5234.5716 eV
Total Mermin free energy:         -192.3669715130 H        -5234.5716 eV
Force related energy:             -192.3669715130 H        -5234.5716 eV

Volume:                              0.975210E+04 au^3   0.144511E+04 A^3
Pressure:                            0.318836E-04 au     0.938048E+09 Pa
>> Charges saved for restart in charges.bin

total energy  -1.9236697E+02 H       energy change -2.1505204E-03 H
gradient norm  3.4160321E-02 H/a0    max. gradient  1.2049856E-02 H/a0
step length    1.6109573E-01 a0      max. step      3.0848132E-02 a0

--------------------------------------------------------------------------------

***  Geometry step: 13

 iSCC Total electronic   Diff electronic      SCC error    
    1   -0.19436205E+03    0.00000000E+00    0.46596260E-02
    2   -0.19434466E+03    0.17395333E-01    0.28555248E-02
    3   -0.19434468E+03   -0.20363148E-04    0.82639867E-03
    4   -0.19434468E+03   -0.42786986E-05    0.97161321E-04
    5   -0.19434468E+03   -0.15749541E-06    0.19199700E-04
    6   -0.19434468E+03   -0.10496933E-07    0.60591010E-05
    7   -0.19434468E+03   -0.27145575E-09    0.13976418E-05
    8   -0.19434468E+03   -0.10487611E-10    0.28013609E-06
    9   -0.19434468E+03   -0.96633812E-12    0.41676046E-07
   10   -0.19434468E+03   -0.85265128E-13    0.61946355E-08

Total Energy:                     -192.3684173058 H        -5234.6110 eV
Extrapolated to 0K:               -192.3684173058 H        -5234.6110 eV
Total Mermin free energy:         -192.3684173058 H        -5234.6110 eV
Force related energy:             -192.3684173058 H        -5234.6110 eV

Volume:                              0.977757E+04 au^3   0.144889E+04 A^3
Pressure:                            0.228685E-04 au     0.672813E+09 Pa
>> Charges saved for restart in charges.bin

total energy  -1.9236842E+02 H       energy change -1.4457927E-03 H
gradient norm  2.5581741E-02 H/a0    max. gradient  6.3780120E-03 H/a0
step length    1.3327899E-01 a0      max. step      2.5040250E-02 a0

--------------------------------------------------------------------------------

***  Geometry step: 14

 iSCC Total electronic   Diff electronic      SCC error    
    1   -0.19434468E+03    0.00000000E+00    0.45670894E-02
    2   -0.19433506E+03    0.96210540E-02    0.24985334E-02
    3   -0.19433508E+03   -0.20731727E-04    0.66497183E-03
    4   -0.19433509E+03   -0.45107195E-05    0.11691563E-03
    5   -0.19433509E+03   -0.92281425E-07    0.27286460E-04
    6   -0.19433509E+03   -0.80885343E-08    0.73821537E-05
    7   -0.19433509E+03   -0.26412295E-09    0.16620891E-05
    8   -0.19433509E+03   -0.79296569E-11    0.21043321E-06
    9   -0.19433509E+03   -0.88107299E-12    0.43781450E-07
   10   -0.19433509E+03   -0.56843419E-13    0.48172364E-08

Total Energy:                     -192.3694328051 H        -5234.6386 eV
Extrapolated to 0K:               -192.3694328051 H        -5234.6386 eV
Total Mermin free energy:         -192.3694328051 H        -5234.6386 eV
Force related energy:             -192.3694328051 H        -5234.6386 eV

Volume:                              0.979686E+04 au^3   0.145174E+04 A^3
Pressure:                            0.178290E-04 au     0.524548E+09 Pa
>> Charges saved for restart in charges.bin

total energy  -1.9236943E+02 H       energy change -1.0154993E-03 H
gradient norm  2.2335005E-02 H/a0    max. gradient  5.9958428E-03 H/a0
step length    9.8948810E-02 a0      max. step      2.1780575E-02 a0

--------------------------------------------------------------------------------

***  Geometry step: 15

 iSCC Total electronic   Diff electronic      SCC error    
    1   -0.19433509E+03    0.00000000E+00    0.84334231E-02
    2   -0.19432879E+03    0.62963689E-02    0.46479679E-02
    3   -0.19432882E+03   -0.29720711E-04    0.85704561E-03
    4   -0.19432883E+03   -0.69199949E-05    0.11499385E-03
    5   -0.19432883E+03   -0.11283825E-06    0.25733716E-04
    6   -0.19432883E+03   -0.85246370E-08    0.75241687E-05
    7   -0.19432883E+03   -0.20258994E-09    0.16554996E-05
    8   -0.19432883E+03   -0.77022833E-11    0.23001810E-06
    9   -0.19432883E+03   -0.19895197E-11    0.58814918E-07
   10   -0.19432883E+03   -0.85265128E-13    0.50309366E-08

Total Energy:                     -192.3703774433 H        -5234.6643 eV
Extrapolated to 0K:               -192.3703774433 H        -5234.6643 eV
Total Mermin free energy:         -192.3703774433 H        -5234.6643 eV
Force related energy:             -192.3703774433 H        -5234.6643 eV

Volume:                              0.981799E+04 au^3   0.145488E+04 A^3
Pressure:                            0.146931E-04 au     0.432287E+09 Pa
>> Charges saved for restart in charges.bin

total energy  -1.9237038E+02 H       energy change -9.4463819E-04 H
gradient norm  2.3223439E-02 H/a0    max. gradient  5.1144429E-03 H/a0
step length    1.0883923E-01 a0      max. step      2.3616548E-02 a0

--------------------------------------------------------------------------------

***  Geometry step: 16

 iSCC Total electronic   Diff electronic      SCC error    
    1   -0.19432883E+03    0.00000000E+00    0.70142518E-02
    2   -0.19432754E+03    0.12883108E-02    0.39361590E-02
    3   -0.19432755E+03   -0.14971636E-04    0.67901890E-03
    4   -0.19432756E+03   -0.37318416E-05    0.10908639E-03
    5   -0.19432756E+03   -0.84005933E-07    0.27229377E-04
    6   -0.19432756E+03   -0.71118507E-08    0.57731147E-05
    7   -0.19432756E+03   -0.15108981E-09    0.13238356E-05
    8   -0.19432756E+03   -0.53432814E-11    0.22227554E-06
    9   -0.19432756E+03   -0.12789769E-11    0.45912147E-07
   10   -0.19432756E+03   -0.56843419E-13    0.38716941E-08

Total Energy:                     -192.3711085513 H        -5234.6842 eV
Extrapolated to 0K:               -192.3711085513 H        -5234.6842 eV
Total Mermin free energy:         -192.3711085513 H        -5234.6842 eV
Force related energy:             -192.3711085513 H        -5234.6842 eV

Volume:                              0.983310E+04 au^3   0.145712E+04 A^3
Pressure:                            0.137014E-04 au     0.403110E+09 Pa
>> Charges saved for restart in charges.bin

total energy  -1.9237111E+02 H       energy change -7.3110802E-04 H
gradient norm  2.2915393E-02 H/a0    max. gradient  4.9960468E-03 H/a0
step length    9.4286757E-02 a0      max. step      1.9176961E-02 a0

--------------------------------------------------------------------------------

***  Geometry step: 17

 iSCC Total electronic   Diff electronic      SCC error    
    1   -0.19432756E+03    0.00000000E+00    0.61963253E-02
    2   -0.19432651E+03    0.10483323E-02    0.35028622E-02
    3   -0.19432652E+03   -0.12301322E-04    0.59916191E-03
    4   -0.19432652E+03   -0.28669071E-05    0.10449505E-03
    5   -0.19432652E+03   -0.88779956E-07    0.28873904E-04
    6   -0.19432652E+03   -0.62473759E-08    0.56905755E-05
    7   -0.19432652E+03   -0.15111823E-09    0.18886125E-05
    8   -0.19432652E+03   -0.76454398E-11    0.21948048E-06
    9   -0.19432652E+03   -0.14495072E-11    0.42385703E-07
   10   -0.19432652E+03    0.56843419E-13    0.60434990E-08

Total Energy:                     -192.3719961312 H        -5234.7084 eV
Extrapolated to 0K:               -192.3719961312 H        -5234.7084 eV
Total Mermin free energy:         -192.3719961312 H        -5234.7084 eV
Force related energy:             -192.3719961312 H        -5234.7084 eV

Volume:                              0.985337E+04 au^3   0.146012E+04 A^3
Pressure:                            0.124814E-04 au     0.367215E+09 Pa
>> Charges saved for restart in charges.bin

total energy  -1.9237200E+02 H       energy change -8.8757988E-04 H
gradient norm  2.1530847E-02 H/a0    max. gradient  4.7430259E-03 H/a0
step length    1.2801435E-01 a0      max. step      2.3309730E-02 a0

--------------------------------------------------------------------------------

***  Geometry step: 18

 iSCC Total electronic   Diff electronic      SCC error    
    1   -0.19432652E+03    0.00000000E+00    0.48499497E-02
    2   -0.19432672E+03   -0.19231731E-03    0.21133644E-02
    3   -0.19432673E+03   -0.13817421E-04    0.71131377E-03
    4   -0.19432673E+03   -0.26292896E-05    0.11180178E-03
    5   -0.19432673E+03   -0.58232104E-07    0.12956663E-04
    6   -0.19432673E+03   -0.74010131E-08    0.45583824E-05
    7   -0.19432673E+03   -0.98538067E-10    0.15244402E-05
    8   -0.19432673E+03   -0.24158453E-11    0.19670446E-06
    9   -0.19432673E+03   -0.51159077E-12    0.49554731E-07
   10   -0.19432673E+03    0.00000000E+00    0.70210548E-08

Total Energy:                     -192.3728251864 H        -5234.7309 eV
Extrapolated to 0K:               -192.3728251864 H        -5234.7309 eV
Total Mermin free energy:         -192.3728251864 H        -5234.7309 eV
Force related energy:             -192.3728251864 H        -5234.7309 eV

Volume:                              0.987101E+04 au^3   0.146273E+04 A^3
Pressure:                            0.111842E-04 au     0.329049E+09 Pa
>> Charges saved for restart in charges.bin

total energy  -1.9237283E+02 H       energy change -8.2905523E-04 H
gradient norm  2.0646745E-02 H/a0    max. gradient  3.7702445E-03 H/a0
step length    1.2690689E-01 a0      max. step      2.1492809E-02 a0

--------------------------------------------------------------------------------

***  Geometry step: 19

 iSCC Total electronic   Diff electronic      SCC error    
    1   -0.19432673E+03    0.00000000E+00    0.47820917E-02
    2   -0.19432631E+03    0.42327090E-03    0.21918358E-02
    3   -0.19432633E+03   -0.21136428E-04    0.66052819E-03
    4   -0.19432634E+03   -0.43753364E-05    0.10508202E-03
    5   -0.19432634E+03   -0.79592667E-07    0.27889765E-04
    6   -0.19432634E+03   -0.72511739E-08    0.80244956E-05
    7   -0.19432634E+03   -0.16169110E-09    0.13188783E-05
    8   -0.19432634E+03   -0.58548721E-11    0.27472105E-06
    9   -0.19432634E+03   -0.12789769E-11    0.58031976E-07
   10   -0.19432634E+03   -0.11368684E-12    0.58123222E-08

Total Energy:                     -192.3735524606 H        -5234.7507 eV
Extrapolated to 0K:               -192.3735524606 H        -5234.7507 eV
Total Mermin free energy:         -192.3735524606 H        -5234.7507 eV
Force related energy:             -192.3735524606 H        -5234.7507 eV

Volume:                              0.988871E+04 au^3   0.146536E+04 A^3
Pressure:                            0.918410E-05 au     0.270206E+09 Pa
>> Charges saved for restart in charges.bin

total energy  -1.9237355E+02 H       energy change -7.2727413E-04 H
gradient norm  1.9379201E-02 H/a0    max. gradient  4.7888865E-03 H/a0
step length    1.2826023E-01 a0      max. step      2.2547579E-02 a0

--------------------------------------------------------------------------------

***  Geometry step: 20

 iSCC Total electronic   Diff electronic      SCC error    
    1   -0.19432634E+03    0.00000000E+00    0.52124218E-02
    2   -0.19432597E+03    0.36508220E-03    0.29955603E-02
    3   -0.19432598E+03   -0.97951594E-05    0.51536522E-03
    4   -0.19432598E+03   -0.24736418E-05    0.95698897E-04
    5   -0.19432598E+03   -0.57641699E-07    0.21751642E-04
    6   -0.19432598E+03   -0.33437573E-08    0.39791496E-05
    7   -0.19432598E+03   -0.90921048E-10    0.89718244E-06
    8   -0.19432598E+03   -0.38653525E-11    0.26880358E-06
    9   -0.19432598E+03   -0.73896445E-12    0.48879827E-07
   10   -0.19432598E+03   -0.17053026E-12    0.34938825E-08

Total Energy:                     -192.3740242412 H        -5234.7635 eV
Extrapolated to 0K:               -192.3740242412 H        -5234.7635 eV
Total Mermin free energy:         -192.3740242412 H        -5234.7635 eV
Force related energy:             -192.3740242412 H        -5234.7635 eV

Volume:                              0.990005E+04 au^3   0.146704E+04 A^3
Pressure:                            0.772172E-05 au     0.227181E+09 Pa
>> Charges saved for restart in charges.bin

total energy  -1.9237402E+02 H       energy change -4.7178063E-04 H
gradient norm  1.6557062E-02 H/a0    max. gradient  4.0109221E-03 H/a0
step length    8.5388428E-02 a0      max. step      1.6439882E-02 a0

--------------------------------------------------------------------------------

***  Geometry step: 21

 iSCC Total electronic   Diff electronic      SCC error    
    1   -0.19432598E+03    0.00000000E+00    0.50039123E-02
    2   -0.19432510E+03    0.88553879E-03    0.28995301E-02
    3   -0.19432510E+03   -0.62489852E-05    0.45255147E-03
    4   -0.19432511E+03   -0.15980636E-05    0.85281890E-04
    5   -0.19432511E+03   -0.49217277E-07    0.18725941E-04
    6   -0.19432511E+03   -0.18664821E-08    0.27516030E-05
    7   -0.19432511E+03   -0.65938366E-10    0.82921467E-06
    8   -0.19432511E+03   -0.31832315E-11    0.27846266E-06
    9   -0.19432511E+03   -0.62527761E-12    0.46624566E-07
   10   -0.19432511E+03   -0.28421709E-13    0.38244532E-08

Total Energy:                     -192.3743963640 H        -5234.7737 eV
Extrapolated to 0K:               -192.3743963640 H        -5234.7737 eV
Total Mermin free energy:         -192.3743963640 H        -5234.7737 eV
Force related energy:             -192.3743963640 H        -5234.7737 eV

Volume:                              0.991032E+04 au^3   0.146856E+04 A^3
Pressure:                            0.588803E-05 au     0.173232E+09 Pa
>> Charges saved for restart in charges.bin

total energy  -1.9237440E+02 H       energy change -3.7212276E-04 H
gradient norm  1.2815811E-02 H/a0    max. gradient  2.3300205E-03 H/a0
step length    7.3876388E-02 a0      max. step      1.4551499E-02 a0

--------------------------------------------------------------------------------

***  Geometry step: 22

 iSCC Total electronic   Diff electronic      SCC error    
    1   -0.19432511E+03    0.00000000E+00    0.20049701E-02
    2   -0.19432581E+03   -0.70277856E-03    0.10900641E-02
    3   -0.19432581E+03   -0.46250754E-05    0.35599741E-03
    4   -0.19432581E+03   -0.10256835E-05    0.64499731E-04
    5   -0.19432581E+03   -0.17128428E-07    0.14148853E-04
    6   -0.19432581E+03   -0.11930013E-08    0.26268162E-05
    7   -0.19432581E+03   -0.35498715E-10    0.54859207E-06
    8   -0.19432581E+03   -0.11368684E-11    0.19655578E-06
    9   -0.19432581E+03   -0.11368684E-12    0.28081560E-07
   10   -0.19432581E+03   -0.85265128E-13    0.28332039E-08

Total Energy:                     -192.3746448601 H        -5234.7804 eV
Extrapolated to 0K:               -192.3746448601 H        -5234.7804 eV
Total Mermin free energy:         -192.3746448601 H        -5234.7804 eV
Force related energy:             -192.3746448601 H        -5234.7804 eV

Volume:                              0.991776E+04 au^3   0.146966E+04 A^3
Pressure:                            0.508056E-05 au     0.149475E+09 Pa
>> Charges saved for restart in charges.bin

total energy  -1.9237464E+02 H       energy change -2.4849610E-04 H
gradient norm  1.1336379E-02 H/a0    max. gradient  2.4958275E-03 H/a0
step length    5.3446865E-02 a0      max. step      1.0391058E-02 a0

--------------------------------------------------------------------------------

***  Geometry step: 23

 iSCC Total electronic   Diff electronic      SCC error    
    1   -0.19432581E+03    0.00000000E+00    0.25613928E-02
    2   -0.19432821E+03   -0.23925218E-02    0.10915264E-02
    3   -0.19432821E+03   -0.58038913E-05    0.26035621E-03
    4   -0.19432821E+03   -0.13186151E-05    0.54513869E-04
    5   -0.19432821E+03   -0.13899921E-07    0.83699825E-05
    6   -0.19432821E+03   -0.10113297E-08    0.19662524E-05
    7   -0.19432821E+03   -0.47293724E-10    0.49194470E-06
    8   -0.19432821E+03   -0.11084467E-11    0.15127969E-06
    9   -0.19432821E+03   -0.22737368E-12    0.23933211E-07
   10   -0.19432821E+03    0.28421709E-13    0.33567531E-08

Total Energy:                     -192.3748486602 H        -5234.7860 eV
Extrapolated to 0K:               -192.3748486602 H        -5234.7860 eV
Total Mermin free energy:         -192.3748486602 H        -5234.7860 eV
Force related energy:             -192.3748486602 H        -5234.7860 eV

Volume:                              0.992433E+04 au^3   0.147063E+04 A^3
Pressure:                            0.506750E-05 au     0.149091E+09 Pa
>> Charges saved for restart in charges.bin

total energy  -1.9237485E+02 H       energy change -2.0380014E-04 H
gradient norm  1.1106333E-02 H/a0    max. gradient  2.7051399E-03 H/a0
step length    5.1001045E-02 a0      max. step      9.5027772E-03 a0

--------------------------------------------------------------------------------

***  Geometry step: 24

 iSCC Total electronic   Diff electronic      SCC error    
    1   -0.19432821E+03    0.00000000E+00    0.24790121E-02
    2   -0.19433126E+03   -0.30473992E-02    0.13528132E-02
    3   -0.19433126E+03   -0.38983559E-05    0.22751687E-03
    4   -0.19433127E+03   -0.94063438E-06    0.34115371E-04
    5   -0.19433127E+03   -0.16952612E-07    0.11491672E-04
    6   -0.19433127E+03   -0.82289375E-09    0.12558239E-05
    7   -0.19433127E+03   -0.34617642E-10    0.43573600E-06
    8   -0.19433127E+03   -0.96633812E-12    0.10983096E-06
    9   -0.19433127E+03   -0.22737368E-12    0.21856804E-07
   10   -0.19433127E+03    0.28421709E-13    0.26032234E-08

Total Energy:                     -192.3750114389 H        -5234.7904 eV
Extrapolated to 0K:               -192.3750114389 H        -5234.7904 eV
Total Mermin free energy:         -192.3750114389 H        -5234.7904 eV
Force related energy:             -192.3750114389 H        -5234.7904 eV

Volume:                              0.993040E+04 au^3   0.147153E+04 A^3
Pressure:                            0.568986E-05 au     0.167402E+09 Pa
>> Charges saved for restart in charges.bin

total energy  -1.9237501E+02 H       energy change -1.6277872E-04 H
gradient norm  1.0333027E-02 H/a0    max. gradient  1.9669681E-03 H/a0
step length    4.8487359E-02 a0      max. step      9.6177294E-03 a0

--------------------------------------------------------------------------------

***  Geometry step: 25

 iSCC Total electronic   Diff electronic      SCC error    
    1   -0.19433127E+03    0.00000000E+00    0.22982821E-02
    2   -0.19433322E+03   -0.19514870E-02    0.12799490E-02
    3   -0.19433322E+03   -0.23049638E-05    0.21738040E-03
    4   -0.19433322E+03   -0.57400885E-06    0.24711390E-04
    5   -0.19433322E+03   -0.15190665E-07    0.88594522E-05
    6   -0.19433322E+03   -0.57767124E-09    0.86443648E-06
    7   -0.19433322E+03   -0.18758328E-10    0.31563845E-06
    8   -0.19433322E+03   -0.79580786E-12    0.10576762E-06
    9   -0.19433322E+03   -0.11368684E-12    0.17384072E-07
   10   -0.19433322E+03   -0.28421709E-13    0.19243487E-08

Total Energy:                     -192.3751608338 H        -5234.7945 eV
Extrapolated to 0K:               -192.3751608338 H        -5234.7945 eV
Total Mermin free energy:         -192.3751608338 H        -5234.7945 eV
Force related energy:             -192.3751608338 H        -5234.7945 eV

Volume:                              0.993716E+04 au^3   0.147254E+04 A^3
Pressure:                            0.596149E-05 au     0.175393E+09 Pa
>> Charges saved for restart in charges.bin

total energy  -1.9237516E+02 H       energy change -1.4939488E-04 H
gradient norm  9.2588427E-03 H/a0    max. gradient  2.0331359E-03 H/a0
step length    4.8337323E-02 a0      max. step      9.7746927E-03 a0

--------------------------------------------------------------------------------

***  Geometry step: 26

 iSCC Total electronic   Diff electronic      SCC error    
    1   -0.19433322E+03    0.00000000E+00    0.19629080E-02
    2   -0.19433355E+03   -0.32834121E-03    0.92654563E-03
    3   -0.19433355E+03   -0.25497090E-05    0.21980228E-03
    4   -0.19433355E+03   -0.63386446E-06    0.27056326E-04
    5   -0.19433355E+03   -0.14570418E-07    0.86815515E-05
    6   -0.19433355E+03   -0.69309181E-09    0.13309774E-05
    7   -0.19433355E+03   -0.19042545E-10    0.26490424E-06
    8   -0.19433355E+03   -0.65369932E-12    0.97033033E-07
    9   -0.19433355E+03   -0.85265128E-13    0.16301102E-07
   10   -0.19433355E+03    0.56843419E-13    0.20409994E-08

Total Energy:                     -192.3753273075 H        -5234.7990 eV
Extrapolated to 0K:               -192.3753273075 H        -5234.7990 eV
Total Mermin free energy:         -192.3753273075 H        -5234.7990 eV
Force related energy:             -192.3753273075 H        -5234.7990 eV

Volume:                              0.994594E+04 au^3   0.147384E+04 A^3
Pressure:                            0.563848E-05 au     0.165890E+09 Pa
>> Charges saved for restart in charges.bin

total energy  -1.9237533E+02 H       energy change -1.6647371E-04 H
gradient norm  1.0051171E-02 H/a0    max. gradient  2.6745864E-03 H/a0
step length    5.6737622E-02 a0      max. step      1.1348577E-02 a0

--------------------------------------------------------------------------------

***  Geometry step: 27

 iSCC Total electronic   Diff electronic      SCC error    
    1   -0.19433355E+03    0.00000000E+00    0.19504905E-02
    2   -0.19433180E+03    0.17512603E-02    0.99327626E-03
    3   -0.19433180E+03   -0.33840474E-05    0.28847459E-03
    4   -0.19433180E+03   -0.81776446E-06    0.28707172E-04
    5   -0.19433180E+03   -0.15144337E-07    0.50759665E-05
    6   -0.19433180E+03   -0.90770413E-09    0.13647006E-05
    7   -0.19433180E+03   -0.16541435E-10    0.36450058E-06
    8   -0.19433180E+03   -0.59685590E-12    0.95530895E-07
    9   -0.19433180E+03    0.28421709E-13    0.17229277E-07
   10   -0.19433180E+03   -0.56843419E-13    0.27506699E-08

Total Energy:                     -192.3755193531 H        -5234.8042 eV
Extrapolated to 0K:               -192.3755193531 H        -5234.8042 eV
Total Mermin free energy:         -192.3755193531 H        -5234.8042 eV
Force related energy:             -192.3755193531 H        -5234.8042 eV

Volume:                              0.995755E+04 au^3   0.147556E+04 A^3
Pressure:                            0.427331E-05 au     0.125725E+09 Pa
>> Charges saved for restart in charges.bin

total energy  -1.9237552E+02 H       energy change -1.9204559E-04 H
gradient norm  1.2280432E-02 H/a0    max. gradient  3.7585831E-03 H/a0
step length    7.2865617E-02 a0      max. step      1.4775514E-02 a0

--------------------------------------------------------------------------------

***  Geometry step: 28

 iSCC Total electronic   Diff electronic      SCC error    
    1   -0.19433180E+03    0.00000000E+00    0.19313070E-02
    2   -0.19432893E+03    0.28740257E-02    0.10597181E-02
    3   -0.19432893E+03   -0.34979518E-05    0.30906804E-03
    4   -0.19432893E+03   -0.79123939E-06    0.36725253E-04
    5   -0.19432893E+03   -0.16900430E-07    0.67142457E-05
    6   -0.19432893E+03   -0.11845884E-08    0.17037544E-05
    7   -0.19432893E+03   -0.13244517E-10    0.48447065E-06
    8   -0.19432893E+03   -0.28421709E-12    0.89075844E-07
    9   -0.19432893E+03   -0.85265128E-13    0.25088874E-07
   10   -0.19432893E+03    0.85265128E-13    0.25769893E-08

Total Energy:                     -192.3757274001 H        -5234.8099 eV
Extrapolated to 0K:               -192.3757274001 H        -5234.8099 eV
Total Mermin free energy:         -192.3757274001 H        -5234.8099 eV
Force related energy:             -192.3757274001 H        -5234.8099 eV

Volume:                              0.997022E+04 au^3   0.147743E+04 A^3
Pressure:                            0.247819E-05 au     0.729107E+08 Pa
>> Charges saved for restart in charges.bin

total energy  -1.9237573E+02 H       energy change -2.0804696E-04 H
gradient norm  1.2739036E-02 H/a0    max. gradient  3.1351994E-03 H/a0
step length    8.2359833E-02 a0      max. step      1.8096440E-02 a0

--------------------------------------------------------------------------------

***  Geometry step: 29

 iSCC Total electronic   Diff electronic      SCC error    
    1   -0.19432893E+03    0.00000000E+00    0.19213709E-02
    2   -0.19432598E+03    0.29500102E-02    0.99375344E-03
    3   -0.19432599E+03   -0.35880355E-05    0.30479456E-03
    4   -0.19432599E+03   -0.79758121E-06    0.35144054E-04
    5   -0.19432599E+03   -0.21994651E-07    0.87151180E-05
    6   -0.19432599E+03   -0.14689761E-08    0.16256115E-05
    7   -0.19432599E+03   -0.33452352E-10    0.44578232E-06
    8   -0.19432599E+03   -0.71054274E-12    0.10221228E-06
    9   -0.19432599E+03   -0.85265128E-13    0.16589541E-07
   10   -0.19432599E+03    0.28421709E-13    0.30652512E-08

Total Energy:                     -192.3759386505 H        -5234.8156 eV
Extrapolated to 0K:               -192.3759386505 H        -5234.8156 eV
Total Mermin free energy:         -192.3759386505 H        -5234.8156 eV
Force related energy:             -192.3759386505 H        -5234.8156 eV

Volume:                              0.998232E+04 au^3   0.147923E+04 A^3
Pressure:                            0.404404E-06 au     0.118980E+08 Pa
>> Charges saved for restart in charges.bin

total energy  -1.9237594E+02 H       energy change -2.1125049E-04 H
gradient norm  1.0825327E-02 H/a0    max. gradient  2.2974243E-03 H/a0
step length    8.8447196E-02 a0      max. step      2.0185707E-02 a0

--------------------------------------------------------------------------------

***  Geometry step: 30

 iSCC Total electronic   Diff electronic      SCC error    
    1   -0.19432599E+03    0.00000000E+00    0.20496012E-02
    2   -0.19432584E+03    0.14511494E-03    0.78779586E-03
    3   -0.19432585E+03   -0.36483704E-05    0.24549357E-03
    4   -0.19432585E+03   -0.84948127E-06    0.33047060E-04
    5   -0.19432585E+03   -0.19766361E-07    0.82256566E-05
    6   -0.19432585E+03   -0.15482442E-08    0.11857364E-05
    7   -0.19432585E+03   -0.45332627E-10    0.38027215E-06
    8   -0.19432585E+03   -0.82422957E-12    0.87986058E-07
    9   -0.19432585E+03    0.11368684E-12    0.12460937E-07
   10   -0.19432585E+03   -0.56843419E-13    0.32647960E-08

Total Energy:                     -192.3761167820 H        -5234.8205 eV
Extrapolated to 0K:               -192.3761167820 H        -5234.8205 eV
Total Mermin free energy:         -192.3761167820 H        -5234.8205 eV
Force related energy:             -192.3761167820 H        -5234.8205 eV

Volume:                              0.998975E+04 au^3   0.148033E+04 A^3
Pressure:                           -0.602843E-06 au    -0.177363E+08 Pa
>> Charges saved for restart in charges.bin

total energy  -1.9237612E+02 H       energy change -1.7813147E-04 H
gradient norm  9.6934206E-03 H/a0    max. gradient  1.9840605E-03 H/a0
step length    7.6984094E-02 a0      max. step      1.7269469E-02 a0

--------------------------------------------------------------------------------

***  Geometry step: 31

 iSCC Total electronic   Diff electronic      SCC error    
    1   -0.19432585E+03    0.00000000E+00    0.17111571E-02
    2   -0.19432814E+03   -0.22897692E-02    0.69974249E-03
    3   -0.19432814E+03   -0.43845455E-05    0.24192084E-03
    4   -0.19432814E+03   -0.10118663E-05    0.36892328E-04
    5   -0.19432814E+03   -0.13287632E-07    0.59041639E-05
    6   -0.19432814E+03   -0.12475709E-08    0.69044404E-06
    7   -0.19432814E+03   -0.31178615E-10    0.27579294E-06
    8   -0.19432814E+03   -0.79580786E-12    0.69824995E-07
    9   -0.19432814E+03   -0.56843419E-13    0.12719359E-07
   10   -0.19432814E+03    0.85265128E-13    0.18167392E-08

Total Energy:                     -192.3762818254 H        -5234.8250 eV
Extrapolated to 0K:               -192.3762818254 H        -5234.8250 eV
Total Mermin free energy:         -192.3762818254 H        -5234.8250 eV
Force related energy:             -192.3762818254 H        -5234.8250 eV

Volume:                              0.999294E+04 au^3   0.148080E+04 A^3
Pressure:                           -0.395121E-06 au    -0.116248E+08 Pa
>> Charges saved for restart in charges.bin

total energy  -1.9237628E+02 H       energy change -1.6504337E-04 H
gradient norm  1.0772101E-02 H/a0    max. gradient  3.2108965E-03 H/a0
step length    6.6386092E-02 a0      max. step      1.3763247E-02 a0

--------------------------------------------------------------------------------

***  Geometry step: 32

 iSCC Total electronic   Diff electronic      SCC error    
    1   -0.19432814E+03    0.00000000E+00    0.19310205E-02
    2   -0.19433226E+03   -0.41178621E-02    0.86961006E-03
    3   -0.19433227E+03   -0.46461923E-05    0.23682335E-03
    4   -0.19433227E+03   -0.10596573E-05    0.41668830E-04
    5   -0.19433227E+03   -0.10501680E-07    0.65143553E-05
    6   -0.19433227E+03   -0.11050076E-08    0.17145123E-05
    7   -0.19433227E+03   -0.16484591E-10    0.37056828E-06
    8   -0.19433227E+03   -0.31263880E-12    0.68007626E-07
    9   -0.19433227E+03   -0.28421709E-13    0.13886453E-07
   10   -0.19433227E+03   -0.56843419E-13    0.21220758E-08

Total Energy:                     -192.3764663022 H        -5234.8300 eV
Extrapolated to 0K:               -192.3764663022 H        -5234.8300 eV
Total Mermin free energy:         -192.3764663022 H        -5234.8300 eV
Force related energy:             -192.3764663022 H        -5234.8300 eV

Volume:                              0.999422E+04 au^3   0.148099E+04 A^3
Pressure:                            0.789048E-06 au     0.232146E+08 Pa
>> Charges saved for restart in charges.bin

total energy  -1.9237647E+02 H       energy change -1.8447687E-04 H
gradient norm  1.2241648E-02 H/a0    max. gradient  3.0233505E-03 H/a0
step length    7.7380346E-02 a0      max. step      1.6129159E-02 a0

--------------------------------------------------------------------------------

***  Geometry step: 33

 iSCC Total electronic   Diff electronic      SCC error    
    1   -0.19433227E+03    0.00000000E+00    0.19260648E-02
    2   -0.19433585E+03   -0.35801823E-02    0.90993339E-03
    3   -0.19433585E+03   -0.36591182E-05    0.23444024E-03
    4   -0.19433585E+03   -0.84703436E-06    0.36981334E-04
    5   -0.19433585E+03   -0.11635649E-07    0.53764846E-05
    6   -0.19433585E+03   -0.10850272E-08    0.14455890E-05
    7   -0.19433585E+03   -0.16825652E-10    0.42879426E-06
    8   -0.19433585E+03   -0.34106051E-12    0.63263199E-07
    9   -0.19433585E+03    0.00000000E+00    0.15795312E-07
   10   -0.19433585E+03   -0.28421709E-13    0.32882426E-08

Total Energy:                     -192.3766782080 H        -5234.8358 eV
Extrapolated to 0K:               -192.3766782080 H        -5234.8358 eV
Total Mermin free energy:         -192.3766782080 H        -5234.8358 eV
Force related energy:             -192.3766782080 H        -5234.8358 eV

Volume:                              0.999597E+04 au^3   0.148125E+04 A^3
Pressure:                            0.212040E-05 au     0.623844E+08 Pa
>> Charges saved for restart in charges.bin

total energy  -1.9237668E+02 H       energy change -2.1190578E-04 H
gradient norm  1.2545429E-02 H/a0    max. gradient  2.6878736E-03 H/a0
step length    9.6484806E-02 a0      max. step      2.0293598E-02 a0

--------------------------------------------------------------------------------

***  Geometry step: 34

 iSCC Total electronic   Diff electronic      SCC error    
    1   -0.19433585E+03    0.00000000E+00    0.18990647E-02
    2   -0.19433776E+03   -0.19055883E-02    0.11294794E-02
    3   -0.19433776E+03   -0.29688455E-05    0.31725298E-03
    4   -0.19433776E+03   -0.68663806E-06    0.33788314E-04
    5   -0.19433776E+03   -0.19169249E-07    0.54959487E-05
    6   -0.19433776E+03   -0.12717010E-08    0.15947965E-05
    7   -0.19433776E+03   -0.26801672E-10    0.61135049E-06
    8   -0.19433776E+03   -0.68212103E-12    0.76892016E-07
    9   -0.19433776E+03   -0.56843419E-13    0.17711633E-07
   10   -0.19433776E+03    0.00000000E+00    0.34619814E-08

Total Energy:                     -192.3769208726 H        -5234.8424 eV
Extrapolated to 0K:               -192.3769208726 H        -5234.8424 eV
Total Mermin free energy:         -192.3769208726 H        -5234.8424 eV
Force related energy:             -192.3769208726 H        -5234.8424 eV

Volume:                              0.999876E+04 au^3   0.148166E+04 A^3
Pressure:                            0.276088E-05 au     0.812280E+08 Pa
>> Charges saved for restart in charges.bin

total energy  -1.9237692E+02 H       energy change -2.4266461E-04 H
gradient norm  1.1350111E-02 H/a0    max. gradient  2.6527894E-03 H/a0
step length    1.2101421E-01 a0      max. step      2.5787833E-02 a0

--------------------------------------------------------------------------------

***  Geometry step: 35

 iSCC Total electronic   Diff electronic      SCC error    
    1   -0.19433776E+03    0.00000000E+00    0.21199218E-02
    2   -0.19433766E+03    0.99185633E-04    0.10804100E-02
    3   -0.19433767E+03   -0.34009429E-05    0.29539730E-03
    4   -0.19433767E+03   -0.84810759E-06    0.36340108E-04
    5   -0.19433767E+03   -0.23759952E-07    0.11023406E-04
    6   -0.19433767E+03   -0.13070860E-08    0.20979754E-05
    7   -0.19433767E+03   -0.35129233E-10    0.50267864E-06
    8   -0.19433767E+03   -0.73896445E-12    0.11370856E-06
    9   -0.19433767E+03   -0.19895197E-12    0.16552173E-07
   10   -0.19433767E+03    0.28421709E-13    0.27203013E-08

Total Energy:                     -192.3771435013 H        -5234.8484 eV
Extrapolated to 0K:               -192.3771435013 H        -5234.8484 eV
Total Mermin free energy:         -192.3771435013 H        -5234.8484 eV
Force related energy:             -192.3771435013 H        -5234.8484 eV

Volume:                              0.100020E+05 au^3   0.148214E+04 A^3
Pressure:                            0.240942E-05 au     0.708876E+08 Pa
>> Charges saved for restart in charges.bin

total energy  -1.9237714E+02 H       energy change -2.2262864E-04 H
gradient norm  1.0836795E-02 H/a0    max. gradient  1.9958631E-03 H/a0
step length    1.2000111E-01 a0      max. step      2.5977079E-02 a0

--------------------------------------------------------------------------------

***  Geometry step: 36

 iSCC Total electronic   Diff electronic      SCC error    
    1   -0.19433767E+03    0.00000000E+00    0.27583428E-02
    2   -0.19433759E+03    0.74092901E-04    0.15663981E-02
    3   -0.19433760E+03   -0.36067393E-05    0.28230376E-03
    4   -0.19433760E+03   -0.91394347E-06    0.32037449E-04
    5   -0.19433760E+03   -0.22880585E-07    0.13836846E-04
    6   -0.19433760E+03   -0.10987264E-08    0.20742236E-05
    7   -0.19433760E+03   -0.29075409E-10    0.40018878E-06
    8   -0.19433760E+03   -0.56843419E-12    0.11371160E-06
    9   -0.19433760E+03   -0.22737368E-12    0.17137293E-07
   10   -0.19433760E+03    0.85265128E-13    0.20560975E-08

Total Energy:                     -192.3773341507 H        -5234.8536 eV
Extrapolated to 0K:               -192.3773341507 H        -5234.8536 eV
Total Mermin free energy:         -192.3773341507 H        -5234.8536 eV
Force related energy:             -192.3773341507 H        -5234.8536 eV

Volume:                              0.100042E+05 au^3   0.148247E+04 A^3
Pressure:                            0.206696E-05 au     0.608119E+08 Pa
>> Charges saved for restart in charges.bin

total energy  -1.9237733E+02 H       energy change -1.9064942E-04 H
gradient norm  1.1113330E-02 H/a0    max. gradient  2.6284365E-03 H/a0
step length    1.0288047E-01 a0      max. step      2.2265201E-02 a0

--------------------------------------------------------------------------------

***  Geometry step: 37

 iSCC Total electronic   Diff electronic      SCC error    
    1   -0.19433760E+03    0.00000000E+00    0.28529493E-02
    2   -0.19433768E+03   -0.85093936E-04    0.16286996E-02
    3   -0.19433769E+03   -0.32724551E-05    0.30956679E-03
    4   -0.19433769E+03   -0.82614048E-06    0.37150102E-04
    5   -0.19433769E+03   -0.18914307E-07    0.13322219E-04
    6   -0.19433769E+03   -0.10583960E-08    0.17220091E-05
    7   -0.19433769E+03   -0.23021585E-10    0.34789321E-06
    8   -0.19433769E+03   -0.48316906E-12    0.84603643E-07
    9   -0.19433769E+03   -0.17053026E-12    0.14980358E-07
   10   -0.19433769E+03   -0.85265128E-13    0.17461472E-08

Total Energy:                     -192.3775069404 H        -5234.8583 eV
Extrapolated to 0K:               -192.3775069404 H        -5234.8583 eV
Total Mermin free energy:         -192.3775069404 H        -5234.8583 eV
Force related energy:             -192.3775069404 H        -5234.8583 eV

Volume:                              0.100068E+05 au^3   0.148286E+04 A^3
Pressure:                            0.183291E-05 au     0.539261E+08 Pa
>> Charges saved for restart in charges.bin

total energy  -1.9237751E+02 H       energy change -1.7278974E-04 H
gradient norm  1.0368308E-02 H/a0    max. gradient  2.5666328E-03 H/a0
step length    9.3086522E-02 a0      max. step      1.9634978E-02 a0

--------------------------------------------------------------------------------

***  Geometry step: 38

 iSCC Total electronic   Diff electronic      SCC error    
    1   -0.19433769E+03    0.00000000E+00    0.21094936E-02
    2   -0.19433790E+03   -0.21365406E-03    0.11189782E-02
    3   -0.19433790E+03   -0.24222841E-05    0.25113569E-03
    4   -0.19433790E+03   -0.59000607E-06    0.36627123E-04
    5   -0.19433790E+03   -0.10829979E-07    0.84799732E-05
    6   -0.19433790E+03   -0.78296125E-09    0.18137747E-05
    7   -0.19433790E+03   -0.16740387E-10    0.41386563E-06
    8   -0.19433790E+03   -0.56843419E-12    0.77827572E-07
    9   -0.19433790E+03   -0.85265128E-13    0.16320717E-07
   10   -0.19433790E+03    0.00000000E+00    0.18738238E-08

Total Energy:                     -192.3776533038 H        -5234.8623 eV
Extrapolated to 0K:               -192.3776533038 H        -5234.8623 eV
Total Mermin free energy:         -192.3776533038 H        -5234.8623 eV
Force related energy:             -192.3776533038 H        -5234.8623 eV

Volume:                              0.100102E+05 au^3   0.148337E+04 A^3
Pressure:                            0.131318E-05 au     0.386350E+08 Pa
>> Charges saved for restart in charges.bin

total energy  -1.9237765E+02 H       energy change -1.4636334E-04 H
gradient norm  8.8627806E-03 H/a0    max. gradient  1.7401025E-03 H/a0
step length    8.1562341E-02 a0      max. step      1.6552974E-02 a0

--------------------------------------------------------------------------------

***  Geometry step: 39

 iSCC Total electronic   Diff electronic      SCC error    
    1   -0.19433790E+03    0.00000000E+00    0.22048600E-02
    2   -0.19433968E+03   -0.17790619E-02    0.88341488E-03
    3   -0.19433969E+03   -0.34571445E-05    0.26160462E-03
    4   -0.19433969E+03   -0.78447326E-06    0.50898657E-04
    5   -0.19433969E+03   -0.11425755E-07    0.45776407E-05
    6   -0.19433969E+03   -0.71960926E-09    0.12556239E-05
    7   -0.19433969E+03   -0.26545877E-10    0.41326308E-06
    8   -0.19433969E+03   -0.65369932E-12    0.67579062E-07
    9   -0.19433969E+03   -0.56843419E-13    0.11221617E-07
   10   -0.19433969E+03    0.56843419E-13    0.26353879E-08

Total Energy:                     -192.3777868876 H        -5234.8659 eV
Extrapolated to 0K:               -192.3777868876 H        -5234.8659 eV
Total Mermin free energy:         -192.3777868876 H        -5234.8659 eV
Force related energy:             -192.3777868876 H        -5234.8659 eV

Volume:                              0.100132E+05 au^3   0.148380E+04 A^3
Pressure:                            0.133318E-05 au     0.392235E+08 Pa
>> Charges saved for restart in charges.bin

total energy  -1.9237779E+02 H       energy change -1.3358388E-04 H
gradient norm  8.2603289E-03 H/a0    max. gradient  1.4980565E-03 H/a0
step length    7.5651034E-02 a0      max. step      1.5149250E-02 a0

--------------------------------------------------------------------------------

***  Geometry step: 40

 iSCC Total electronic   Diff electronic      SCC error    
    1   -0.19433969E+03    0.00000000E+00    0.15704958E-02
    2   -0.19434183E+03   -0.21473794E-02    0.66006475E-03
    3   -0.19434184E+03   -0.25022515E-05    0.22132291E-03
    4   -0.19434184E+03   -0.56120703E-06    0.46382702E-04
    5   -0.19434184E+03   -0.69253758E-08    0.66626455E-05
    6   -0.19434184E+03   -0.48402171E-09    0.14745250E-05
    7   -0.19434184E+03   -0.16001422E-10    0.33466073E-06
    8   -0.19434184E+03   -0.36948222E-12    0.71214089E-07
    9   -0.19434184E+03   -0.11368684E-12    0.14176709E-07
   10   -0.19434184E+03    0.28421709E-13    0.16763311E-08

Total Energy:                     -192.3778932927 H        -5234.8688 eV
Extrapolated to 0K:               -192.3778932927 H        -5234.8688 eV
Total Mermin free energy:         -192.3778932927 H        -5234.8688 eV
Force related energy:             -192.3778932927 H        -5234.8688 eV

Volume:                              0.100166E+05 au^3   0.148430E+04 A^3
Pressure:                            0.148635E-05 au     0.437300E+08 Pa
>> Charges saved for restart in charges.bin

total energy  -1.9237789E+02 H       energy change -1.0640510E-04 H
gradient norm  8.5998547E-03 H/a0    max. gradient  2.0799479E-03 H/a0
step length    6.6624394E-02 a0      max. step      1.3729757E-02 a0

--------------------------------------------------------------------------------

***  Geometry step: 41

 iSCC Total electronic   Diff electronic      SCC error    
    1   -0.19434184E+03    0.00000000E+00    0.20523129E-02
    2   -0.19434471E+03   -0.28695772E-02    0.95872426E-03
    3   -0.19434471E+03   -0.28199737E-05    0.23853986E-03
    4   -0.19434471E+03   -0.64647608E-06    0.42012697E-04
    5   -0.19434471E+03   -0.88748209E-08    0.89088048E-05
    6   -0.19434471E+03   -0.67871042E-09    0.14036009E-05
    7   -0.19434471E+03   -0.12988721E-10    0.27978868E-06
    8   -0.19434471E+03   -0.39790393E-12    0.85256887E-07
    9   -0.19434471E+03    0.00000000E+00    0.19014313E-07
   10   -0.19434471E+03   -0.28421709E-13    0.17519124E-08

Total Energy:                     -192.3780109018 H        -5234.8720 eV
Extrapolated to 0K:               -192.3780109018 H        -5234.8720 eV
Total Mermin free energy:         -192.3780109018 H        -5234.8720 eV
Force related energy:             -192.3780109018 H        -5234.8720 eV

Volume:                              0.100209E+05 au^3   0.148495E+04 A^3
Pressure:                            0.198279E-05 au     0.583358E+08 Pa
>> Charges saved for restart in charges.bin

total energy  -1.9237801E+02 H       energy change -1.1760909E-04 H
gradient norm  8.6002991E-03 H/a0    max. gradient  1.8253229E-03 H/a0
step length    7.8637985E-02 a0      max. step      1.6404305E-02 a0

--------------------------------------------------------------------------------

***  Geometry step: 42

 iSCC Total electronic   Diff electronic      SCC error    
    1   -0.19434471E+03    0.00000000E+00    0.14048710E-02
    2   -0.19434610E+03   -0.13887413E-02    0.79229974E-03
    3   -0.19434610E+03   -0.14574614E-05    0.19756499E-03
    4   -0.19434610E+03   -0.35372210E-06    0.26071858E-04
    5   -0.19434610E+03   -0.66538064E-08    0.68907287E-05
    6   -0.19434610E+03   -0.39426595E-09    0.11648445E-05
    7   -0.19434610E+03   -0.77591267E-11    0.22517336E-06
    8   -0.19434610E+03   -0.28421709E-12    0.72543458E-07
    9   -0.19434610E+03   -0.28421709E-13    0.13114210E-07
   10   -0.19434610E+03   -0.28421709E-13    0.99059871E-09

Total Energy:                     -192.3781141987 H        -5234.8748 eV
Extrapolated to 0K:               -192.3781141987 H        -5234.8748 eV
Total Mermin free energy:         -192.3781141987 H        -5234.8748 eV
Force related energy:             -192.3781141987 H        -5234.8748 eV

Volume:                              0.100263E+05 au^3   0.148574E+04 A^3
Pressure:                            0.203758E-05 au     0.599477E+08 Pa
>> Charges saved for restart in charges.bin

total energy  -1.9237811E+02 H       energy change -1.0329684E-04 H
gradient norm  7.8047308E-03 H/a0    max. gradient  1.7160470E-03 H/a0
step length    7.6301285E-02 a0      max. step      1.6012789E-02 a0

--------------------------------------------------------------------------------

***  Geometry step: 43

 iSCC Total electronic   Diff electronic      SCC error    
    1   -0.19434610E+03    0.00000000E+00    0.12489184E-02
    2   -0.19434606E+03    0.40691821E-04    0.76540897E-03
    3   -0.19434606E+03   -0.17375367E-05    0.21120361E-03
    4   -0.19434606E+03   -0.43604499E-06    0.20477956E-04
    5   -0.19434606E+03   -0.61023115E-08    0.47373110E-05
    6   -0.19434606E+03   -0.44613557E-09    0.12919394E-05
    7   -0.19434606E+03   -0.74180662E-11    0.31591902E-06
    8   -0.19434606E+03   -0.25579538E-12    0.58538394E-07
    9   -0.19434606E+03    0.28421709E-13    0.16751691E-07
   10   -0.19434606E+03   -0.28421709E-13    0.19092310E-08

Total Energy:                     -192.3782212683 H        -5234.8777 eV
Extrapolated to 0K:               -192.3782212683 H        -5234.8777 eV
Total Mermin free energy:         -192.3782212683 H        -5234.8777 eV
Force related energy:             -192.3782212683 H        -5234.8777 eV

Volume:                              0.100327E+05 au^3   0.148669E+04 A^3
Pressure:                            0.155054E-05 au     0.456184E+08 Pa
>> Charges saved for restart in charges.bin

total energy  -1.9237822E+02 H       energy change -1.0706965E-04 H
gradient norm  7.5707429E-03 H/a0    max. gradient  2.0575936E-03 H/a0
step length    8.2489814E-02 a0      max. step      1.7821837E-02 a0

--------------------------------------------------------------------------------

***  Geometry step: 44

 iSCC Total electronic   Diff electronic      SCC error    
    1   -0.19434606E+03    0.00000000E+00    0.12480296E-02
    2   -0.19434523E+03    0.83103671E-03    0.64756156E-03
    3   -0.19434523E+03   -0.22542102E-05    0.19244821E-03
    4   -0.19434523E+03   -0.54698833E-06    0.21993892E-04
    5   -0.19434523E+03   -0.50825690E-08    0.34706454E-05
    6   -0.19434523E+03   -0.45451998E-09    0.84283144E-06
    7   -0.19434523E+03   -0.78728135E-11    0.25668316E-06
    8   -0.19434523E+03   -0.56843419E-13    0.43601031E-07
    9   -0.19434523E+03   -0.56843419E-13    0.11403626E-07
   10   -0.19434523E+03    0.85265128E-13    0.16302093E-08

Total Energy:                     -192.3783189934 H        -5234.8804 eV
Extrapolated to 0K:               -192.3783189934 H        -5234.8804 eV
Total Mermin free energy:         -192.3783189934 H        -5234.8804 eV
Force related energy:             -192.3783189934 H        -5234.8804 eV

Volume:                              0.100381E+05 au^3   0.148750E+04 A^3
Pressure:                            0.784639E-06 au     0.230849E+08 Pa
>> Charges saved for restart in charges.bin

total energy  -1.9237832E+02 H       energy change -9.7725068E-05 H
gradient norm  7.7824387E-03 H/a0    max. gradient  1.8085135E-03 H/a0
step length    7.1690523E-02 a0      max. step      1.6217632E-02 a0

--------------------------------------------------------------------------------

***  Geometry step: 45

 iSCC Total electronic   Diff electronic      SCC error    
    1   -0.19434523E+03    0.00000000E+00    0.13040479E-02
    2   -0.19434452E+03    0.70929519E-03    0.52009860E-03
    3   -0.19434453E+03   -0.14789798E-05    0.14609813E-03
    4   -0.19434453E+03   -0.33815013E-06    0.20382443E-04
    5   -0.19434453E+03   -0.27620786E-08    0.50123565E-05
    6   -0.19434453E+03   -0.25582381E-09    0.94484997E-06
    7   -0.19434453E+03   -0.38369308E-11    0.22161607E-06
    8   -0.19434453E+03   -0.56843419E-13    0.34996563E-07
    9   -0.19434453E+03   -0.11368684E-12    0.10671801E-07
   10   -0.19434453E+03    0.28421709E-13    0.13235386E-08

Total Energy:                     -192.3784062542 H        -5234.8828 eV
Extrapolated to 0K:               -192.3784062542 H        -5234.8828 eV
Total Mermin free energy:         -192.3784062542 H        -5234.8828 eV
Force related energy:             -192.3784062542 H        -5234.8828 eV

Volume:                              0.100420E+05 au^3   0.148808E+04 A^3
Pressure:                            0.155590E-06 au     0.457761E+07 Pa
>> Charges saved for restart in charges.bin

total energy  -1.9237841E+02 H       energy change -8.7260850E-05 H
gradient norm  8.0821082E-03 H/a0    max. gradient  1.5486686E-03 H/a0
step length    6.0273415E-02 a0      max. step      1.4124266E-02 a0

--------------------------------------------------------------------------------

***  Geometry step: 46

 iSCC Total electronic   Diff electronic      SCC error    
    1   -0.19434453E+03    0.00000000E+00    0.12284642E-02
    2   -0.19434392E+03    0.60435092E-03    0.51587151E-03
    3   -0.19434392E+03   -0.15587051E-05    0.15860237E-03
    4   -0.19434392E+03   -0.35967057E-06    0.22145891E-04
    5   -0.19434392E+03   -0.35003609E-08    0.40828908E-05
    6   -0.19434392E+03   -0.29601210E-09    0.68851913E-06
    7   -0.19434392E+03   -0.45190518E-11    0.25872519E-06
    8   -0.19434392E+03   -0.22737368E-12    0.44064911E-07
    9   -0.19434392E+03    0.11368684E-12    0.11954643E-07
   10   -0.19434392E+03   -0.56843419E-13    0.11184018E-08

Total Energy:                     -192.3785018768 H        -5234.8854 eV
Extrapolated to 0K:               -192.3785018768 H        -5234.8854 eV
Total Mermin free energy:         -192.3785018768 H        -5234.8854 eV
Force related energy:             -192.3785018768 H        -5234.8854 eV

Volume:                              0.100460E+05 au^3   0.148866E+04 A^3
Pressure:                           -0.486094E-06 au    -0.143014E+08 Pa
>> Charges saved for restart in charges.bin

total energy  -1.9237850E+02 H       energy change -9.5622600E-05 H
gradient norm  7.3512469E-03 H/a0    max. gradient  1.5661998E-03 H/a0
step length    7.0929976E-02 a0      max. step      1.7035570E-02 a0

--------------------------------------------------------------------------------

***  Geometry step: 47

 iSCC Total electronic   Diff electronic      SCC error    
    1   -0.19434392E+03    0.00000000E+00    0.11245273E-02
    2   -0.19434462E+03   -0.69385226E-03    0.48195433E-03
    3   -0.19434462E+03   -0.17489521E-05    0.16450001E-03
    4   -0.19434462E+03   -0.40855207E-06    0.26518653E-04
    5   -0.19434462E+03   -0.41281112E-08    0.19861973E-05
    6   -0.19434462E+03   -0.34046366E-09    0.62351823E-06
    7   -0.19434462E+03   -0.48032689E-11    0.25657462E-06
    8   -0.19434462E+03   -0.19895197E-12    0.35344059E-07
    9   -0.19434462E+03    0.28421709E-13    0.55710139E-08

Total Energy:                     -192.3785865148 H        -5234.8877 eV
Extrapolated to 0K:               -192.3785865148 H        -5234.8877 eV
Total Mermin free energy:         -192.3785865148 H        -5234.8877 eV
Force related energy:             -192.3785865148 H        -5234.8877 eV

Volume:                              0.100484E+05 au^3   0.148901E+04 A^3
Pressure:                           -0.698448E-06 au    -0.205491E+08 Pa
>> Charges saved for restart in charges.bin

total energy  -1.9237859E+02 H       energy change -8.4637951E-05 H
gradient norm  6.6023025E-03 H/a0    max. gradient  1.5368534E-03 H/a0
step length    6.7578916E-02 a0      max. step      1.6543464E-02 a0

--------------------------------------------------------------------------------

***  Geometry step: 48

 iSCC Total electronic   Diff electronic      SCC error    
    1   -0.19434462E+03    0.00000000E+00    0.10205632E-02
    2   -0.19434644E+03   -0.18242057E-02    0.45606197E-03
    3   -0.19434645E+03   -0.16699357E-05    0.15229093E-03
    4   -0.19434645E+03   -0.40292252E-06    0.20347778E-04
    5   -0.19434645E+03   -0.38815244E-08    0.35314271E-05
    6   -0.19434645E+03   -0.30723868E-09    0.79493569E-06
    7   -0.19434645E+03   -0.58264504E-11    0.20324361E-06
    8   -0.19434645E+03    0.00000000E+00    0.56440219E-07
    9   -0.19434645E+03   -0.14210855E-12    0.11572841E-07
   10   -0.19434645E+03    0.00000000E+00    0.10783054E-08

Total Energy:                     -192.3786588592 H        -5234.8897 eV
Extrapolated to 0K:               -192.3786588592 H        -5234.8897 eV
Total Mermin free energy:         -192.3786588592 H        -5234.8897 eV
Force related energy:             -192.3786588592 H        -5234.8897 eV

Volume:                              0.100497E+05 au^3   0.148921E+04 A^3
Pressure:                           -0.483086E-06 au    -0.142129E+08 Pa
>> Charges saved for restart in charges.bin

total energy  -1.9237866E+02 H       energy change -7.2344414E-05 H
gradient norm  6.5506377E-03 H/a0    max. gradient  1.5712873E-03 H/a0
step length    6.1298508E-02 a0      max. step      1.4979487E-02 a0

--------------------------------------------------------------------------------

***  Geometry step: 49

 iSCC Total electronic   Diff electronic      SCC error    
    1   -0.19434645E+03    0.00000000E+00    0.12309678E-02
    2   -0.19434940E+03   -0.29513789E-02    0.54063742E-03
    3   -0.19434940E+03   -0.16208398E-05    0.15476773E-03
    4   -0.19434940E+03   -0.38009588E-06    0.21083438E-04
    5   -0.19434940E+03   -0.40352575E-08    0.52626883E-05
    6   -0.19434940E+03   -0.30107117E-09    0.98239298E-06
    7   -0.19434940E+03   -0.48316906E-11    0.15900937E-06
    8   -0.19434940E+03   -0.17053026E-12    0.49560336E-07
    9   -0.19434940E+03    0.00000000E+00    0.89472296E-08

Total Energy:                     -192.3787291347 H        -5234.8916 eV
Extrapolated to 0K:               -192.3787291347 H        -5234.8916 eV
Total Mermin free energy:         -192.3787291347 H        -5234.8916 eV
Force related energy:             -192.3787291347 H        -5234.8916 eV

Volume:                              0.100502E+05 au^3   0.148928E+04 A^3
Pressure:                            0.306726E-06 au     0.902418E+07 Pa
>> Charges saved for restart in charges.bin

total energy  -1.9237873E+02 H       energy change -7.0275504E-05 H
gradient norm  6.9694969E-03 H/a0    max. gradient  1.6769859E-03 H/a0
step length    6.3678386E-02 a0      max. step      1.5359241E-02 a0

--------------------------------------------------------------------------------

***  Geometry step: 50

 iSCC Total electronic   Diff electronic      SCC error    
    1   -0.19434940E+03    0.00000000E+00    0.12220680E-02
    2   -0.19435147E+03   -0.20741201E-02    0.50100566E-03
    3   -0.19435147E+03   -0.13022181E-05    0.15460053E-03
    4   -0.19435147E+03   -0.27882083E-06    0.15171645E-04
    5   -0.19435147E+03   -0.32801779E-08    0.44331206E-05
    6   -0.19435147E+03   -0.21154278E-09    0.10609423E-05
    7   -0.19435147E+03   -0.19326762E-11    0.14178830E-06
    8   -0.19435147E+03   -0.28421709E-13    0.39403319E-07
    9   -0.19435147E+03    0.28421709E-13    0.91348404E-08

Total Energy:                     -192.3788044342 H        -5234.8936 eV
Extrapolated to 0K:               -192.3788044342 H        -5234.8936 eV
Total Mermin free energy:         -192.3788044342 H        -5234.8936 eV
Force related energy:             -192.3788044342 H        -5234.8936 eV

Volume:                              0.100515E+05 au^3   0.148949E+04 A^3
Pressure:                            0.884608E-06 au     0.260261E+08 Pa
>> Charges saved for restart in charges.bin

total energy  -1.9237880E+02 H       energy change -7.5299508E-05 H
gradient norm  7.3400102E-03 H/a0    max. gradient  1.9163557E-03 H/a0
step length    6.8771963E-02 a0      max. step      1.6101217E-02 a0

--------------------------------------------------------------------------------

***  Geometry step: 51

 iSCC Total electronic   Diff electronic      SCC error    
    1   -0.19435147E+03    0.00000000E+00    0.16425186E-02
    2   -0.19435336E+03   -0.18867366E-02    0.73517976E-03
    3   -0.19435336E+03   -0.20326732E-05    0.22735268E-03
    4   -0.19435336E+03   -0.43770200E-06    0.18055304E-04
    5   -0.19435336E+03   -0.67295787E-08    0.53989154E-05
    6   -0.19435336E+03   -0.45451998E-09    0.14481690E-05
    7   -0.19435336E+03   -0.46043169E-11    0.28971546E-06
    8   -0.19435336E+03   -0.14210855E-12    0.46708012E-07
    9   -0.19435336E+03   -0.56843419E-13    0.12266344E-07
   10   -0.19435336E+03    0.85265128E-13    0.15432882E-08

Total Energy:                     -192.3789034916 H        -5234.8963 eV
Extrapolated to 0K:               -192.3789034916 H        -5234.8963 eV
Total Mermin free energy:         -192.3789034916 H        -5234.8963 eV
Force related energy:             -192.3789034916 H        -5234.8963 eV

Volume:                              0.100530E+05 au^3   0.148969E+04 A^3
Pressure:                            0.155361E-05 au     0.457088E+08 Pa
>> Charges saved for restart in charges.bin

total energy  -1.9237890E+02 H       energy change -9.9057379E-05 H
gradient norm  7.4215997E-03 H/a0    max. gradient  1.8386537E-03 H/a0
step length    9.2916146E-02 a0      max. step      2.1539352E-02 a0

--------------------------------------------------------------------------------

***  Geometry step: 52

 iSCC Total electronic   Diff electronic      SCC error    
    1   -0.19435336E+03    0.00000000E+00    0.17450520E-02
    2   -0.19435255E+03    0.81052092E-03    0.99556097E-03
    3   -0.19435256E+03   -0.18019776E-05    0.24236972E-03
    4   -0.19435256E+03   -0.40836181E-06    0.26014005E-04
    5   -0.19435256E+03   -0.91281152E-08    0.82505747E-05
[...]

Total Energy:                     -192.3811804694 H        -5234.9583 eV
Extrapolated to 0K:               -192.3811804694 H        -5234.9583 eV
Total Mermin free energy:         -192.3811804694 H        -5234.9583 eV
Force related energy:             -192.3811804694 H        -5234.9583 eV

Volume:                              0.993705E+04 au^3   0.147252E+04 A^3
Pressure:                            0.241258E-06 au     0.709806E+07 Pa
>> Charges saved for restart in charges.bin

total energy  -1.9238118E+02 H       energy change -1.3429520E-06 H
gradient norm  9.1682813E-04 H/a0    max. gradient  3.2615236E-04 H/a0
step length    4.5891772E-03 a0      max. step      1.1332137E-03 a0

--------------------------------------------------------------------------------

***  Geometry step: 193

 iSCC Total electronic   Diff electronic      SCC error    
    1   -0.19434453E+03    0.00000000E+00    0.18429133E-03
    2   -0.19434462E+03   -0.84384749E-04    0.78731789E-04
    3   -0.19434462E+03   -0.19552317E-07    0.27339546E-04
    4   -0.19434462E+03   -0.42739146E-08    0.27076520E-05
    5   -0.19434462E+03   -0.67359451E-10    0.58300349E-06
    6   -0.19434462E+03   -0.45758952E-11    0.96157041E-07
    7   -0.19434462E+03   -0.14210855E-12    0.12606205E-07
    8   -0.19434462E+03    0.28421709E-13    0.41678869E-08

Total Energy:                     -192.3811817180 H        -5234.9583 eV
Extrapolated to 0K:               -192.3811817180 H        -5234.9583 eV
Total Mermin free energy:         -192.3811817180 H        -5234.9583 eV
Force related energy:             -192.3811817180 H        -5234.9583 eV

Volume:                              0.993674E+04 au^3   0.147247E+04 A^3
Pressure:                            0.290039E-06 au     0.853324E+07 Pa
>> Charges saved for restart in charges.bin

total energy  -1.9238118E+02 H       energy change -1.2485752E-06 H
gradient norm  8.7471836E-04 H/a0    max. gradient  2.6793574E-04 H/a0
step length    7.1997026E-03 a0      max. step      1.4865200E-03 a0

--------------------------------------------------------------------------------

***  Geometry step: 194

 iSCC Total electronic   Diff electronic      SCC error    
    1   -0.19434462E+03    0.00000000E+00    0.17895297E-03
    2   -0.19434439E+03    0.22158816E-03    0.71945490E-04
    3   -0.19434439E+03   -0.31041566E-07    0.29371871E-04
    4   -0.19434439E+03   -0.63107279E-08    0.41087158E-05
    5   -0.19434439E+03   -0.91688435E-10    0.45530942E-06
    6   -0.19434439E+03   -0.81286089E-11    0.12416002E-06
    7   -0.19434439E+03   -0.28421709E-12    0.15700462E-07
    8   -0.19434439E+03    0.28421709E-13    0.48431397E-08

Total Energy:                     -192.3811832438 H        -5234.9583 eV
Extrapolated to 0K:               -192.3811832438 H        -5234.9583 eV
Total Mermin free energy:         -192.3811832438 H        -5234.9583 eV
Force related energy:             -192.3811832438 H        -5234.9583 eV

Volume:                              0.993645E+04 au^3   0.147243E+04 A^3
Pressure:                            0.178669E-06 au     0.525663E+07 Pa
>> Charges saved for restart in charges.bin

total energy  -1.9238118E+02 H       energy change -1.5258204E-06 H
gradient norm  8.3428261E-04 H/a0    max. gradient  1.8951659E-04 H/a0
step length    1.3280848E-02 a0      max. step      2.4957726E-03 a0

--------------------------------------------------------------------------------

***  Geometry step: 195

 iSCC Total electronic   Diff electronic      SCC error    
    1   -0.19434439E+03    0.00000000E+00    0.18950578E-03
    2   -0.19434412E+03    0.27027242E-03    0.70647006E-04
    3   -0.19434412E+03   -0.22916169E-07    0.18091278E-04
    4   -0.19434412E+03   -0.47292019E-08    0.32440805E-05
    5   -0.19434412E+03   -0.55194960E-10    0.44621102E-06
    6   -0.19434412E+03   -0.55706550E-11    0.75800817E-07
    7   -0.19434412E+03   -0.11368684E-12    0.15327326E-07
    8   -0.19434412E+03    0.00000000E+00    0.25328881E-08

Total Energy:                     -192.3811842607 H        -5234.9584 eV
Extrapolated to 0K:               -192.3811842607 H        -5234.9584 eV
Total Mermin free energy:         -192.3811842607 H        -5234.9584 eV
Force related energy:             -192.3811842607 H        -5234.9584 eV

Volume:                              0.993624E+04 au^3   0.147240E+04 A^3
Pressure:                            0.705367E-07 au     0.207526E+07 Pa
>> Charges saved for restart in charges.bin

total energy  -1.9238118E+02 H       energy change -1.0168315E-06 H
gradient norm  7.5302073E-04 H/a0    max. gradient  1.7788110E-04 H/a0
step length    1.3485182E-02 a0      max. step      2.7564140E-03 a0

--------------------------------------------------------------------------------

***  Geometry step: 196

 iSCC Total electronic   Diff electronic      SCC error    
    1   -0.19434412E+03    0.00000000E+00    0.91834408E-04
    2   -0.19434415E+03   -0.29067443E-04    0.47395501E-04
    3   -0.19434415E+03   -0.90428784E-08    0.15238291E-04
    4   -0.19434415E+03   -0.19090862E-08    0.22758140E-05
    5   -0.19434415E+03   -0.20918378E-10    0.27757483E-06
    6   -0.19434415E+03   -0.19042545E-11    0.77773818E-07
    7   -0.19434415E+03   -0.56843419E-13    0.95326760E-08

Total Energy:                     -192.3811849084 H        -5234.9584 eV
Extrapolated to 0K:               -192.3811849084 H        -5234.9584 eV
Total Mermin free energy:         -192.3811849084 H        -5234.9584 eV
Force related energy:             -192.3811849084 H        -5234.9584 eV

Volume:                              0.993634E+04 au^3   0.147241E+04 A^3
Pressure:                            0.114882E-06 au     0.337995E+07 Pa
>> Charges saved for restart in charges.bin

total energy  -1.9238118E+02 H       energy change -6.4775165E-07 H
gradient norm  6.5457307E-04 H/a0    max. gradient  1.5608254E-04 H/a0
step length    1.7792752E-03 a0      max. step      4.0314692E-04 a0

--------------------------------------------------------------------------------

***  Geometry step: 197

 iSCC Total electronic   Diff electronic      SCC error    
    1   -0.19434415E+03    0.00000000E+00    0.16373809E-03
    2   -0.19434429E+03   -0.14065070E-03    0.70027437E-04
    3   -0.19434429E+03   -0.30785316E-07    0.16881301E-04
    4   -0.19434429E+03   -0.68300494E-08    0.28375287E-05
    5   -0.19434429E+03   -0.63465677E-10    0.55461000E-06
    6   -0.19434429E+03   -0.45758952E-11    0.14868633E-06
    7   -0.19434429E+03   -0.14210855E-12    0.16412200E-07
    8   -0.19434429E+03    0.28421709E-13    0.45448614E-08

Total Energy:                     -192.3811857845 H        -5234.9584 eV
Extrapolated to 0K:               -192.3811857845 H        -5234.9584 eV
Total Mermin free energy:         -192.3811857845 H        -5234.9584 eV
Force related energy:             -192.3811857845 H        -5234.9584 eV

Volume:                              0.993647E+04 au^3   0.147243E+04 A^3
Pressure:                            0.132487E-06 au     0.389789E+07 Pa
>> Charges saved for restart in charges.bin

total energy  -1.9238119E+02 H       energy change -8.7606085E-07 H
gradient norm  7.1786072E-04 H/a0    max. gradient  1.5580388E-04 H/a0
step length    4.2295759E-03 a0      max. step      9.8438365E-04 a0

--------------------------------------------------------------------------------

***  Geometry step: 198

 iSCC Total electronic   Diff electronic      SCC error    
    1   -0.19434429E+03    0.00000000E+00    0.73040102E-04
    2   -0.19434443E+03   -0.13989676E-03    0.39575864E-04
    3   -0.19434443E+03   -0.57872001E-08    0.13485341E-04
    4   -0.19434443E+03   -0.12129249E-08    0.18185644E-05
    5   -0.19434443E+03   -0.17962520E-10    0.28906893E-06
    6   -0.19434443E+03   -0.15347723E-11    0.70284750E-07
    7   -0.19434443E+03   -0.56843419E-13    0.58330083E-08

Total Energy:                     -192.3811863504 H        -5234.9584 eV
Extrapolated to 0K:               -192.3811863504 H        -5234.9584 eV
Total Mermin free energy:         -192.3811863504 H        -5234.9584 eV
Force related energy:             -192.3811863504 H        -5234.9584 eV

Volume:                              0.993622E+04 au^3   0.147240E+04 A^3
Pressure:                            0.195724E-06 au     0.575841E+07 Pa
>> Charges saved for restart in charges.bin

total energy  -1.9238119E+02 H       energy change -5.6596724E-07 H
gradient norm  6.5887090E-04 H/a0    max. gradient  1.2474881E-04 H/a0
step length    3.6567657E-03 a0      max. step      1.1651717E-03 a0

--------------------------------------------------------------------------------

***  Geometry step: 199

 iSCC Total electronic   Diff electronic      SCC error    
    1   -0.19434443E+03    0.00000000E+00    0.15939321E-03
    2   -0.19434443E+03    0.60145913E-05    0.57953272E-04
    3   -0.19434443E+03   -0.20273660E-07    0.19144530E-04
    4   -0.19434443E+03   -0.40310795E-08    0.25504937E-05
    5   -0.19434443E+03   -0.47094773E-10    0.31971935E-06
    6   -0.19434443E+03   -0.42348347E-11    0.81314857E-07
    7   -0.19434443E+03   -0.17053026E-12    0.10843040E-07
    8   -0.19434443E+03    0.56843419E-13    0.27487279E-08

Total Energy:                     -192.3811874371 H        -5234.9585 eV
Extrapolated to 0K:               -192.3811874371 H        -5234.9585 eV
Total Mermin free energy:         -192.3811874371 H        -5234.9585 eV
Force related energy:             -192.3811874371 H        -5234.9585 eV

Volume:                              0.993495E+04 au^3   0.147221E+04 A^3
Pressure:                            0.257632E-06 au     0.757980E+07 Pa
>> Charges saved for restart in charges.bin

total energy  -1.9238119E+02 H       energy change -1.0866586E-06 H
gradient norm  6.4922145E-04 H/a0    max. gradient  1.2242225E-04 H/a0
step length    1.8190365E-02 a0      max. step      4.8637488E-03 a0

--------------------------------------------------------------------------------

***  Geometry step: 200

 iSCC Total electronic   Diff electronic      SCC error    
    1   -0.19434443E+03    0.00000000E+00    0.10165560E-03
    2   -0.19434449E+03   -0.58728796E-04    0.44773643E-04
    3   -0.19434449E+03   -0.67575741E-08    0.15163382E-04
    4   -0.19434449E+03   -0.15641319E-08    0.16571329E-05
    5   -0.19434449E+03   -0.36749270E-10    0.20540435E-06
    6   -0.19434449E+03   -0.31263880E-11    0.45629900E-07
    7   -0.19434449E+03   -0.28421709E-13    0.96572053E-08

Total Energy:                     -192.3811879458 H        -5234.9585 eV
Extrapolated to 0K:               -192.3811879458 H        -5234.9585 eV
Total Mermin free energy:         -192.3811879458 H        -5234.9585 eV
Force related energy:             -192.3811879458 H        -5234.9585 eV

Volume:                              0.993487E+04 au^3   0.147220E+04 A^3
Pressure:                            0.262884E-06 au     0.773431E+07 Pa
>> Charges saved for restart in charges.bin

total energy  -1.9238119E+02 H       energy change -5.0869028E-07 H
gradient norm  5.0873146E-04 H/a0    max. gradient  1.2468550E-04 H/a0
step length    1.7282709E-03 a0      max. step      4.2634783E-04 a0

--------------------------------------------------------------------------------

***  Geometry step: 201

 iSCC Total electronic   Diff electronic      SCC error    
    1   -0.19434449E+03    0.00000000E+00    0.14118668E-03
    2   -0.19434444E+03    0.44739382E-04    0.61634344E-04
    3   -0.19434444E+03   -0.14278271E-07    0.17687256E-04
    4   -0.19434444E+03   -0.29925218E-08    0.21245527E-05
    5   -0.19434444E+03   -0.54257043E-10    0.38782007E-06
    6   -0.19434444E+03   -0.40074610E-11    0.81918544E-07
    7   -0.19434444E+03   -0.28421709E-13    0.10477192E-07
    8   -0.19434444E+03   -0.85265128E-13    0.26002445E-08

Total Energy:                     -192.3811884732 H        -5234.9585 eV
Extrapolated to 0K:               -192.3811884732 H        -5234.9585 eV
Total Mermin free energy:         -192.3811884732 H        -5234.9585 eV
Force related energy:             -192.3811884732 H        -5234.9585 eV

Volume:                              0.993489E+04 au^3   0.147220E+04 A^3
Pressure:                            0.233265E-06 au     0.686288E+07 Pa
>> Charges saved for restart in charges.bin

total energy  -1.9238119E+02 H       energy change -5.2743522E-07 H
gradient norm  5.2200920E-04 H/a0    max. gradient  1.2926429E-04 H/a0
step length    3.7021158E-03 a0      max. step      8.4718808E-04 a0

--------------------------------------------------------------------------------

***  Geometry step: 202

 iSCC Total electronic   Diff electronic      SCC error    
    1   -0.19434444E+03    0.00000000E+00    0.10049439E-03
    2   -0.19434433E+03    0.11001554E-03    0.40232221E-04
    3   -0.19434433E+03   -0.64657399E-08    0.95534675E-05
    4   -0.19434433E+03   -0.13027375E-08    0.11406445E-05
    5   -0.19434433E+03   -0.19866775E-10    0.22176987E-06
    6   -0.19434433E+03   -0.13073986E-11    0.41736884E-07
    7   -0.19434433E+03   -0.28421709E-13    0.49898663E-08

Total Energy:                     -192.3811888818 H        -5234.9585 eV
Extrapolated to 0K:               -192.3811888818 H        -5234.9585 eV
Total Mermin free energy:         -192.3811888818 H        -5234.9585 eV
Force related energy:             -192.3811888818 H        -5234.9585 eV

Volume:                              0.993497E+04 au^3   0.147221E+04 A^3
Pressure:                            0.189961E-06 au     0.558884E+07 Pa
>> Charges saved for restart in charges.bin

total energy  -1.9238119E+02 H       energy change -4.0858001E-07 H
gradient norm  5.1845933E-04 H/a0    max. gradient  1.1492032E-04 H/a0
step length    3.6386239E-03 a0      max. step      7.4156278E-04 a0

--------------------------------------------------------------------------------

***  Geometry step: 203

 iSCC Total electronic   Diff electronic      SCC error    
    1   -0.19434433E+03    0.00000000E+00    0.13914776E-03
    2   -0.19434395E+03    0.38143607E-03    0.63476439E-04
    3   -0.19434395E+03   -0.18966233E-07    0.21059751E-04
    4   -0.19434395E+03   -0.40163570E-08    0.32230920E-05
    5   -0.19434395E+03   -0.71224804E-10    0.62279308E-06
    6   -0.19434395E+03   -0.69917405E-11    0.13420015E-06
    7   -0.19434395E+03    0.00000000E+00    0.10734214E-07
    8   -0.19434395E+03   -0.85265128E-13    0.29886689E-08

Total Energy:                     -192.3811897783 H        -5234.9585 eV
Extrapolated to 0K:               -192.3811897783 H        -5234.9585 eV
Total Mermin free energy:         -192.3811897783 H        -5234.9585 eV
Force related energy:             -192.3811897783 H        -5234.9585 eV

Volume:                              0.993344E+04 au^3   0.147198E+04 A^3
Pressure:                            0.103963E-06 au     0.305869E+07 Pa
>> Charges saved for restart in charges.bin

total energy  -1.9238119E+02 H       energy change -8.9653921E-07 H
gradient norm  6.4359495E-04 H/a0    max. gradient  1.8629923E-04 H/a0
step length    2.6571892E-02 a0      max. step      6.0441244E-03 a0

--------------------------------------------------------------------------------

***  Geometry step: 204

 iSCC Total electronic   Diff electronic      SCC error    
    1   -0.19434395E+03    0.00000000E+00    0.56525525E-04
    2   -0.19434393E+03    0.22999911E-04    0.23668780E-04
    3   -0.19434393E+03   -0.26652742E-08    0.64277545E-05
    4   -0.19434393E+03   -0.58861360E-09    0.12501701E-05
    5   -0.19434393E+03   -0.61959327E-11    0.11900954E-06
    6   -0.19434393E+03   -0.48316906E-12    0.26132681E-07
    7   -0.19434393E+03   -0.56843419E-13    0.51413367E-08

Total Energy:                     -192.3811900814 H        -5234.9585 eV
Extrapolated to 0K:               -192.3811900814 H        -5234.9585 eV
Total Mermin free energy:         -192.3811900814 H        -5234.9585 eV
Force related energy:             -192.3811900814 H        -5234.9585 eV

Volume:                              0.993345E+04 au^3   0.147199E+04 A^3
Pressure:                            0.935823E-07 au     0.275329E+07 Pa
>> Charges saved for restart in charges.bin

total energy  -1.9238119E+02 H       energy change -3.0304687E-07 H
gradient norm  4.7921965E-04 H/a0    max. gradient  1.3149395E-04 H/a0
step length    7.5096453E-04 a0      max. step      2.0085114E-04 a0

--------------------------------------------------------------------------------

***  Geometry step: 205

 iSCC Total electronic   Diff electronic      SCC error    
    1   -0.19434393E+03    0.00000000E+00    0.14033580E-03
    2   -0.19434388E+03    0.46468590E-04    0.58285962E-04
    3   -0.19434388E+03   -0.16943972E-07    0.16157784E-04
    4   -0.19434388E+03   -0.40461430E-08    0.24664555E-05
    5   -0.19434388E+03   -0.66478378E-10    0.31342137E-06
    6   -0.19434388E+03   -0.48032689E-11    0.66455804E-07
    7   -0.19434388E+03   -0.14210855E-12    0.12734214E-07
    8   -0.19434388E+03    0.28421709E-13    0.27155744E-08

Total Energy:                     -192.3811905398 H        -5234.9585 eV
Extrapolated to 0K:               -192.3811905398 H        -5234.9585 eV
Total Mermin free energy:         -192.3811905398 H        -5234.9585 eV
Force related energy:             -192.3811905398 H        -5234.9585 eV

Volume:                              0.993345E+04 au^3   0.147199E+04 A^3
Pressure:                            0.106895E-06 au     0.314496E+07 Pa
>> Charges saved for restart in charges.bin

total energy  -1.9238119E+02 H       energy change -4.5839312E-07 H
gradient norm  5.8676368E-04 H/a0    max. gradient  1.2694749E-04 H/a0
step length    3.2090786E-03 a0      max. step      6.7698418E-04 a0

--------------------------------------------------------------------------------

***  Geometry step: 206

 iSCC Total electronic   Diff electronic      SCC error    
    1   -0.19434388E+03    0.00000000E+00    0.57772986E-04
    2   -0.19434386E+03    0.24447921E-04    0.29091880E-04
    3   -0.19434386E+03   -0.15400019E-08    0.84297346E-05
    4   -0.19434386E+03   -0.35632297E-09    0.86272296E-06
    5   -0.19434386E+03   -0.10544454E-10    0.20193094E-06
    6   -0.19434386E+03   -0.65369932E-12    0.32176125E-07
    7   -0.19434386E+03    0.00000000E+00    0.51177080E-08

Total Energy:                     -192.3811907851 H        -5234.9586 eV
Extrapolated to 0K:               -192.3811907851 H        -5234.9586 eV
Total Mermin free energy:         -192.3811907851 H        -5234.9586 eV
Force related energy:             -192.3811907851 H        -5234.9586 eV

Volume:                              0.993343E+04 au^3   0.147198E+04 A^3
Pressure:                            0.659467E-07 au     0.194022E+07 Pa
>> Charges saved for restart in charges.bin

total energy  -1.9238119E+02 H       energy change -2.4535382E-07 H
gradient norm  4.6638681E-04 H/a0    max. gradient  8.5969890E-05 H/a0
step length    1.4576163E-03 a0      max. step      3.2408976E-04 a0

Geometry converged

--------------------------------------------------------------------------------
DFTB+ running times                          cpu [s]             wall clock [s]
--------------------------------------------------------------------------------
Pre-SCC initialisation                 +       7.58 (  0.1%)       4.98 (  0.2%)
SCC                                    +   11074.18 ( 97.4%)    1986.42 ( 97.0%)
Post-SCC processing                    +     289.04 (  2.5%)      55.92 (  2.7%)
--------------------------------------------------------------------------------
Missing                                +       0.49 (  0.0%)       0.01 (  0.0%)
Total                                  =   11371.29 (100.0%)    2047.32 (100.0%)
--------------------------------------------------------------------------------
