|===============================================================================
|
|  DFTB+ release 24.1
|
|  Copyright (C) 2006 - 2024  DFTB+ developers group
|
|===============================================================================
|
|  When publishing results obtained with DFTB+, please cite the following
|  reference:
|
|  * DFTB+, a software package for efficient approximate density functional
|    theory based atomistic simulations, J. Chem. Phys. 152, 124101 (2020).
|    [doi: 10.1063/1.5143190]
|
|  You should also cite additional publications crediting the parametrization
|  data you use. Please consult the documentation of the SK-files for the
|  references.
|
|===============================================================================

Reading input file 'dftb_in.hsd'
Parser version: 14

--------------------------------------------------------------------------------
Reading SK-files:
./SKFiles/Ge-Ge.skf
./SKFiles/Ge-Si.skf
./SKFiles/Ge-O.skf
./SKFiles/Si-Si.skf
./SKFiles/Si-O.skf
./SKFiles/O-O.skf
Done.


Processed input in HSD format written to 'dftb_pin.hsd'

Starting initialization...
--------------------------------------------------------------------------------
WARNING!
-> Dipole printed for extended system : value printed is not well defined
MPI processes:               1
OpenMP threads:              8
BLACS orbital grid size:     1 x 1
BLACS atom grid size:        1 x 1
Chosen random seed:          143904920
Current stacksize:           unlimited
Mode:                        Static calculation
Self consistent charges:     Yes
SCC-tolerance:                 0.100000E-07
Max. scc iterations:                    500
Shell resolved Hubbard:      No
Spin polarisation:           No
Nr. of up electrons:           192.000000
Nr. of down electrons:         192.000000
Periodic boundaries:         Yes
Electronic solver:           Relatively robust
Mixer:                       Broyden mixer
Mixing parameter:                  0.200000
Maximal SCC-cycles:                     500
Nr. of chrg. vec. in memory:            500
Electronic temperature:              0.100000E-07 H      0.272114E-06 eV
Initial charges:             Set automatically (system chrg:   0.000E+00)
Included shells:            Ge:  s, p, d
                            Si:  s, p, d
                             O:  s, p
K-points and weights:           1:  0.500000  0.500000  0.500000     1.000000

K-points in absolute space:     1:  0.025319  0.017606  0.037774

Extra options:
                             Mulliken analysis
Force type                   original

--------------------------------------------------------------------------------

***  Geometry step: 0

 iSCC Total electronic   Diff electronic      SCC error    
    1    0.00000000E+00    0.00000000E+00    0.14597500E+01
    2   -0.19480276E+03   -0.19480276E+03    0.99397810E+00
    3   -0.19516917E+03   -0.36641044E+00    0.61851756E-01
    4   -0.19548499E+03   -0.31581632E+00    0.28083508E-01
    5   -0.19548701E+03   -0.20199306E-02    0.79351822E-02
    6   -0.19548716E+03   -0.14594619E-03    0.17213269E-02
    7   -0.19548716E+03   -0.39261606E-05    0.48643319E-03
    8   -0.19548716E+03   -0.11119343E-05    0.64043737E-04
    9   -0.19548716E+03   -0.63371942E-07    0.33893824E-04
   10   -0.19548716E+03   -0.66762595E-10    0.12687508E-05
   11   -0.19548716E+03   -0.21887558E-09    0.40965508E-06
   12   -0.19548716E+03   -0.22168933E-11    0.21172568E-06
   13   -0.19548716E+03   -0.14210855E-12    0.16708187E-07
   14   -0.19548716E+03    0.28421709E-13    0.36800705E-08

Total Energy:                     -191.8772446943 H        -5221.2455 eV
Extrapolated to 0K:               -191.8772446943 H        -5221.2455 eV
Total Mermin free energy:         -191.8772446943 H        -5221.2455 eV
Force related energy:             -191.8772446943 H        -5221.2455 eV

Volume:                              0.913789E+04 au^3   0.135410E+04 A^3
Pressure:                            0.716001E-03 au     0.210655E+11 Pa
>> Charges saved for restart in charges.bin

total energy  -1.9187724E+02 H       energy change -1.9187724E+02 H
gradient norm  8.5953538E-01 H/a0    max. gradient  4.4227936E-01 H/a0
step length    0.0000000E+00 a0      max. step      0.0000000E+00 a0

--------------------------------------------------------------------------------

***  Geometry step: 1

 iSCC Total electronic   Diff electronic      SCC error    
    1   -0.19548716E+03    0.00000000E+00    0.89443624E-01
    2   -0.19513781E+03    0.34935153E+00    0.45774600E-01
    3   -0.19514414E+03   -0.63272305E-02    0.14191723E-01
    4   -0.19514556E+03   -0.14224033E-02    0.93692473E-03
    5   -0.19514557E+03   -0.15756364E-04    0.35816298E-03
    6   -0.19514557E+03   -0.55031393E-06    0.11660676E-03
    7   -0.19514557E+03   -0.40299341E-07    0.14851173E-04
    8   -0.19514557E+03   -0.38257895E-08    0.24199060E-05
    9   -0.19514557E+03   -0.20571633E-09    0.60924588E-06
   10   -0.19514557E+03   -0.37516656E-11    0.19647398E-06
   11   -0.19514557E+03   -0.28421709E-13    0.24994322E-07
   12   -0.19514557E+03    0.28421709E-13    0.70930573E-08

Total Energy:                     -192.0359014375 H        -5225.5628 eV
Extrapolated to 0K:               -192.0359014375 H        -5225.5628 eV
Total Mermin free energy:         -192.0359014375 H        -5225.5628 eV
Force related energy:             -192.0359014375 H        -5225.5628 eV

Volume:                              0.944797E+04 au^3   0.140005E+04 A^3
Pressure:                            0.472513E-03 au     0.139018E+11 Pa
>> Charges saved for restart in charges.bin

total energy  -1.9203590E+02 H       energy change -1.5865674E-01 H
gradient norm  5.8251639E-01 H/a0    max. gradient  1.6122753E-01 H/a0
step length    5.7517675E-01 a0      max. step      2.9596083E-01 a0

--------------------------------------------------------------------------------

***  Geometry step: 2

 iSCC Total electronic   Diff electronic      SCC error    
    1   -0.19514557E+03    0.00000000E+00    0.57080111E-01
    2   -0.19507501E+03    0.70565338E-01    0.34190653E-01
    3   -0.19507758E+03   -0.25754387E-02    0.98085162E-02
    4   -0.19507820E+03   -0.61764976E-03    0.99215108E-03
    5   -0.19507821E+03   -0.63769161E-05    0.27679723E-03
    6   -0.19507821E+03   -0.34262504E-06    0.10161634E-03
    7   -0.19507821E+03   -0.18902739E-07    0.15746808E-04
    8   -0.19507821E+03   -0.19862512E-08    0.15287497E-05
    9   -0.19507821E+03   -0.12587975E-09    0.55180231E-06
   10   -0.19507821E+03   -0.21600499E-11    0.14092662E-06
   11   -0.19507821E+03    0.00000000E+00    0.21096287E-07
   12   -0.19507821E+03   -0.28421709E-13    0.43495754E-08

Total Energy:                     -192.1708304840 H        -5229.2344 eV
Extrapolated to 0K:               -192.1708304840 H        -5229.2344 eV
Total Mermin free energy:         -192.1708304840 H        -5229.2344 eV
Force related energy:             -192.1708304840 H        -5229.2344 eV

Volume:                              0.943829E+04 au^3   0.139861E+04 A^3
Pressure:                            0.401656E-03 au     0.118171E+11 Pa
>> Charges saved for restart in charges.bin

total energy  -1.9217083E+02 H       energy change -1.3492905E-01 H
gradient norm  2.8453030E-01 H/a0    max. gradient  5.4834319E-02 H/a0
step length    3.7994065E-01 a0      max. step      7.7426500E-02 a0

--------------------------------------------------------------------------------

***  Geometry step: 3

 iSCC Total electronic   Diff electronic      SCC error    
    1   -0.19507821E+03    0.00000000E+00    0.59018362E-01
    2   -0.19488925E+03    0.18896218E+00    0.35017607E-01
    3   -0.19489088E+03   -0.16284035E-02    0.78092121E-02
    4   -0.19489130E+03   -0.42475654E-03    0.68494454E-03
    5   -0.19489131E+03   -0.62061123E-05    0.24077151E-03
    6   -0.19489131E+03   -0.34486678E-06    0.11256529E-03
    7   -0.19489131E+03   -0.10192679E-07    0.13976911E-04
    8   -0.19489131E+03   -0.12323653E-08    0.14000119E-05
    9   -0.19489131E+03   -0.63522521E-10    0.36742527E-06
   10   -0.19489131E+03   -0.10231815E-11    0.60091322E-07
   11   -0.19489131E+03    0.85265128E-13    0.14060130E-07
   12   -0.19489131E+03   -0.85265128E-13    0.40957371E-08

Total Energy:                     -192.2565705560 H        -5231.5675 eV
Extrapolated to 0K:               -192.2565705560 H        -5231.5675 eV
Total Mermin free energy:         -192.2565705560 H        -5231.5675 eV
Force related energy:             -192.2565705560 H        -5231.5675 eV

Volume:                              0.950836E+04 au^3   0.140899E+04 A^3
Pressure:                            0.297762E-03 au     0.876044E+10 Pa
>> Charges saved for restart in charges.bin

total energy  -1.9225657E+02 H       energy change -8.5740072E-02 H
gradient norm  1.8350252E-01 H/a0    max. gradient  6.2053979E-02 H/a0
step length    4.7929737E-01 a0      max. step      9.6137435E-02 a0

--------------------------------------------------------------------------------

***  Geometry step: 4

 iSCC Total electronic   Diff electronic      SCC error    
    1   -0.19489131E+03    0.00000000E+00    0.45465485E-01
    2   -0.19466587E+03    0.22543348E+00    0.26399914E-01
    3   -0.19466620E+03   -0.32451857E-03    0.28560448E-02
    4   -0.19466629E+03   -0.93496586E-04    0.53032299E-03
    5   -0.19466630E+03   -0.44172657E-05    0.17798139E-03
    6   -0.19466630E+03   -0.14450487E-06    0.76285199E-04
    7   -0.19466630E+03   -0.28448142E-08    0.56871989E-05
    8   -0.19466630E+03   -0.48115112E-09    0.16048422E-05
    9   -0.19466630E+03   -0.30723868E-10    0.38480846E-06
   10   -0.19466630E+03   -0.45474735E-12    0.44378333E-07
   11   -0.19466630E+03   -0.85265128E-13    0.14740333E-07
   12   -0.19466630E+03    0.56843419E-13    0.36443777E-08

Total Energy:                     -192.3029584877 H        -5232.8297 eV
Extrapolated to 0K:               -192.3029584877 H        -5232.8297 eV
Total Mermin free energy:         -192.3029584877 H        -5232.8297 eV
Force related energy:             -192.3029584877 H        -5232.8297 eV

Volume:                              0.961893E+04 au^3   0.142538E+04 A^3
Pressure:                            0.187319E-03 au     0.551112E+10 Pa
>> Charges saved for restart in charges.bin

total energy  -1.9230296E+02 H       energy change -4.6387932E-02 H
gradient norm  1.5174729E-01 H/a0    max. gradient  6.1590584E-02 H/a0
step length    4.4088672E-01 a0      max. step      9.2618394E-02 a0

--------------------------------------------------------------------------------

***  Geometry step: 5

 iSCC Total electronic   Diff electronic      SCC error    
    1   -0.19466630E+03    0.00000000E+00    0.29318776E-01
    2   -0.19446978E+03    0.19651120E+00    0.16547714E-01
    3   -0.19447021E+03   -0.42206637E-03    0.27124199E-02
    4   -0.19447030E+03   -0.94407463E-04    0.37719504E-03
    5   -0.19447030E+03   -0.30761132E-05    0.14941262E-03
    6   -0.19447030E+03   -0.14873504E-06    0.69055276E-04
    7   -0.19447030E+03   -0.22199629E-08    0.62166712E-05
    8   -0.19447030E+03   -0.38210146E-09    0.13934190E-05
    9   -0.19447030E+03   -0.24954261E-10    0.28457775E-06
   10   -0.19447030E+03   -0.45474735E-12    0.54662383E-07
   11   -0.19447030E+03   -0.28421709E-13    0.13312063E-07
   12   -0.19447030E+03    0.28421709E-13    0.28126523E-08

Total Energy:                     -192.3271048161 H        -5233.4868 eV
Extrapolated to 0K:               -192.3271048161 H        -5233.4868 eV
Total Mermin free energy:         -192.3271048161 H        -5233.4868 eV
Force related energy:             -192.3271048161 H        -5233.4868 eV

Volume:                              0.971703E+04 au^3   0.143992E+04 A^3
Pressure:                            0.101904E-03 au     0.299813E+10 Pa
>> Charges saved for restart in charges.bin

total energy  -1.9232710E+02 H       energy change -2.4146328E-02 H
gradient norm  1.2261199E-01 H/a0    max. gradient  5.9024507E-02 H/a0
step length    4.0096840E-01 a0      max. step      9.6861210E-02 a0

--------------------------------------------------------------------------------

***  Geometry step: 6

 iSCC Total electronic   Diff electronic      SCC error    
    1   -0.19447030E+03    0.00000000E+00    0.33011835E-01
    2   -0.19435176E+03    0.11854139E+00    0.14174462E-01
    3   -0.19435228E+03   -0.51766417E-03    0.21903201E-02
    4   -0.19435240E+03   -0.11509426E-03    0.42087940E-03
    5   -0.19435240E+03   -0.93368027E-06    0.81110466E-04
    6   -0.19435240E+03   -0.89904916E-07    0.43529975E-04
    7   -0.19435240E+03   -0.24564031E-08    0.89811858E-05
    8   -0.19435240E+03   -0.22819791E-09    0.10238369E-05
    9   -0.19435240E+03   -0.12562396E-10    0.26889590E-06
   10   -0.19435240E+03   -0.59685590E-12    0.62187006E-07
   11   -0.19435240E+03    0.85265128E-13    0.14243101E-07
   12   -0.19435240E+03   -0.28421709E-13    0.17783384E-08

Total Energy:                     -192.3375165194 H        -5233.7701 eV
Extrapolated to 0K:               -192.3375165194 H        -5233.7701 eV
Total Mermin free energy:         -192.3375165194 H        -5233.7701 eV
Force related energy:             -192.3375165194 H        -5233.7701 eV

Volume:                              0.977076E+04 au^3   0.144788E+04 A^3
Pressure:                            0.487017E-04 au     0.143285E+10 Pa
>> Charges saved for restart in charges.bin

total energy  -1.9233752E+02 H       energy change -1.0411703E-02 H
gradient norm  1.2167889E-01 H/a0    max. gradient  7.2243443E-02 H/a0
step length    3.1699463E-01 a0      max. step      6.1139687E-02 a0

--------------------------------------------------------------------------------

***  Geometry step: 7

 iSCC Total electronic   Diff electronic      SCC error    
    1   -0.19435240E+03    0.00000000E+00    0.17650863E-01
    2   -0.19432387E+03    0.28522951E-01    0.72033897E-02
    3   -0.19432412E+03   -0.24303542E-03    0.15329903E-02
    4   -0.19432417E+03   -0.54744745E-04    0.28113135E-03
    5   -0.19432417E+03   -0.45558417E-06    0.40851089E-04
    6   -0.19432417E+03   -0.30254142E-07    0.20330906E-04
    7   -0.19432417E+03   -0.62465233E-09    0.51431410E-05
    8   -0.19432417E+03   -0.65000449E-10    0.39077022E-06
    9   -0.19432417E+03   -0.41495696E-11    0.13348135E-06
   10   -0.19432417E+03    0.00000000E+00    0.21833843E-07
   11   -0.19432417E+03   -0.85265128E-13    0.20646405E-08

Total Energy:                     -192.3450691602 H        -5233.9756 eV
Extrapolated to 0K:               -192.3450691602 H        -5233.9756 eV
Total Mermin free energy:         -192.3450691602 H        -5233.9756 eV
Force related energy:             -192.3450691602 H        -5233.9756 eV

Volume:                              0.978738E+04 au^3   0.145034E+04 A^3
Pressure:                            0.338030E-04 au     0.994518E+09 Pa
>> Charges saved for restart in charges.bin

total energy  -1.9234507E+02 H       energy change -7.5526408E-03 H
gradient norm  6.9735530E-02 H/a0    max. gradient  3.3870911E-02 H/a0
step length    1.5925289E-01 a0      max. step      3.4583803E-02 a0

--------------------------------------------------------------------------------

***  Geometry step: 8

 iSCC Total electronic   Diff electronic      SCC error    
    1   -0.19432417E+03    0.00000000E+00    0.17189663E-01
    2   -0.19434680E+03   -0.22626811E-01    0.10482813E-01
    3   -0.19434692E+03   -0.11841355E-03    0.19160820E-02
    4   -0.19434695E+03   -0.32216109E-04    0.22079958E-03
    5   -0.19434695E+03   -0.99482511E-06    0.84045367E-04
    6   -0.19434695E+03   -0.44438451E-07    0.24780301E-04
    7   -0.19434695E+03   -0.81271878E-09    0.35625560E-05
    8   -0.19434695E+03   -0.80262907E-10    0.60457694E-06
    9   -0.19434695E+03   -0.77875484E-11    0.15347421E-06
   10   -0.19434695E+03   -0.31263880E-12    0.21318626E-07
   11   -0.19434695E+03    0.85265128E-13    0.37036534E-08

Total Energy:                     -192.3511135133 H        -5234.1401 eV
Extrapolated to 0K:               -192.3511135133 H        -5234.1401 eV
Total Mermin free energy:         -192.3511135133 H        -5234.1401 eV
Force related energy:             -192.3511135133 H        -5234.1401 eV

Volume:                              0.977387E+04 au^3   0.144834E+04 A^3
Pressure:                            0.395411E-04 au     0.116334E+10 Pa
>> Charges saved for restart in charges.bin

total energy  -1.9235111E+02 H       energy change -6.0443531E-03 H
gradient norm  5.6818303E-02 H/a0    max. gradient  2.4036155E-02 H/a0
step length    1.6194406E-01 a0      max. step      3.0631155E-02 a0

--------------------------------------------------------------------------------

***  Geometry step: 9

 iSCC Total electronic   Diff electronic      SCC error    
    1   -0.19434695E+03    0.00000000E+00    0.15403302E-01
    2   -0.19436863E+03   -0.21675603E-01    0.92516113E-02
    3   -0.19436871E+03   -0.83206500E-04    0.16099696E-02
    4   -0.19436873E+03   -0.23339869E-04    0.23361858E-03
    5   -0.19436873E+03   -0.10182680E-05    0.85947939E-04
    6   -0.19436873E+03   -0.48634377E-07    0.21715245E-04
    7   -0.19436873E+03   -0.12543637E-08    0.50392493E-05
    8   -0.19436873E+03   -0.63096195E-10    0.52856438E-06
    9   -0.19436873E+03   -0.66222583E-11    0.14762081E-06
   10   -0.19436873E+03   -0.31263880E-12    0.16336430E-07
   11   -0.19436873E+03    0.28421709E-13    0.32419822E-08

Total Energy:                     -192.3552960258 H        -5234.2539 eV
Extrapolated to 0K:               -192.3552960258 H        -5234.2539 eV
Total Mermin free energy:         -192.3552960258 H        -5234.2539 eV
Force related energy:             -192.3552960258 H        -5234.2539 eV

Volume:                              0.976319E+04 au^3   0.144676E+04 A^3
Pressure:                            0.454536E-04 au     0.133729E+10 Pa
>> Charges saved for restart in charges.bin

total energy  -1.9235530E+02 H       energy change -4.1825125E-03 H
gradient norm  4.5466136E-02 H/a0    max. gradient  1.5709323E-02 H/a0
step length    1.8817530E-01 a0      max. step      3.3519709E-02 a0

--------------------------------------------------------------------------------

***  Geometry step: 10

 iSCC Total electronic   Diff electronic      SCC error    
    1   -0.19436873E+03    0.00000000E+00    0.69836949E-02
    2   -0.19436988E+03   -0.11479676E-02    0.34008076E-02
    3   -0.19436992E+03   -0.37517438E-04    0.92732608E-03
    4   -0.19436993E+03   -0.92051433E-05    0.10437041E-03
    5   -0.19436993E+03   -0.30258428E-06    0.23105619E-04
    6   -0.19436993E+03   -0.15598772E-07    0.87811900E-05
    7   -0.19436993E+03   -0.48527227E-09    0.19908187E-05
    8   -0.19436993E+03   -0.39449333E-10    0.26944917E-06
    9   -0.19436993E+03   -0.62527761E-12    0.51246990E-07
   10   -0.19436993E+03   -0.11368684E-12    0.15954076E-07
   11   -0.19436993E+03    0.00000000E+00    0.24583380E-08

Total Energy:                     -192.3577067880 H        -5234.3195 eV
Extrapolated to 0K:               -192.3577067880 H        -5234.3195 eV
Total Mermin free energy:         -192.3577067880 H        -5234.3195 eV
Force related energy:             -192.3577067880 H        -5234.3195 eV

Volume:                              0.976465E+04 au^3   0.144697E+04 A^3
Pressure:                            0.430744E-04 au     0.126729E+10 Pa
>> Charges saved for restart in charges.bin

total energy  -1.9235771E+02 H       energy change -2.4107622E-03 H
gradient norm  3.6870344E-02 H/a0    max. gradient  9.3566572E-03 H/a0
step length    1.3981165E-01 a0      max. step      2.2946257E-02 a0

--------------------------------------------------------------------------------

***  Geometry step: 11

 iSCC Total electronic   Diff electronic      SCC error    
    1   -0.19436993E+03    0.00000000E+00    0.64716520E-02
    2   -0.19436384E+03    0.60865569E-02    0.42593126E-02
    3   -0.19436391E+03   -0.64246452E-04    0.14634310E-02
    4   -0.19436392E+03   -0.14551380E-04    0.14760229E-03
    5   -0.19436392E+03   -0.35777987E-06    0.35084438E-04
    6   -0.19436392E+03   -0.22564478E-07    0.12831665E-04
    7   -0.19436392E+03   -0.63377570E-09    0.35394117E-05
    8   -0.19436392E+03   -0.42774673E-10    0.37678395E-06
    9   -0.19436392E+03   -0.19042545E-11    0.11688304E-06
   10   -0.19436392E+03   -0.14210855E-12    0.19492974E-07
   11   -0.19436392E+03    0.00000000E+00    0.24646356E-08

Total Energy:                     -192.3602599399 H        -5234.3890 eV
Extrapolated to 0K:               -192.3602599399 H        -5234.3890 eV
Total Mermin free energy:         -192.3602599399 H        -5234.3890 eV
Force related energy:             -192.3602599399 H        -5234.3890 eV

Volume:                              0.977527E+04 au^3   0.144855E+04 A^3
Pressure:                            0.379579E-04 au     0.111676E+10 Pa
>> Charges saved for restart in charges.bin

total energy  -1.9236026E+02 H       energy change -2.5531519E-03 H
gradient norm  3.7824103E-02 H/a0    max. gradient  1.5633421E-02 H/a0
step length    1.6816171E-01 a0      max. step      3.0158223E-02 a0

--------------------------------------------------------------------------------

***  Geometry step: 12

 iSCC Total electronic   Diff electronic      SCC error    
    1   -0.19436392E+03    0.00000000E+00    0.75574523E-02
    2   -0.19434807E+03    0.15849893E-01    0.44614370E-02
    3   -0.19434811E+03   -0.38139727E-04    0.11442979E-02
    4   -0.19434812E+03   -0.96643197E-05    0.11430612E-03
    5   -0.19434812E+03   -0.22714244E-06    0.38505675E-04
    6   -0.19434812E+03   -0.13369203E-07    0.14231521E-04
    7   -0.19434812E+03   -0.27029046E-09    0.27386312E-05
    8   -0.19434812E+03   -0.17251978E-10    0.36989080E-06
    9   -0.19434812E+03   -0.19895197E-11    0.11153161E-06
   10   -0.19434812E+03    0.00000000E+00    0.12561615E-07
   11   -0.19434812E+03   -0.28421709E-13    0.12474093E-08

Total Energy:                     -192.3622055167 H        -5234.4419 eV
Extrapolated to 0K:               -192.3622055167 H        -5234.4419 eV
Total Mermin free energy:         -192.3622055167 H        -5234.4419 eV
Force related energy:             -192.3622055167 H        -5234.4419 eV

Volume:                              0.979752E+04 au^3   0.145184E+04 A^3
Pressure:                            0.292905E-04 au     0.861757E+09 Pa
>> Charges saved for restart in charges.bin

total energy  -1.9236221E+02 H       energy change -1.9455768E-03 H
gradient norm  3.6904960E-02 H/a0    max. gradient  1.3297537E-02 H/a0
step length    1.4466714E-01 a0      max. step      2.6620469E-02 a0

--------------------------------------------------------------------------------

***  Geometry step: 13

 iSCC Total electronic   Diff electronic      SCC error    
    1   -0.19434812E+03    0.00000000E+00    0.57593760E-02
    2   -0.19433590E+03    0.12216625E-01    0.35225508E-02
    3   -0.19433593E+03   -0.25632280E-04    0.89332084E-03
    4   -0.19433593E+03   -0.61860234E-05    0.89021020E-04
    5   -0.19433593E+03   -0.19588666E-06    0.37865896E-04
    6   -0.19433593E+03   -0.10325323E-07    0.13248420E-04
    7   -0.19433593E+03   -0.20045832E-09    0.21456174E-05
    8   -0.19433593E+03   -0.14154011E-10    0.35207680E-06
    9   -0.19433593E+03   -0.13358203E-11    0.82637579E-07
   10   -0.19433593E+03   -0.19895197E-12    0.11000935E-07
   11   -0.19433593E+03    0.11368684E-12    0.14105987E-08

Total Energy:                     -192.3639192642 H        -5234.4886 eV
Extrapolated to 0K:               -192.3639192642 H        -5234.4886 eV
Total Mermin free energy:         -192.3639192642 H        -5234.4886 eV
Force related energy:             -192.3639192642 H        -5234.4886 eV

Volume:                              0.982139E+04 au^3   0.145538E+04 A^3
Pressure:                            0.228241E-04 au     0.671507E+09 Pa
>> Charges saved for restart in charges.bin

total energy  -1.9236392E+02 H       energy change -1.7137475E-03 H
gradient norm  3.1649491E-02 H/a0    max. gradient  1.3638500E-02 H/a0
step length    1.4458831E-01 a0      max. step      2.7712278E-02 a0

--------------------------------------------------------------------------------

***  Geometry step: 14

 iSCC Total electronic   Diff electronic      SCC error    
    1   -0.19433593E+03    0.00000000E+00    0.51242862E-02
    2   -0.19432632E+03    0.96163356E-02    0.30679263E-02
    3   -0.19432634E+03   -0.23485214E-04    0.90563585E-03
    4   -0.19432635E+03   -0.50637917E-05    0.12793467E-03
    5   -0.19432635E+03   -0.17147539E-06    0.32595856E-04
    6   -0.19432635E+03   -0.14646702E-07    0.10439769E-04
    7   -0.19432635E+03   -0.42535930E-09    0.23838712E-05
    8   -0.19432635E+03   -0.15887736E-10    0.32985563E-06
    9   -0.19432635E+03   -0.13073986E-11    0.60847382E-07
   10   -0.19432635E+03   -0.17053026E-12    0.10465902E-07
   11   -0.19432635E+03    0.56843419E-13    0.13681545E-08

Total Energy:                     -192.3652637274 H        -5234.5252 eV
Extrapolated to 0K:               -192.3652637274 H        -5234.5252 eV
Total Mermin free energy:         -192.3652637274 H        -5234.5252 eV
Force related energy:             -192.3652637274 H        -5234.5252 eV

Volume:                              0.984704E+04 au^3   0.145918E+04 A^3
Pressure:                            0.171677E-04 au     0.505091E+09 Pa
>> Charges saved for restart in charges.bin

total energy  -1.9236526E+02 H       energy change -1.3444632E-03 H
gradient norm  2.5029963E-02 H/a0    max. gradient  4.5002710E-03 H/a0
step length    1.3264564E-01 a0      max. step      2.5433665E-02 a0

--------------------------------------------------------------------------------

***  Geometry step: 15

 iSCC Total electronic   Diff electronic      SCC error    
    1   -0.19432635E+03    0.00000000E+00    0.53352892E-02
    2   -0.19432670E+03   -0.35090680E-03    0.29974901E-02
    3   -0.19432672E+03   -0.24828058E-04    0.79001263E-03
    4   -0.19432673E+03   -0.54326651E-05    0.12051265E-03
    5   -0.19432673E+03   -0.13062134E-06    0.42128196E-04
    6   -0.19432673E+03   -0.11855633E-07    0.11501494E-04
    7   -0.19432673E+03   -0.41123371E-09    0.26039251E-05
    8   -0.19432673E+03   -0.12562396E-10    0.33560476E-06
    9   -0.19432673E+03   -0.13926638E-11    0.63599340E-07
   10   -0.19432673E+03   -0.28421709E-13    0.10099488E-07
   11   -0.19432673E+03    0.00000000E+00    0.12722814E-08

Total Energy:                     -192.3663495243 H        -5234.5547 eV
Extrapolated to 0K:               -192.3663495243 H        -5234.5547 eV
Total Mermin free energy:         -192.3663495243 H        -5234.5547 eV
Force related energy:             -192.3663495243 H        -5234.5547 eV

Volume:                              0.986411E+04 au^3   0.146171E+04 A^3
Pressure:                            0.150893E-04 au     0.443943E+09 Pa
>> Charges saved for restart in charges.bin

total energy  -1.9236635E+02 H       energy change -1.0857969E-03 H
gradient norm  2.5305317E-02 H/a0    max. gradient  5.2718400E-03 H/a0
step length    1.1547623E-01 a0      max. step      2.1354010E-02 a0

--------------------------------------------------------------------------------

***  Geometry step: 16

 iSCC Total electronic   Diff electronic      SCC error    
    1   -0.19432673E+03    0.00000000E+00    0.75154468E-02
    2   -0.19433211E+03   -0.53779517E-02    0.41899584E-02
    3   -0.19433213E+03   -0.26983887E-04    0.86486285E-03
    4   -0.19433214E+03   -0.59129751E-05    0.11473443E-03
    5   -0.19433214E+03   -0.14111174E-06    0.47697858E-04
    6   -0.19433214E+03   -0.13564971E-07    0.10960174E-04
    7   -0.19433214E+03   -0.38204462E-09    0.20694242E-05
    8   -0.19433214E+03   -0.10089707E-10    0.34091456E-06
    9   -0.19433214E+03   -0.20463631E-11    0.75427335E-07
   10   -0.19433214E+03    0.00000000E+00    0.87254870E-08

Total Energy:                     -192.3673237455 H        -5234.5812 eV
Extrapolated to 0K:               -192.3673237455 H        -5234.5812 eV
Total Mermin free energy:         -192.3673237455 H        -5234.5812 eV
Force related energy:             -192.3673237455 H        -5234.5812 eV

Volume:                              0.987834E+04 au^3   0.146382E+04 A^3
Pressure:                            0.153148E-04 au     0.450577E+09 Pa
>> Charges saved for restart in charges.bin

total energy  -1.9236732E+02 H       energy change -9.7422121E-04 H
gradient norm  2.6091664E-02 H/a0    max. gradient  9.1178670E-03 H/a0
step length    1.1709897E-01 a0      max. step      2.0704371E-02 a0

--------------------------------------------------------------------------------

***  Geometry step: 17

 iSCC Total electronic   Diff electronic      SCC error    
    1   -0.19433214E+03    0.00000000E+00    0.54899810E-02
    2   -0.19433752E+03   -0.53838716E-02    0.31311454E-02
    3   -0.19433754E+03   -0.12133707E-04    0.67762953E-03
    4   -0.19433754E+03   -0.25918310E-05    0.81112585E-04
    5   -0.19433754E+03   -0.70695734E-07    0.29146481E-04
    6   -0.19433754E+03   -0.49323035E-08    0.62029755E-05
    7   -0.19433754E+03   -0.12920509E-09    0.13725719E-05
    8   -0.19433754E+03   -0.42632564E-11    0.31698923E-06
    9   -0.19433754E+03   -0.96633812E-12    0.57339165E-07
   10   -0.19433754E+03    0.00000000E+00    0.53928373E-08

Total Energy:                     -192.3681312725 H        -5234.6032 eV
Extrapolated to 0K:               -192.3681312725 H        -5234.6032 eV
Total Mermin free energy:         -192.3681312725 H        -5234.6032 eV
Force related energy:             -192.3681312725 H        -5234.6032 eV

Volume:                              0.988827E+04 au^3   0.146529E+04 A^3
Pressure:                            0.163979E-04 au     0.482444E+09 Pa
>> Charges saved for restart in charges.bin

total energy  -1.9236813E+02 H       energy change -8.0752693E-04 H
gradient norm  2.3078797E-02 H/a0    max. gradient  5.4869010E-03 H/a0
step length    1.0529536E-01 a0      max. step      1.8969812E-02 a0

--------------------------------------------------------------------------------

***  Geometry step: 18

 iSCC Total electronic   Diff electronic      SCC error    
    1   -0.19433754E+03    0.00000000E+00    0.39218428E-02
    2   -0.19433699E+03    0.54376667E-03    0.20847059E-02
    3   -0.19433701E+03   -0.15070274E-04    0.71902307E-03
    4   -0.19433701E+03   -0.29581362E-05    0.13333031E-03
    5   -0.19433701E+03   -0.65455623E-07    0.19956659E-04
    6   -0.19433701E+03   -0.70392616E-08    0.55995303E-05
    7   -0.19433701E+03   -0.12909140E-09    0.16459551E-05
    8   -0.19433701E+03   -0.31832315E-11    0.29751049E-06
    9   -0.19433701E+03   -0.76738615E-12    0.49536211E-07
   10   -0.19433701E+03    0.28421709E-13    0.53219713E-08

Total Energy:                     -192.3690161198 H        -5234.6273 eV
Extrapolated to 0K:               -192.3690161198 H        -5234.6273 eV
Total Mermin free energy:         -192.3690161198 H        -5234.6273 eV
Force related energy:             -192.3690161198 H        -5234.6273 eV

Volume:                              0.990444E+04 au^3   0.146769E+04 A^3
Pressure:                            0.152025E-04 au     0.447272E+09 Pa
>> Charges saved for restart in charges.bin

total energy  -1.9236902E+02 H       energy change -8.8484738E-04 H
gradient norm  2.1076530E-02 H/a0    max. gradient  4.9247346E-03 H/a0
step length    1.2918090E-01 a0      max. step      2.2255440E-02 a0

--------------------------------------------------------------------------------

***  Geometry step: 19

 iSCC Total electronic   Diff electronic      SCC error    
    1   -0.19433701E+03    0.00000000E+00    0.47812900E-02
    2   -0.19433171E+03    0.53063810E-02    0.20134481E-02
    3   -0.19433172E+03   -0.17886732E-04    0.58343837E-03
    4   -0.19433173E+03   -0.35969523E-05    0.78440506E-04
    5   -0.19433173E+03   -0.59918449E-07    0.13764513E-04
    6   -0.19433173E+03   -0.49484754E-08    0.55045559E-05
    7   -0.19433173E+03   -0.87453600E-10    0.14071710E-05
    8   -0.19433173E+03   -0.50306426E-11    0.26191081E-06
    9   -0.19433173E+03   -0.39790393E-12    0.59193439E-07
   10   -0.19433173E+03   -0.28421709E-13    0.75705642E-08

Total Energy:                     -192.3698076587 H        -5234.6488 eV
Extrapolated to 0K:               -192.3698076587 H        -5234.6488 eV
Total Mermin free energy:         -192.3698076587 H        -5234.6488 eV
Force related energy:             -192.3698076587 H        -5234.6488 eV

Volume:                              0.992308E+04 au^3   0.147045E+04 A^3
Pressure:                            0.120499E-04 au     0.354519E+09 Pa
>> Charges saved for restart in charges.bin

total energy  -1.9236981E+02 H       energy change -7.9153884E-04 H
gradient norm  2.1500960E-02 H/a0    max. gradient  6.2331265E-03 H/a0
step length    1.3195431E-01 a0      max. step      2.3318416E-02 a0

--------------------------------------------------------------------------------

***  Geometry step: 20

 iSCC Total electronic   Diff electronic      SCC error    
    1   -0.19433173E+03    0.00000000E+00    0.47989100E-02
    2   -0.19432455E+03    0.71737974E-02    0.27677123E-02
    3   -0.19432457E+03   -0.13042747E-04    0.54962009E-03
    4   -0.19432457E+03   -0.30200335E-05    0.76624433E-04
    5   -0.19432457E+03   -0.74105230E-07    0.30244577E-04
    6   -0.19432457E+03   -0.46920263E-08    0.79452074E-05
    7   -0.19432457E+03   -0.14065904E-09    0.12030449E-05
    8   -0.19432457E+03   -0.46611603E-11    0.24397076E-06
    9   -0.19432457E+03   -0.79580786E-12    0.48062665E-07
   10   -0.19432457E+03   -0.28421709E-13    0.66888912E-08

Total Energy:                     -192.3704772796 H        -5234.6670 eV
Extrapolated to 0K:               -192.3704772796 H        -5234.6670 eV
Total Mermin free energy:         -192.3704772796 H        -5234.6670 eV
Force related energy:             -192.3704772796 H        -5234.6670 eV

Volume:                              0.994222E+04 au^3   0.147328E+04 A^3
Pressure:                            0.843509E-05 au     0.248169E+09 Pa
>> Charges saved for restart in charges.bin

total energy  -1.9237048E+02 H       energy change -6.6962091E-04 H
gradient norm  2.0455699E-02 H/a0    max. gradient  6.2948683E-03 H/a0
step length    1.1589293E-01 a0      max. step      2.1472795E-02 a0

--------------------------------------------------------------------------------

***  Geometry step: 21

 iSCC Total electronic   Diff electronic      SCC error    
    1   -0.19432457E+03    0.00000000E+00    0.59596234E-02
    2   -0.19431832E+03    0.62521569E-02    0.34230437E-02
    3   -0.19431833E+03   -0.10354325E-04    0.53660128E-03
    4   -0.19431833E+03   -0.26281524E-05    0.76670649E-04
    5   -0.19431833E+03   -0.78546805E-07    0.32646073E-04
    6   -0.19431833E+03   -0.37190659E-08    0.61831057E-05
    7   -0.19431833E+03   -0.12752821E-09    0.11153080E-05
    8   -0.19431833E+03   -0.41779913E-11    0.30258246E-06
    9   -0.19431833E+03   -0.10800250E-11    0.49867380E-07
   10   -0.19431833E+03    0.11368684E-12    0.60285403E-08

Total Energy:                     -192.3710520398 H        -5234.6827 eV
Extrapolated to 0K:               -192.3710520398 H        -5234.6827 eV
Total Mermin free energy:         -192.3710520398 H        -5234.6827 eV
Force related energy:             -192.3710520398 H        -5234.6827 eV

Volume:                              0.996117E+04 au^3   0.147609E+04 A^3
Pressure:                            0.496747E-05 au     0.146148E+09 Pa
>> Charges saved for restart in charges.bin

total energy  -1.9237105E+02 H       energy change -5.7476023E-04 H
gradient norm  1.7298434E-02 H/a0    max. gradient  4.1700270E-03 H/a0
step length    1.1264296E-01 a0      max. step      2.1307958E-02 a0

--------------------------------------------------------------------------------

***  Geometry step: 22

 iSCC Total electronic   Diff electronic      SCC error    
    1   -0.19431833E+03    0.00000000E+00    0.24868701E-02
    2   -0.19431761E+03    0.71944343E-03    0.14260687E-02
    3   -0.19431762E+03   -0.60731755E-05    0.41408256E-03
    4   -0.19431762E+03   -0.13857053E-05    0.50316803E-04
    5   -0.19431762E+03   -0.29546868E-07    0.18569757E-04
    6   -0.19431762E+03   -0.15507453E-08    0.36861195E-05
    7   -0.19431762E+03   -0.48800075E-10    0.79322499E-06
    8   -0.19431762E+03   -0.13642421E-11    0.16864416E-06
    9   -0.19431762E+03   -0.28421709E-12    0.41270285E-07
   10   -0.19431762E+03    0.28421709E-13    0.27947999E-08

Total Energy:                     -192.3714395300 H        -5234.6932 eV
Extrapolated to 0K:               -192.3714395300 H        -5234.6932 eV
Total Mermin free energy:         -192.3714395300 H        -5234.6932 eV
Force related energy:             -192.3714395300 H        -5234.6932 eV

Volume:                              0.997313E+04 au^3   0.147787E+04 A^3
Pressure:                            0.337249E-05 au     0.992221E+08 Pa
>> Charges saved for restart in charges.bin

total energy  -1.9237144E+02 H       energy change -3.8749016E-04 H
gradient norm  1.3370978E-02 H/a0    max. gradient  2.5863898E-03 H/a0
step length    7.6261959E-02 a0      max. step      1.6101704E-02 a0

--------------------------------------------------------------------------------

***  Geometry step: 23

 iSCC Total electronic   Diff electronic      SCC error    
    1   -0.19431762E+03    0.00000000E+00    0.25423328E-02
    2   -0.19432281E+03   -0.51950207E-02    0.11552838E-02
    3   -0.19432282E+03   -0.78557578E-05    0.37716782E-03
    4   -0.19432282E+03   -0.17273548E-05    0.61905016E-04
    5   -0.19432282E+03   -0.21803515E-07    0.83920135E-05
    6   -0.19432282E+03   -0.16832189E-08    0.30032004E-05
    7   -0.19432282E+03   -0.38767212E-10    0.89218674E-06
    8   -0.19432282E+03   -0.12221335E-11    0.15753629E-06
    9   -0.19432282E+03   -0.14210855E-12    0.31947144E-07
   10   -0.19432282E+03   -0.28421709E-13    0.32787555E-08

Total Energy:                     -192.3717454823 H        -5234.7015 eV
Extrapolated to 0K:               -192.3717454823 H        -5234.7015 eV
Total Mermin free energy:         -192.3717454823 H        -5234.7015 eV
Force related energy:             -192.3717454823 H        -5234.7015 eV

Volume:                              0.998020E+04 au^3   0.147891E+04 A^3
Pressure:                            0.411906E-05 au     0.121187E+09 Pa
>> Charges saved for restart in charges.bin

total energy  -1.9237175E+02 H       energy change -3.0595237E-04 H
gradient norm  1.2417175E-02 H/a0    max. gradient  2.8309267E-03 H/a0
step length    6.5847146E-02 a0      max. step      1.4943024E-02 a0

--------------------------------------------------------------------------------

***  Geometry step: 24

 iSCC Total electronic   Diff electronic      SCC error    
    1   -0.19432282E+03    0.00000000E+00    0.26160545E-02
    2   -0.19432809E+03   -0.52657596E-02    0.14989057E-02
    3   -0.19432809E+03   -0.53008528E-05    0.31901290E-03
    4   -0.19432810E+03   -0.11820220E-05    0.55223349E-04
    5   -0.19432810E+03   -0.20772262E-07    0.15360620E-04
    6   -0.19432810E+03   -0.12103953E-08    0.33413604E-05
    7   -0.19432810E+03   -0.23987923E-10    0.60117185E-06
    8   -0.19432810E+03   -0.99475983E-12    0.14868083E-06
    9   -0.19432810E+03   -0.22737368E-12    0.30734450E-07
   10   -0.19432810E+03    0.56843419E-13    0.31819178E-08

Total Energy:                     -192.3719575416 H        -5234.7073 eV
Extrapolated to 0K:               -192.3719575416 H        -5234.7073 eV
Total Mermin free energy:         -192.3719575416 H        -5234.7073 eV
Force related energy:             -192.3719575416 H        -5234.7073 eV

Volume:                              0.998498E+04 au^3   0.147962E+04 A^3
Pressure:                            0.538208E-05 au     0.158346E+09 Pa
>> Charges saved for restart in charges.bin

total energy  -1.9237196E+02 H       energy change -2.1205927E-04 H
gradient norm  1.1892416E-02 H/a0    max. gradient  3.2368566E-03 H/a0
step length    5.2129419E-02 a0      max. step      9.7970397E-03 a0

--------------------------------------------------------------------------------

***  Geometry step: 25

 iSCC Total electronic   Diff electronic      SCC error    
    1   -0.19432810E+03    0.00000000E+00    0.31431774E-02
    2   -0.19433128E+03   -0.31825700E-02    0.18004962E-02
    3   -0.19433128E+03   -0.35568532E-05    0.30421450E-03
    4   -0.19433128E+03   -0.81822807E-06    0.42983206E-04
    5   -0.19433128E+03   -0.24261908E-07    0.14745329E-04
    6   -0.19433128E+03   -0.84176577E-09    0.24388801E-05
    7   -0.19433128E+03   -0.14495072E-10    0.38634349E-06
    8   -0.19433128E+03   -0.62527761E-12    0.11914742E-06
    9   -0.19433128E+03   -0.14210855E-12    0.15371633E-07
   10   -0.19433128E+03    0.28421709E-13    0.17933051E-08

Total Energy:                     -192.3721569425 H        -5234.7127 eV
Extrapolated to 0K:               -192.3721569425 H        -5234.7127 eV
Total Mermin free energy:         -192.3721569425 H        -5234.7127 eV
Force related energy:             -192.3721569425 H        -5234.7127 eV

Volume:                              0.999114E+04 au^3   0.148054E+04 A^3
Pressure:                            0.593591E-05 au     0.174640E+09 Pa
>> Charges saved for restart in charges.bin

total energy  -1.9237216E+02 H       energy change -1.9940084E-04 H
gradient norm  1.1268088E-02 H/a0    max. gradient  2.3494767E-03 H/a0
step length    5.3502645E-02 a0      max. step      9.2317324E-03 a0

--------------------------------------------------------------------------------

***  Geometry step: 26

 iSCC Total electronic   Diff electronic      SCC error    
    1   -0.19433128E+03    0.00000000E+00    0.31047655E-02
    2   -0.19433199E+03   -0.70456604E-03    0.17591578E-02
    3   -0.19433199E+03   -0.35273135E-05    0.34694047E-03
    4   -0.19433199E+03   -0.83581668E-06    0.50395950E-04
    5   -0.19433199E+03   -0.30147987E-07    0.16492088E-04
    6   -0.19433199E+03   -0.89741548E-09    0.25943237E-05
    7   -0.19433199E+03   -0.16967761E-10    0.35990587E-06
    8   -0.19433199E+03   -0.79580786E-12    0.11187949E-06
    9   -0.19433199E+03   -0.14210855E-12    0.20328015E-07
   10   -0.19433199E+03   -0.56843419E-13    0.27903075E-08

Total Energy:                     -192.3723884043 H        -5234.7190 eV
Extrapolated to 0K:               -192.3723884043 H        -5234.7190 eV
Total Mermin free energy:         -192.3723884043 H        -5234.7190 eV
Force related energy:             -192.3723884043 H        -5234.7190 eV

Volume:                              0.100008E+05 au^3   0.148196E+04 A^3
Pressure:                            0.544553E-05 au     0.160213E+09 Pa
>> Charges saved for restart in charges.bin

total energy  -1.9237239E+02 H       energy change -2.3146185E-04 H
gradient norm  1.1296482E-02 H/a0    max. gradient  2.2789174E-03 H/a0
step length    6.9177494E-02 a0      max. step      1.3424279E-02 a0

--------------------------------------------------------------------------------

***  Geometry step: 27

 iSCC Total electronic   Diff electronic      SCC error    
    1   -0.19433199E+03    0.00000000E+00    0.21958678E-02
    2   -0.19433001E+03    0.19834222E-02    0.13861532E-02
    3   -0.19433001E+03   -0.36911434E-05    0.39427008E-03
    4   -0.19433001E+03   -0.85965436E-06    0.38455619E-04
    5   -0.19433001E+03   -0.24439800E-07    0.11135250E-04
    6   -0.19433001E+03   -0.11467023E-08    0.22343468E-05
    7   -0.19433001E+03   -0.18189894E-10    0.49447971E-06
    8   -0.19433001E+03   -0.39790393E-12    0.93827349E-07
    9   -0.19433001E+03   -0.19895197E-12    0.25200520E-07
   10   -0.19433001E+03    0.00000000E+00    0.26953018E-08

Total Energy:                     -192.3726191030 H        -5234.7253 eV
Extrapolated to 0K:               -192.3726191030 H        -5234.7253 eV
Total Mermin free energy:         -192.3726191030 H        -5234.7253 eV
Force related energy:             -192.3726191030 H        -5234.7253 eV

Volume:                              0.100125E+05 au^3   0.148370E+04 A^3
Pressure:                            0.375469E-05 au     0.110467E+09 Pa
>> Charges saved for restart in charges.bin

total energy  -1.9237262E+02 H       energy change -2.3069872E-04 H
gradient norm  1.2480487E-02 H/a0    max. gradient  3.8529121E-03 H/a0
step length    7.5419615E-02 a0      max. step      1.5145627E-02 a0

--------------------------------------------------------------------------------

***  Geometry step: 28

 iSCC Total electronic   Diff electronic      SCC error    
    1   -0.19433001E+03    0.00000000E+00    0.24710345E-02
    2   -0.19432682E+03    0.31969702E-02    0.12052421E-02
    3   -0.19432682E+03   -0.54471211E-05    0.42954977E-03
    4   -0.19432682E+03   -0.11311603E-05    0.47479845E-04
    5   -0.19432682E+03   -0.21594929E-07    0.11521461E-04
    6   -0.19432682E+03   -0.18129924E-08    0.32276781E-05
    7   -0.19432682E+03   -0.33594461E-10    0.88004525E-06
    8   -0.19432682E+03   -0.56843419E-12    0.12429602E-06
    9   -0.19432682E+03   -0.19895197E-12    0.36035903E-07
   10   -0.19432682E+03    0.56843419E-13    0.41906549E-08

Total Energy:                     -192.3728601504 H        -5234.7319 eV
Extrapolated to 0K:               -192.3728601504 H        -5234.7319 eV
Total Mermin free energy:         -192.3728601504 H        -5234.7319 eV
Force related energy:             -192.3728601504 H        -5234.7319 eV

Volume:                              0.100255E+05 au^3   0.148562E+04 A^3
Pressure:                            0.193209E-05 au     0.568439E+08 Pa
>> Charges saved for restart in charges.bin

total energy  -1.9237286E+02 H       energy change -2.4104738E-04 H
gradient norm  1.3284424E-02 H/a0    max. gradient  3.4010298E-03 H/a0
step length    8.4902845E-02 a0      max. step      1.8349275E-02 a0

--------------------------------------------------------------------------------

***  Geometry step: 29

 iSCC Total electronic   Diff electronic      SCC error    
    1   -0.19432682E+03    0.00000000E+00    0.21392601E-02
    2   -0.19432341E+03    0.34130284E-02    0.11681709E-02
    3   -0.19432341E+03   -0.42305402E-05    0.24923820E-03
    4   -0.19432341E+03   -0.83520254E-06    0.41703260E-04
    5   -0.19432341E+03   -0.15945574E-07    0.11591885E-04
    6   -0.19432341E+03   -0.11986003E-08    0.28244775E-05
    7   -0.19432341E+03   -0.19042545E-10    0.58035083E-06
    8   -0.19432341E+03   -0.56843419E-12    0.11259792E-06
    9   -0.19432341E+03   -0.85265128E-13    0.29916383E-07
   10   -0.19432341E+03    0.00000000E+00    0.25620190E-08

Total Energy:                     -192.3730893752 H        -5234.7381 eV
Extrapolated to 0K:               -192.3730893752 H        -5234.7381 eV
Total Mermin free energy:         -192.3730893752 H        -5234.7381 eV
Force related energy:             -192.3730893752 H        -5234.7381 eV

Volume:                              0.100376E+05 au^3   0.148742E+04 A^3
Pressure:                           -0.279938E-06 au    -0.823605E+07 Pa
>> Charges saved for restart in charges.bin

total energy  -1.9237309E+02 H       energy change -2.2922473E-04 H
gradient norm  1.1667051E-02 H/a0    max. gradient  2.3835787E-03 H/a0
step length    8.3307179E-02 a0      max. step      1.7404257E-02 a0

--------------------------------------------------------------------------------

***  Geometry step: 30

 iSCC Total electronic   Diff electronic      SCC error    
    1   -0.19432341E+03    0.00000000E+00    0.22898004E-02
    2   -0.19432318E+03    0.23272576E-03    0.88630096E-03
    3   -0.19432319E+03   -0.45022017E-05    0.27181323E-03
    4   -0.19432319E+03   -0.85486624E-06    0.53073701E-04
    5   -0.19432319E+03   -0.13956452E-07    0.11553963E-04
    6   -0.19432319E+03   -0.13666579E-08    0.25282682E-05
    7   -0.19432319E+03   -0.26403768E-10    0.54561337E-06
    8   -0.19432319E+03   -0.65369932E-12    0.95851455E-07
    9   -0.19432319E+03   -0.85265128E-13    0.24722789E-07
   10   -0.19432319E+03   -0.28421709E-13    0.36004826E-08

Total Energy:                     -192.3733151729 H        -5234.7442 eV
Extrapolated to 0K:               -192.3733151729 H        -5234.7442 eV
Total Mermin free energy:         -192.3733151729 H        -5234.7442 eV
Force related energy:             -192.3733151729 H        -5234.7442 eV

Volume:                              0.100459E+05 au^3   0.148865E+04 A^3
Pressure:                           -0.128341E-05 au    -0.377591E+08 Pa
>> Charges saved for restart in charges.bin

total energy  -1.9237332E+02 H       energy change -2.2579775E-04 H
gradient norm  1.0614808E-02 H/a0    max. gradient  2.9151759E-03 H/a0
step length    8.3157066E-02 a0      max. step      1.6868122E-02 a0

--------------------------------------------------------------------------------

***  Geometry step: 31

 iSCC Total electronic   Diff electronic      SCC error    
    1   -0.19432319E+03    0.00000000E+00    0.24336689E-02
    2   -0.19432644E+03   -0.32532320E-02    0.88347151E-03
    3   -0.19432645E+03   -0.47254908E-05    0.26310875E-03
    4   -0.19432645E+03   -0.95080688E-06    0.47119099E-04
    5   -0.19432645E+03   -0.12213803E-07    0.97124503E-05
    6   -0.19432645E+03   -0.13258727E-08    0.25191690E-05
    7   -0.19432645E+03   -0.25494273E-10    0.65642227E-06
    8   -0.19432645E+03   -0.39790393E-12    0.11011300E-06
    9   -0.19432645E+03   -0.14210855E-12    0.27853520E-07
   10   -0.19432645E+03    0.56843419E-13    0.43311665E-08

Total Energy:                     -192.3735303246 H        -5234.7501 eV
Extrapolated to 0K:               -192.3735303246 H        -5234.7501 eV
Total Mermin free energy:         -192.3735303246 H        -5234.7501 eV
Force related energy:             -192.3735303246 H        -5234.7501 eV

Volume:                              0.100504E+05 au^3   0.148932E+04 A^3
Pressure:                           -0.876626E-06 au    -0.257912E+08 Pa
>> Charges saved for restart in charges.bin

total energy  -1.9237353E+02 H       energy change -2.1515175E-04 H
gradient norm  1.1208840E-02 H/a0    max. gradient  3.9230030E-03 H/a0
step length    8.5964705E-02 a0      max. step      1.4883759E-02 a0

--------------------------------------------------------------------------------

***  Geometry step: 32

 iSCC Total electronic   Diff electronic      SCC error    
    1   -0.19432645E+03    0.00000000E+00    0.16884698E-02
    2   -0.19433087E+03   -0.44238975E-02    0.68133701E-03
    3   -0.19433087E+03   -0.31749856E-05    0.22285734E-03
    4   -0.19433087E+03   -0.68510275E-06    0.41923216E-04
    5   -0.19433087E+03   -0.84709768E-08    0.65246031E-05
    6   -0.19433087E+03   -0.94988195E-09    0.18390128E-05
    7   -0.19433087E+03   -0.18332003E-10    0.50168855E-06
    8   -0.19433087E+03   -0.36948222E-12    0.80797602E-07
    9   -0.19433087E+03    0.28421709E-13    0.21506155E-07
   10   -0.19433087E+03    0.28421709E-13    0.37191197E-08

Total Energy:                     -192.3737205327 H        -5234.7553 eV
Extrapolated to 0K:               -192.3737205327 H        -5234.7553 eV
Total Mermin free energy:         -192.3737205327 H        -5234.7553 eV
Force related energy:             -192.3737205327 H        -5234.7553 eV

Volume:                              0.100513E+05 au^3   0.148945E+04 A^3
Pressure:                            0.289640E-06 au     0.852151E+07 Pa
>> Charges saved for restart in charges.bin

total energy  -1.9237372E+02 H       energy change -1.9020807E-04 H
gradient norm  1.1580593E-02 H/a0    max. gradient  3.7735197E-03 H/a0
step length    7.5480235E-02 a0      max. step      1.3340489E-02 a0

--------------------------------------------------------------------------------

***  Geometry step: 33

 iSCC Total electronic   Diff electronic      SCC error    
    1   -0.19433087E+03    0.00000000E+00    0.22259540E-02
    2   -0.19433609E+03   -0.52166771E-02    0.89761518E-03
    3   -0.19433610E+03   -0.50506114E-05    0.26657617E-03
    4   -0.19433610E+03   -0.11270201E-05    0.47524905E-04
    5   -0.19433610E+03   -0.12265218E-07    0.87341114E-05
    6   -0.19433610E+03   -0.10867041E-08    0.25767583E-05
    7   -0.19433610E+03   -0.13557155E-10    0.55084431E-06
    8   -0.19433610E+03   -0.36948222E-12    0.55754289E-07
    9   -0.19433610E+03   -0.11368684E-12    0.15601162E-07
   10   -0.19433610E+03    0.28421709E-13    0.26457254E-08

Total Energy:                     -192.3739464093 H        -5234.7614 eV
Extrapolated to 0K:               -192.3739464093 H        -5234.7614 eV
Total Mermin free energy:         -192.3739464093 H        -5234.7614 eV
Force related energy:             -192.3739464093 H        -5234.7614 eV

Volume:                              0.100507E+05 au^3   0.148937E+04 A^3
Pressure:                            0.196483E-05 au     0.578071E+08 Pa
>> Charges saved for restart in charges.bin

total energy  -1.9237395E+02 H       energy change -2.2587654E-04 H
gradient norm  1.1395992E-02 H/a0    max. gradient  2.6192396E-03 H/a0
step length    9.4459552E-02 a0      max. step      1.7376643E-02 a0

--------------------------------------------------------------------------------

***  Geometry step: 34

 iSCC Total electronic   Diff electronic      SCC error    
    1   -0.19433610E+03    0.00000000E+00    0.18019271E-02
    2   -0.19433893E+03   -0.28353444E-02    0.77996079E-03
    3   -0.19433894E+03   -0.28576933E-05    0.22431109E-03
    4   -0.19433894E+03   -0.62442530E-06    0.23648483E-04
    5   -0.19433894E+03   -0.12451778E-07    0.61129838E-05
    6   -0.19433894E+03   -0.74192030E-09    0.14951834E-05
    7   -0.19433894E+03   -0.78728135E-11    0.39503816E-06
    8   -0.19433894E+03   -0.22737368E-12    0.82040389E-07
    9   -0.19433894E+03    0.28421709E-13    0.19560266E-07
   10   -0.19433894E+03   -0.11368684E-12    0.21626501E-08

Total Energy:                     -192.3741480206 H        -5234.7669 eV
Extrapolated to 0K:               -192.3741480206 H        -5234.7669 eV
Total Mermin free energy:         -192.3741480206 H        -5234.7669 eV
Force related energy:             -192.3741480206 H        -5234.7669 eV

Volume:                              0.100498E+05 au^3   0.148923E+04 A^3
Pressure:                            0.287569E-05 au     0.846056E+08 Pa
>> Charges saved for restart in charges.bin

total energy  -1.9237415E+02 H       energy change -2.0161130E-04 H
gradient norm  1.1216210E-02 H/a0    max. gradient  2.4560546E-03 H/a0
step length    8.6227278E-02 a0      max. step      1.6695590E-02 a0

--------------------------------------------------------------------------------

***  Geometry step: 35

 iSCC Total electronic   Diff electronic      SCC error    
    1   -0.19433894E+03    0.00000000E+00    0.20336542E-02
    2   -0.19434000E+03   -0.10690470E-02    0.11902231E-02
    3   -0.19434001E+03   -0.43284242E-05    0.31226881E-03
    4   -0.19434001E+03   -0.92314198E-06    0.37633330E-04
    5   -0.19434001E+03   -0.28009282E-07    0.63729626E-05
    6   -0.19434001E+03   -0.16286492E-08    0.21762108E-05
    7   -0.19434001E+03   -0.31718628E-10    0.86668224E-06
    8   -0.19434001E+03   -0.71054274E-12    0.13758627E-06
    9   -0.19434001E+03   -0.85265128E-13    0.23360686E-07
   10   -0.19434001E+03    0.56843419E-13    0.44616368E-08

Total Energy:                     -192.3743866994 H        -5234.7734 eV
Extrapolated to 0K:               -192.3743866994 H        -5234.7734 eV
Total Mermin free energy:         -192.3743866994 H        -5234.7734 eV
Force related energy:             -192.3743866994 H        -5234.7734 eV

Volume:                              0.100496E+05 au^3   0.148920E+04 A^3
Pressure:                            0.328842E-05 au     0.967485E+08 Pa
>> Charges saved for restart in charges.bin

total energy  -1.9237439E+02 H       energy change -2.3867886E-04 H
gradient norm  1.1420386E-02 H/a0    max. gradient  2.6908026E-03 H/a0
step length    1.0776813E-01 a0      max. step      2.1235447E-02 a0

--------------------------------------------------------------------------------

***  Geometry step: 36

 iSCC Total electronic   Diff electronic      SCC error    
    1   -0.19434001E+03    0.00000000E+00    0.21411679E-02
    2   -0.19433882E+03    0.11894031E-02    0.12921484E-02
    3   -0.19433883E+03   -0.49107898E-05    0.34077339E-03
    4   -0.19433883E+03   -0.10777073E-05    0.44562700E-04
    5   -0.19433883E+03   -0.29609851E-07    0.99281399E-05
    6   -0.19433883E+03   -0.16984814E-08    0.28302029E-05
    7   -0.19433883E+03   -0.40387249E-10    0.80913572E-06
    8   -0.19433883E+03   -0.79580786E-12    0.17699873E-06
    9   -0.19433883E+03   -0.17053026E-12    0.42446001E-07
   10   -0.19433883E+03    0.28421709E-13    0.53557065E-08

Total Energy:                     -192.3745976340 H        -5234.7791 eV
Extrapolated to 0K:               -192.3745976340 H        -5234.7791 eV
Total Mermin free energy:         -192.3745976340 H        -5234.7791 eV
Force related energy:             -192.3745976340 H        -5234.7791 eV

Volume:                              0.100508E+05 au^3   0.148937E+04 A^3
Pressure:                            0.285326E-05 au     0.839458E+08 Pa
>> Charges saved for restart in charges.bin

total energy  -1.9237460E+02 H       energy change -2.1093462E-04 H
gradient norm  1.0671925E-02 H/a0    max. gradient  2.5074122E-03 H/a0
step length    1.0123617E-01 a0      max. step      2.0020861E-02 a0

--------------------------------------------------------------------------------

***  Geometry step: 37

 iSCC Total electronic   Diff electronic      SCC error    
    1   -0.19433883E+03    0.00000000E+00    0.23249408E-02
    2   -0.19433722E+03    0.16075534E-02    0.11284166E-02
    3   -0.19433722E+03   -0.39348540E-05    0.30676651E-03
    4   -0.19433722E+03   -0.90071666E-06    0.31365931E-04
    5   -0.19433722E+03   -0.17826238E-07    0.10185013E-04
    6   -0.19433722E+03   -0.12416024E-08    0.27264244E-05
    7   -0.19433722E+03   -0.26631142E-10    0.64266878E-06
    8   -0.19433722E+03   -0.56843419E-12    0.14383271E-06
    9   -0.19433722E+03   -0.17053026E-12    0.30765475E-07
   10   -0.19433722E+03   -0.56843419E-13    0.36834451E-08

Total Energy:                     -192.3747511724 H        -5234.7833 eV
Extrapolated to 0K:               -192.3747511724 H        -5234.7833 eV
Total Mermin free energy:         -192.3747511724 H        -5234.7833 eV
Force related energy:             -192.3747511724 H        -5234.7833 eV

Volume:                              0.100525E+05 au^3   0.148963E+04 A^3
Pressure:                            0.216590E-05 au     0.637231E+08 Pa
>> Charges saved for restart in charges.bin

total energy  -1.9237475E+02 H       energy change -1.5353837E-04 H
gradient norm  8.9189554E-03 H/a0    max. gradient  1.8864256E-03 H/a0
step length    7.9325089E-02 a0      max. step      1.5853875E-02 a0

--------------------------------------------------------------------------------

***  Geometry step: 38

 iSCC Total electronic   Diff electronic      SCC error    
    1   -0.19433722E+03    0.00000000E+00    0.14287914E-02
    2   -0.19433709E+03    0.13168637E-03    0.63884090E-03
    3   -0.19433709E+03   -0.19436985E-05    0.17576728E-03
    4   -0.19433709E+03   -0.45065934E-06    0.22165581E-04
    5   -0.19433709E+03   -0.46867967E-08    0.44737880E-05
    6   -0.19433709E+03   -0.41001158E-09    0.11823578E-05
    7   -0.19433709E+03   -0.73043793E-11    0.27671520E-06
    8   -0.19433709E+03   -0.31263880E-12    0.56169663E-07
    9   -0.19433709E+03    0.56843419E-13    0.12616429E-07
   10   -0.19433709E+03   -0.28421709E-13    0.19300437E-08

Total Energy:                     -192.3748586950 H        -5234.7862 eV
Extrapolated to 0K:               -192.3748586950 H        -5234.7862 eV
Total Mermin free energy:         -192.3748586950 H        -5234.7862 eV
Force related energy:             -192.3748586950 H        -5234.7862 eV

Volume:                              0.100539E+05 au^3   0.148984E+04 A^3
Pressure:                            0.191123E-05 au     0.562303E+08 Pa
>> Charges saved for restart in charges.bin

total energy  -1.9237486E+02 H       energy change -1.0752263E-04 H
gradient norm  7.5877207E-03 H/a0    max. gradient  1.5173890E-03 H/a0
step length    5.1528919E-02 a0      max. step      1.0470120E-02 a0

--------------------------------------------------------------------------------

***  Geometry step: 39

 iSCC Total electronic   Diff electronic      SCC error    
    1   -0.19433709E+03    0.00000000E+00    0.15258086E-02
    2   -0.19433843E+03   -0.13317122E-02    0.66661597E-03
    3   -0.19433843E+03   -0.18081543E-05    0.15903070E-03
    4   -0.19433843E+03   -0.41761621E-06    0.23263884E-04
    5   -0.19433843E+03   -0.42006718E-08    0.43654897E-05
    6   -0.19433843E+03   -0.39881343E-09    0.97760555E-06
    7   -0.19433843E+03   -0.89812602E-11    0.31683062E-06
    8   -0.19433843E+03   -0.22737368E-12    0.66479588E-07
    9   -0.19433843E+03   -0.28421709E-13    0.15926935E-07
   10   -0.19433843E+03    0.56843419E-13    0.30030818E-08

Total Energy:                     -192.3749662408 H        -5234.7892 eV
Extrapolated to 0K:               -192.3749662408 H        -5234.7892 eV
Total Mermin free energy:         -192.3749662408 H        -5234.7892 eV
Force related energy:             -192.3749662408 H        -5234.7892 eV

Volume:                              0.100557E+05 au^3   0.149010E+04 A^3
Pressure:                            0.223819E-05 au     0.658498E+08 Pa
>> Charges saved for restart in charges.bin

total energy  -1.9237497E+02 H       energy change -1.0754573E-04 H
gradient norm  7.7761734E-03 H/a0    max. gradient  1.4933199E-03 H/a0
step length    5.4599345E-02 a0      max. step      1.1203162E-02 a0

--------------------------------------------------------------------------------

***  Geometry step: 40

 iSCC Total electronic   Diff electronic      SCC error    
    1   -0.19433843E+03    0.00000000E+00    0.13611938E-02
    2   -0.19434004E+03   -0.16076853E-02    0.66337974E-03
    3   -0.19434004E+03   -0.17987885E-05    0.18998351E-03
    4   -0.19434004E+03   -0.42115738E-06    0.30290727E-04
    5   -0.19434004E+03   -0.55419775E-08    0.45903305E-05
    6   -0.19434004E+03   -0.54018301E-09    0.12893826E-05
    7   -0.19434004E+03   -0.11311840E-10    0.30462631E-06
    8   -0.19434004E+03   -0.36948222E-12    0.78452619E-07
    9   -0.19434004E+03   -0.28421709E-13    0.19410422E-07
   10   -0.19434004E+03    0.56843419E-13    0.27542666E-08

Total Energy:                     -192.3750709474 H        -5234.7920 eV
Extrapolated to 0K:               -192.3750709474 H        -5234.7920 eV
Total Mermin free energy:         -192.3750709474 H        -5234.7920 eV
Force related energy:             -192.3750709474 H        -5234.7920 eV

Volume:                              0.100587E+05 au^3   0.149054E+04 A^3
Pressure:                            0.233819E-05 au     0.687918E+08 Pa
>> Charges saved for restart in charges.bin

total energy  -1.9237507E+02 H       energy change -1.0470665E-04 H
gradient norm  8.5778390E-03 H/a0    max. gradient  2.1130450E-03 H/a0
step length    6.1906674E-02 a0      max. step      1.2827206E-02 a0

--------------------------------------------------------------------------------

***  Geometry step: 41

 iSCC Total electronic   Diff electronic      SCC error    
    1   -0.19434004E+03    0.00000000E+00    0.17321568E-02
    2   -0.19434279E+03   -0.27470881E-02    0.99093895E-03
    3   -0.19434279E+03   -0.23571272E-05    0.23641665E-03
    4   -0.19434279E+03   -0.52707688E-06    0.38760898E-04
    5   -0.19434279E+03   -0.88604679E-08    0.79213930E-05
    6   -0.19434279E+03   -0.80979135E-09    0.17980141E-05
    7   -0.19434279E+03   -0.20207835E-10    0.39434078E-06
    8   -0.19434279E+03   -0.48316906E-12    0.11094914E-06
    9   -0.19434279E+03   -0.14210855E-12    0.23926964E-07
   10   -0.19434279E+03    0.85265128E-13    0.27695695E-08

Total Energy:                     -192.3751768112 H        -5234.7949 eV
Extrapolated to 0K:               -192.3751768112 H        -5234.7949 eV
Total Mermin free energy:         -192.3751768112 H        -5234.7949 eV
Force related energy:             -192.3751768112 H        -5234.7949 eV

Volume:                              0.100617E+05 au^3   0.149099E+04 A^3
Pressure:                            0.284977E-05 au     0.838431E+08 Pa
>> Charges saved for restart in charges.bin

total energy  -1.9237518E+02 H       energy change -1.0586382E-04 H
gradient norm  8.2499029E-03 H/a0    max. gradient  1.8839270E-03 H/a0
step length    7.0895838E-02 a0      max. step      1.5184036E-02 a0

--------------------------------------------------------------------------------

***  Geometry step: 42

 iSCC Total electronic   Diff electronic      SCC error    
    1   -0.19434279E+03    0.00000000E+00    0.12009637E-02
    2   -0.19434430E+03   -0.15155657E-02    0.66387071E-03
    3   -0.19434431E+03   -0.15120303E-05    0.18068287E-03
    4   -0.19434431E+03   -0.32784024E-06    0.27298648E-04
    5   -0.19434431E+03   -0.51584266E-08    0.64927194E-05
    6   -0.19434431E+03   -0.49234927E-09    0.14996171E-05
    7   -0.19434431E+03   -0.11141310E-10    0.28821437E-06
    8   -0.19434431E+03   -0.25579538E-12    0.78592858E-07
    9   -0.19434431E+03    0.85265128E-13    0.18392468E-07
   10   -0.19434431E+03   -0.85265128E-13    0.20832758E-08

Total Energy:                     -192.3752634533 H        -5234.7973 eV
Extrapolated to 0K:               -192.3752634533 H        -5234.7973 eV
Total Mermin free energy:         -192.3752634533 H        -5234.7973 eV
Force related energy:             -192.3752634533 H        -5234.7973 eV

Volume:                              0.100649E+05 au^3   0.149147E+04 A^3
Pressure:                            0.302679E-05 au     0.890512E+08 Pa
>> Charges saved for restart in charges.bin

total energy  -1.9237526E+02 H       energy change -8.6642045E-05 H
gradient norm  6.9784552E-03 H/a0    max. gradient  1.3020124E-03 H/a0
step length    5.8918898E-02 a0      max. step      1.3026330E-02 a0

--------------------------------------------------------------------------------

***  Geometry step: 43

 iSCC Total electronic   Diff electronic      SCC error    
    1   -0.19434431E+03    0.00000000E+00    0.14805599E-02
    2   -0.19434485E+03   -0.54722752E-03    0.58458532E-03
    3   -0.19434486E+03   -0.22314341E-05    0.14397634E-03
    4   -0.19434486E+03   -0.48698240E-06    0.34156315E-04
    5   -0.19434486E+03   -0.55239866E-08    0.50114242E-05
    6   -0.19434486E+03   -0.52128257E-09    0.12285523E-05
    7   -0.19434486E+03   -0.12988721E-10    0.35040755E-06
    8   -0.19434486E+03   -0.17053026E-12    0.61000752E-07
    9   -0.19434486E+03   -0.56843419E-13    0.14528016E-07
   10   -0.19434486E+03    0.28421709E-13    0.16710100E-08

Total Energy:                     -192.3753558954 H        -5234.7998 eV
Extrapolated to 0K:               -192.3753558954 H        -5234.7998 eV
Total Mermin free energy:         -192.3753558954 H        -5234.7998 eV
Force related energy:             -192.3753558954 H        -5234.7998 eV

Volume:                              0.100693E+05 au^3   0.149211E+04 A^3
Pressure:                            0.273306E-05 au     0.804094E+08 Pa
>> Charges saved for restart in charges.bin

total energy  -1.9237536E+02 H       energy change -9.2442086E-05 H
gradient norm  7.0155045E-03 H/a0    max. gradient  1.9385377E-03 H/a0
step length    6.4287885E-02 a0      max. step      1.4752344E-02 a0

--------------------------------------------------------------------------------

***  Geometry step: 44

 iSCC Total electronic   Diff electronic      SCC error    
    1   -0.19434486E+03    0.00000000E+00    0.13565605E-02
    2   -0.19434488E+03   -0.24638557E-04    0.51317819E-03
    3   -0.19434488E+03   -0.19617583E-05    0.15691128E-03
    4   -0.19434488E+03   -0.42333374E-06    0.34222055E-04
    5   -0.19434488E+03   -0.46651394E-08    0.34799153E-05
    6   -0.19434488E+03   -0.48567017E-09    0.89604337E-06
    7   -0.19434488E+03   -0.11397105E-10    0.30840847E-06
    8   -0.19434488E+03   -0.11368684E-12    0.45033909E-07
    9   -0.19434488E+03    0.85265128E-13    0.14121947E-07
   10   -0.19434488E+03    0.28421709E-13    0.22136768E-08

Total Energy:                     -192.3754428579 H        -5234.8021 eV
Extrapolated to 0K:               -192.3754428579 H        -5234.8021 eV
Total Mermin free energy:         -192.3754428579 H        -5234.8021 eV
Force related energy:             -192.3754428579 H        -5234.8021 eV

Volume:                              0.100733E+05 au^3   0.149271E+04 A^3
Pressure:                            0.236290E-05 au     0.695189E+08 Pa
>> Charges saved for restart in charges.bin

total energy  -1.9237544E+02 H       energy change -8.6962510E-05 H
gradient norm  8.3681286E-03 H/a0    max. gradient  2.3971338E-03 H/a0
step length    5.9332860E-02 a0      max. step      1.4233555E-02 a0

--------------------------------------------------------------------------------

***  Geometry step: 45

 iSCC Total electronic   Diff electronic      SCC error    
    1   -0.19434488E+03    0.00000000E+00    0.13603249E-02
    2   -0.19434415E+03    0.73521727E-03    0.59619235E-03
    3   -0.19434415E+03   -0.19781559E-05    0.19412387E-03
    4   -0.19434415E+03   -0.43514140E-06    0.40917475E-04
    5   -0.19434415E+03   -0.58461183E-08    0.53939645E-05
    6   -0.19434415E+03   -0.56959948E-09    0.12979165E-05
    7   -0.19434415E+03   -0.17081447E-10    0.29776477E-06
    8   -0.19434415E+03   -0.25579538E-12    0.58983765E-07
    9   -0.19434415E+03    0.28421709E-13    0.15702634E-07
   10   -0.19434415E+03   -0.85265128E-13    0.17008794E-08

Total Energy:                     -192.3755433756 H        -5234.8049 eV
Extrapolated to 0K:               -192.3755433756 H        -5234.8049 eV
Total Mermin free energy:         -192.3755433756 H        -5234.8049 eV
Force related energy:             -192.3755433756 H        -5234.8049 eV

Volume:                              0.100787E+05 au^3   0.149351E+04 A^3
Pressure:                            0.151496E-05 au     0.445718E+08 Pa
>> Charges saved for restart in charges.bin

total energy  -1.9237554E+02 H       energy change -1.0051773E-04 H
gradient norm  8.5424156E-03 H/a0    max. gradient  2.0967257E-03 H/a0
step length    7.0234506E-02 a0      max. step      1.6967672E-02 a0

--------------------------------------------------------------------------------

***  Geometry step: 46

 iSCC Total electronic   Diff electronic      SCC error    
    1   -0.19434415E+03    0.00000000E+00    0.16600949E-02
    2   -0.19434406E+03    0.93990962E-04    0.59940430E-03
    3   -0.19434406E+03   -0.19368736E-05    0.19051971E-03
    4   -0.19434406E+03   -0.43357676E-06    0.36426618E-04
    5   -0.19434406E+03   -0.61860703E-08    0.81056142E-05
    6   -0.19434406E+03   -0.53722715E-09    0.15725769E-05
    7   -0.19434406E+03   -0.17848834E-10    0.30813421E-06
    8   -0.19434406E+03   -0.31263880E-12    0.72301581E-07
    9   -0.19434406E+03   -0.85265128E-13    0.20046075E-07
   10   -0.19434406E+03    0.00000000E+00    0.17763400E-08

Total Energy:                     -192.3756421493 H        -5234.8076 eV
Extrapolated to 0K:               -192.3756421493 H        -5234.8076 eV
Total Mermin free energy:         -192.3756421493 H        -5234.8076 eV
Force related energy:             -192.3756421493 H        -5234.8076 eV

Volume:                              0.100838E+05 au^3   0.149427E+04 A^3
Pressure:                            0.105418E-05 au     0.310150E+08 Pa
>> Charges saved for restart in charges.bin

total energy  -1.9237564E+02 H       energy change -9.8773706E-05 H
gradient norm  7.3687558E-03 H/a0    max. gradient  1.4601300E-03 H/a0
step length    7.3748056E-02 a0      max. step      1.7681450E-02 a0

--------------------------------------------------------------------------------

***  Geometry step: 47

 iSCC Total electronic   Diff electronic      SCC error    
    1   -0.19434406E+03    0.00000000E+00    0.13530187E-02
    2   -0.19434412E+03   -0.62265922E-04    0.59425096E-03
    3   -0.19434412E+03   -0.13339167E-05    0.85942700E-04
    4   -0.19434412E+03   -0.32110560E-06    0.13348212E-04
    5   -0.19434412E+03   -0.25806060E-08    0.38886986E-05
    6   -0.19434412E+03   -0.18957280E-09    0.89033232E-06
    7   -0.19434412E+03   -0.53717031E-11    0.22347501E-06
    8   -0.19434412E+03   -0.56843419E-13    0.42754992E-07
    9   -0.19434412E+03   -0.14210855E-12    0.99060733E-08

Total Energy:                     -192.3757165809 H        -5234.8096 eV
Extrapolated to 0K:               -192.3757165809 H        -5234.8096 eV
Total Mermin free energy:         -192.3757165809 H        -5234.8096 eV
Force related energy:             -192.3757165809 H        -5234.8096 eV

Volume:                              0.100874E+05 au^3   0.149480E+04 A^3
Pressure:                            0.710728E-06 au     0.209103E+08 Pa
>> Charges saved for restart in charges.bin

total energy  -1.9237572E+02 H       energy change -7.4431606E-05 H
gradient norm  6.2121435E-03 H/a0    max. gradient  1.1896003E-03 H/a0
step length    5.7092254E-02 a0      max. step      1.3825313E-02 a0

--------------------------------------------------------------------------------

***  Geometry step: 48

 iSCC Total electronic   Diff electronic      SCC error    
    1   -0.19434412E+03    0.00000000E+00    0.13945141E-02
    2   -0.19434531E+03   -0.11893284E-02    0.61237451E-03
    3   -0.19434531E+03   -0.16139541E-05    0.11653016E-03
    4   -0.19434531E+03   -0.37398362E-06    0.19470736E-04
    5   -0.19434531E+03   -0.25670204E-08    0.26405819E-05
    6   -0.19434531E+03   -0.20500579E-09    0.78735161E-06
    7   -0.19434531E+03   -0.50874860E-11    0.27591252E-06
    8   -0.19434531E+03   -0.85265128E-13    0.28634706E-07
    9   -0.19434531E+03    0.56843419E-13    0.91778860E-08

Total Energy:                     -192.3757877797 H        -5234.8115 eV
Extrapolated to 0K:               -192.3757877797 H        -5234.8115 eV
Total Mermin free energy:         -192.3757877797 H        -5234.8115 eV
Force related energy:             -192.3757877797 H        -5234.8115 eV

Volume:                              0.100897E+05 au^3   0.149513E+04 A^3
Pressure:                            0.938422E-06 au     0.276093E+08 Pa
>> Charges saved for restart in charges.bin

total energy  -1.9237579E+02 H       energy change -7.1198783E-05 H
gradient norm  6.6598775E-03 H/a0    max. gradient  1.5315033E-03 H/a0
step length    5.4985458E-02 a0      max. step      1.3233920E-02 a0

--------------------------------------------------------------------------------

***  Geometry step: 49

 iSCC Total electronic   Diff electronic      SCC error    
    1   -0.19434531E+03    0.00000000E+00    0.11750354E-02
    2   -0.19434651E+03   -0.11951075E-02    0.48623945E-03
    3   -0.19434651E+03   -0.13515229E-05    0.13497073E-03
    4   -0.19434651E+03   -0.29663695E-06    0.20220469E-04
    5   -0.19434651E+03   -0.24685960E-08    0.23581457E-05
    6   -0.19434651E+03   -0.21691449E-09    0.64926252E-06
    7   -0.19434651E+03   -0.36664005E-11    0.19824152E-06
    8   -0.19434651E+03   -0.56843419E-13    0.25762409E-07
    9   -0.19434651E+03   -0.28421709E-13    0.91419712E-08

Total Energy:                     -192.3758600133 H        -5234.8135 eV
Extrapolated to 0K:               -192.3758600133 H        -5234.8135 eV
Total Mermin free energy:         -192.3758600133 H        -5234.8135 eV
Force related energy:             -192.3758600133 H        -5234.8135 eV

Volume:                              0.100917E+05 au^3   0.149543E+04 A^3
Pressure:                            0.119039E-05 au     0.350226E+08 Pa
>> Charges saved for restart in charges.bin

total energy  -1.9237586E+02 H       energy change -7.2233576E-05 H
gradient norm  7.3756125E-03 H/a0    max. gradient  1.6295061E-03 H/a0
step length    5.7397150E-02 a0      max. step      1.4322258E-02 a0

--------------------------------------------------------------------------------

***  Geometry step: 50

 iSCC Total electronic   Diff electronic      SCC error    
    1   -0.19434651E+03    0.00000000E+00    0.15199833E-02
    2   -0.19434783E+03   -0.13144738E-02    0.61442539E-03
    3   -0.19434783E+03   -0.19925624E-05    0.16809484E-03
    4   -0.19434783E+03   -0.43083827E-06    0.22109315E-04
    5   -0.19434783E+03   -0.58379328E-08    0.23537853E-05
    6   -0.19434783E+03   -0.47569415E-09    0.68376659E-06
    7   -0.19434783E+03   -0.79865003E-11    0.23387029E-06
    8   -0.19434783E+03   -0.14210855E-12    0.56508835E-07
    9   -0.19434783E+03   -0.56843419E-13    0.10352165E-07
   10   -0.19434783E+03    0.00000000E+00    0.16070127E-08

Total Energy:                     -192.3759540426 H        -5234.8161 eV
Extrapolated to 0K:               -192.3759540426 H        -5234.8161 eV
Total Mermin free energy:         -192.3759540426 H        -5234.8161 eV
Force related energy:             -192.3759540426 H        -5234.8161 eV

Volume:                              0.100941E+05 au^3   0.149579E+04 A^3
Pressure:                            0.144534E-05 au     0.425233E+08 Pa
>> Charges saved for restart in charges.bin

total energy  -1.9237595E+02 H       energy change -9.4029361E-05 H
gradient norm  7.6736876E-03 H/a0    max. gradient  2.0319530E-03 H/a0
step length    8.2109775E-02 a0      max. step      2.0566615E-02 a0

--------------------------------------------------------------------------------

***  Geometry step: 51

 iSCC Total electronic   Diff electronic      SCC error    
    1   -0.19434783E+03    0.00000000E+00    0.10020898E-02
    2   -0.19434812E+03   -0.29577198E-03    0.60525694E-03
    3   -0.19434812E+03   -0.11559961E-05    0.18452485E-03
    4   -0.19434812E+03   -0.24931677E-06    0.19673607E-04
    5   -0.19434812E+03   -0.40968473E-08    0.26892100E-05
    6   -0.19434812E+03   -0.34148684E-09    0.93798694E-06
    7   -0.19434812E+03   -0.28705927E-11    0.23978224E-06
    8   -0.19434812E+03   -0.85265128E-13    0.30848727E-07
    9   -0.19434812E+03    0.11368684E-12    0.10091777E-07
   10   -0.19434812E+03   -0.17053026E-12    0.12309709E-08

Total Energy:                     -192.3760373112 H        -5234.8183 eV
Extrapolated to 0K:               -192.3760373112 H        -5234.8183 eV
Total Mermin free energy:         -192.3760373112 H        -5234.8183 eV
Force related energy:             -192.3760373112 H        -5234.8183 eV

Volume:                              0.100963E+05 au^3   0.149612E+04 A^3
Pressure:                            0.136599E-05 au     0.401888E+08 Pa
>> Charges saved for restart in charges.bin

total energy  -1.9237604E+02 H       energy change -8.3268571E-05 H
gradient norm  7.0587234E-03 H/a0    max. gradient  2.1627974E-03 H/a0
step length    7.1148522E-02 a0      max. step      1.7480965E-02 a0

--------------------------------------------------------------------------------

***  Geometry step: 52

[...]

Total Energy:                     -192.3788765889 H        -5234.8956 eV
Extrapolated to 0K:               -192.3788765889 H        -5234.8956 eV
Total Mermin free energy:         -192.3788765889 H        -5234.8956 eV
Force related energy:             -192.3788765889 H        -5234.8956 eV

Volume:                              0.998241E+04 au^3   0.147924E+04 A^3
Pressure:                            0.172313E-06 au     0.506962E+07 Pa
>> Charges saved for restart in charges.bin

total energy  -1.9237888E+02 H       energy change -9.2347099E-07 H
gradient norm  7.0107926E-04 H/a0    max. gradient  1.5206483E-04 H/a0
step length    6.2750083E-03 a0      max. step      1.2750739E-03 a0

--------------------------------------------------------------------------------

***  Geometry step: 172

 iSCC Total electronic   Diff electronic      SCC error    
    1   -0.19434087E+03    0.00000000E+00    0.17349494E-03
    2   -0.19434084E+03    0.36319805E-04    0.72252170E-04
    3   -0.19434084E+03   -0.20361938E-07    0.12902392E-04
    4   -0.19434084E+03   -0.46066759E-08    0.14571481E-05
    5   -0.19434084E+03   -0.28734348E-10    0.36266155E-06
    6   -0.19434084E+03   -0.19042545E-11    0.51776305E-07
    7   -0.19434084E+03   -0.56843419E-13    0.67957338E-08

Total Energy:                     -192.3788773882 H        -5234.8956 eV
Extrapolated to 0K:               -192.3788773882 H        -5234.8956 eV
Total Mermin free energy:         -192.3788773882 H        -5234.8956 eV
Force related energy:             -192.3788773882 H        -5234.8956 eV

Volume:                              0.998236E+04 au^3   0.147923E+04 A^3
Pressure:                            0.149925E-06 au     0.441094E+07 Pa
>> Charges saved for restart in charges.bin

total energy  -1.9237888E+02 H       energy change -7.9936206E-07 H
gradient norm  6.4616528E-04 H/a0    max. gradient  1.7273358E-04 H/a0
step length    2.2611856E-03 a0      max. step      4.9226351E-04 a0

--------------------------------------------------------------------------------

***  Geometry step: 173

 iSCC Total electronic   Diff electronic      SCC error    
    1   -0.19434084E+03    0.00000000E+00    0.12771648E-03
    2   -0.19434087E+03   -0.31632514E-04    0.53506668E-04
    3   -0.19434087E+03   -0.14154892E-07    0.15839999E-04
    4   -0.19434087E+03   -0.32670471E-08    0.13594938E-05
    5   -0.19434087E+03   -0.33566039E-10    0.36616628E-06
    6   -0.19434087E+03   -0.22168933E-11    0.60756763E-07
    7   -0.19434087E+03    0.28421709E-13    0.10538368E-07
    8   -0.19434087E+03   -0.56843419E-13    0.29038101E-08

Total Energy:                     -192.3788781138 H        -5234.8956 eV
Extrapolated to 0K:               -192.3788781138 H        -5234.8956 eV
Total Mermin free energy:         -192.3788781138 H        -5234.8956 eV
Force related energy:             -192.3788781138 H        -5234.8956 eV

Volume:                              0.998233E+04 au^3   0.147923E+04 A^3
Pressure:                            0.162864E-06 au     0.479163E+07 Pa
>> Charges saved for restart in charges.bin

total energy  -1.9237888E+02 H       energy change -7.2559945E-07 H
gradient norm  7.2055256E-04 H/a0    max. gradient  1.5343901E-04 H/a0
step length    2.6700152E-03 a0      max. step      5.8190500E-04 a0

--------------------------------------------------------------------------------

***  Geometry step: 174

 iSCC Total electronic   Diff electronic      SCC error    
    1   -0.19434087E+03    0.00000000E+00    0.18987978E-03
    2   -0.19434075E+03    0.12117005E-03    0.90836689E-04
    3   -0.19434075E+03   -0.29397142E-07    0.29922723E-04
    4   -0.19434075E+03   -0.62469780E-08    0.28279019E-05
    5   -0.19434075E+03   -0.89528385E-10    0.24024921E-06
    6   -0.19434075E+03   -0.66791017E-11    0.80889518E-07
    7   -0.19434075E+03   -0.56843419E-13    0.13562457E-07
    8   -0.19434075E+03   -0.28421709E-13    0.30811691E-08

Total Energy:                     -192.3788796265 H        -5234.8957 eV
Extrapolated to 0K:               -192.3788796265 H        -5234.8957 eV
Total Mermin free energy:         -192.3788796265 H        -5234.8957 eV
Force related energy:             -192.3788796265 H        -5234.8957 eV

Volume:                              0.998094E+04 au^3   0.147902E+04 A^3
Pressure:                            0.147386E-06 au     0.433626E+07 Pa
>> Charges saved for restart in charges.bin

total energy  -1.9237888E+02 H       energy change -1.5126069E-06 H
gradient norm  9.3909745E-04 H/a0    max. gradient  2.8620337E-04 H/a0
step length    2.4052402E-02 a0      max. step      5.3876311E-03 a0

--------------------------------------------------------------------------------

***  Geometry step: 175

 iSCC Total electronic   Diff electronic      SCC error    
    1   -0.19434075E+03    0.00000000E+00    0.10064127E-03
    2   -0.19434080E+03   -0.53450064E-04    0.63151012E-04
    3   -0.19434080E+03   -0.79049869E-08    0.20930803E-04
    4   -0.19434080E+03   -0.17441266E-08    0.25855645E-05
    5   -0.19434080E+03   -0.39619863E-10    0.59748102E-06
    6   -0.19434080E+03   -0.30979663E-11    0.10294875E-06
    7   -0.19434080E+03   -0.56843419E-13    0.74367490E-08

Total Energy:                     -192.3788806076 H        -5234.8957 eV
Extrapolated to 0K:               -192.3788806076 H        -5234.8957 eV
Total Mermin free energy:         -192.3788806076 H        -5234.8957 eV
Force related energy:             -192.3788806076 H        -5234.8957 eV

Volume:                              0.998089E+04 au^3   0.147902E+04 A^3
Pressure:                            0.173835E-06 au     0.511441E+07 Pa
>> Charges saved for restart in charges.bin

total energy  -1.9237888E+02 H       energy change -9.8119034E-07 H
gradient norm  7.7554407E-04 H/a0    max. gradient  1.5316179E-04 H/a0
step length    4.5005810E-03 a0      max. step      1.2773998E-03 a0

--------------------------------------------------------------------------------

***  Geometry step: 176

 iSCC Total electronic   Diff electronic      SCC error    
    1   -0.19434080E+03    0.00000000E+00    0.19520811E-03
    2   -0.19434083E+03   -0.31640889E-04    0.11769661E-03
    3   -0.19434083E+03   -0.30099756E-07    0.41656380E-04
    4   -0.19434083E+03   -0.67843189E-08    0.40045962E-05
    5   -0.19434083E+03   -0.12875034E-09    0.12177409E-05
    6   -0.19434083E+03   -0.84980911E-11    0.19800205E-06
    7   -0.19434083E+03   -0.14210855E-12    0.14778729E-07
    8   -0.19434083E+03   -0.28421709E-13    0.59274270E-08

Total Energy:                     -192.3788818361 H        -5234.8957 eV
Extrapolated to 0K:               -192.3788818361 H        -5234.8957 eV
Total Mermin free energy:         -192.3788818361 H        -5234.8957 eV
Force related energy:             -192.3788818361 H        -5234.8957 eV

Volume:                              0.998097E+04 au^3   0.147903E+04 A^3
Pressure:                            0.176154E-06 au     0.518263E+07 Pa
>> Charges saved for restart in charges.bin

total energy  -1.9237888E+02 H       energy change -1.2284635E-06 H
gradient norm  6.4733023E-04 H/a0    max. gradient  1.3301632E-04 H/a0
step length    7.7226847E-03 a0      max. step      2.1476789E-03 a0

--------------------------------------------------------------------------------

***  Geometry step: 177

 iSCC Total electronic   Diff electronic      SCC error    
    1   -0.19434083E+03    0.00000000E+00    0.13698944E-03
    2   -0.19434079E+03    0.46222645E-04    0.57336997E-04
    3   -0.19434079E+03   -0.12648826E-07    0.14358978E-04
    4   -0.19434079E+03   -0.26913085E-08    0.21226678E-05
    5   -0.19434079E+03   -0.33139713E-10    0.33597693E-06
    6   -0.19434079E+03   -0.27284841E-11    0.80703076E-07
    7   -0.19434079E+03   -0.56843419E-13    0.97086850E-08

Total Energy:                     -192.3788825060 H        -5234.8957 eV
Extrapolated to 0K:               -192.3788825060 H        -5234.8957 eV
Total Mermin free energy:         -192.3788825060 H        -5234.8957 eV
Force related energy:             -192.3788825060 H        -5234.8957 eV

Volume:                              0.998110E+04 au^3   0.147905E+04 A^3
Pressure:                            0.143784E-06 au     0.423026E+07 Pa
>> Charges saved for restart in charges.bin

total energy  -1.9237888E+02 H       energy change -6.6992479E-07 H
gradient norm  6.4254270E-04 H/a0    max. gradient  1.3276637E-04 H/a0
step length    6.5901001E-03 a0      max. step      1.4485314E-03 a0

--------------------------------------------------------------------------------

***  Geometry step: 178

 iSCC Total electronic   Diff electronic      SCC error    
    1   -0.19434079E+03    0.00000000E+00    0.15294035E-03
    2   -0.19434061E+03    0.17325707E-03    0.62071257E-04
    3   -0.19434061E+03   -0.18367388E-07    0.19776017E-04
    4   -0.19434061E+03   -0.35843186E-08    0.21250894E-05
    5   -0.19434061E+03   -0.54598104E-10    0.22139009E-06
    6   -0.19434061E+03   -0.46611603E-11    0.65963727E-07
    7   -0.19434061E+03   -0.56843419E-13    0.11020359E-07
    8   -0.19434061E+03   -0.85265128E-13    0.27172731E-08

Total Energy:                     -192.3788832629 H        -5234.8958 eV
Extrapolated to 0K:               -192.3788832629 H        -5234.8958 eV
Total Mermin free energy:         -192.3788832629 H        -5234.8958 eV
Force related energy:             -192.3788832629 H        -5234.8958 eV

Volume:                              0.998115E+04 au^3   0.147905E+04 A^3
Pressure:                            0.674391E-07 au     0.198413E+07 Pa
>> Charges saved for restart in charges.bin

total energy  -1.9237888E+02 H       energy change -7.5687967E-07 H
gradient norm  6.6387626E-04 H/a0    max. gradient  1.5190915E-04 H/a0
step length    8.8557324E-03 a0      max. step      1.8953106E-03 a0

--------------------------------------------------------------------------------

***  Geometry step: 179

 iSCC Total electronic   Diff electronic      SCC error    
    1   -0.19434061E+03    0.00000000E+00    0.76009099E-04
    2   -0.19434054E+03    0.72439300E-04    0.42197088E-04
    3   -0.19434054E+03   -0.63312768E-08    0.13020965E-04
    4   -0.19434054E+03   -0.13888837E-08    0.12922526E-05
    5   -0.19434054E+03   -0.27341684E-10    0.41631901E-06
    6   -0.19434054E+03   -0.19042545E-11    0.44696495E-07
    7   -0.19434054E+03   -0.14210855E-12    0.85975871E-08

Total Energy:                     -192.3788838466 H        -5234.8958 eV
Extrapolated to 0K:               -192.3788838466 H        -5234.8958 eV
Total Mermin free energy:         -192.3788838466 H        -5234.8958 eV
Force related energy:             -192.3788838466 H        -5234.8958 eV

Volume:                              0.998124E+04 au^3   0.147907E+04 A^3
Pressure:                            0.335477E-07 au     0.987007E+06 Pa
>> Charges saved for restart in charges.bin

total energy  -1.9237888E+02 H       energy change -5.8367712E-07 H
gradient norm  6.0282479E-04 H/a0    max. gradient  1.7798349E-04 H/a0
step length    2.0766721E-03 a0      max. step      4.0536708E-04 a0

--------------------------------------------------------------------------------

***  Geometry step: 180

 iSCC Total electronic   Diff electronic      SCC error    
    1   -0.19434054E+03    0.00000000E+00    0.14186235E-03
    2   -0.19434045E+03    0.87676381E-04    0.57585108E-04
    3   -0.19434045E+03   -0.15784082E-07    0.15906103E-04
    4   -0.19434045E+03   -0.34745256E-08    0.24347932E-05
    5   -0.19434045E+03   -0.43030468E-10    0.40080329E-06
    6   -0.19434045E+03   -0.33821834E-11    0.48336914E-07
    7   -0.19434045E+03   -0.85265128E-13    0.87066496E-08

Total Energy:                     -192.3788845797 H        -5234.8958 eV
Extrapolated to 0K:               -192.3788845797 H        -5234.8958 eV
Total Mermin free energy:         -192.3788845797 H        -5234.8958 eV
Force related energy:             -192.3788845797 H        -5234.8958 eV

Volume:                              0.998122E+04 au^3   0.147907E+04 A^3
Pressure:                            0.387489E-08 au     0.114003E+06 Pa
>> Charges saved for restart in charges.bin

total energy  -1.9237888E+02 H       energy change -7.3306322E-07 H
gradient norm  5.9190194E-04 H/a0    max. gradient  1.8656132E-04 H/a0
step length    3.3055602E-03 a0      max. step      6.4228029E-04 a0

--------------------------------------------------------------------------------

***  Geometry step: 181

 iSCC Total electronic   Diff electronic      SCC error    
    1   -0.19434045E+03    0.00000000E+00    0.12463212E-03
    2   -0.19434041E+03    0.41865259E-04    0.53405261E-04
    3   -0.19434041E+03   -0.13371277E-07    0.17325741E-04
    4   -0.19434041E+03   -0.25349607E-08    0.20348352E-05
    5   -0.19434041E+03   -0.39079850E-10    0.34866647E-06
    6   -0.19434041E+03   -0.31548097E-11    0.89388459E-07
    7   -0.19434041E+03   -0.28421709E-13    0.12876429E-07
    8   -0.19434041E+03   -0.28421709E-13    0.26060976E-08

Total Energy:                     -192.3788853783 H        -5234.8958 eV
Extrapolated to 0K:               -192.3788853783 H        -5234.8958 eV
Total Mermin free energy:         -192.3788853783 H        -5234.8958 eV
Force related energy:             -192.3788853783 H        -5234.8958 eV

Volume:                              0.998100E+04 au^3   0.147903E+04 A^3
Pressure:                           -0.181525E-07 au    -0.534063E+06 Pa
>> Charges saved for restart in charges.bin

total energy  -1.9237889E+02 H       energy change -7.9868684E-07 H
gradient norm  6.4192810E-04 H/a0    max. gradient  1.3862970E-04 H/a0
step length    1.2272578E-02 a0      max. step      2.8362314E-03 a0

--------------------------------------------------------------------------------

***  Geometry step: 182

 iSCC Total electronic   Diff electronic      SCC error    
    1   -0.19434041E+03    0.00000000E+00    0.10477993E-03
    2   -0.19434048E+03   -0.70634907E-04    0.41589352E-04
    3   -0.19434048E+03   -0.58668093E-08    0.10495168E-04
    4   -0.19434048E+03   -0.13135661E-08    0.10967786E-05
    5   -0.19434048E+03   -0.15916157E-10    0.11456014E-06
    6   -0.19434048E+03   -0.10231815E-11    0.30487688E-07
    7   -0.19434048E+03   -0.85265128E-13    0.45678545E-08

Total Energy:                     -192.3788859849 H        -5234.8958 eV
Extrapolated to 0K:               -192.3788859849 H        -5234.8958 eV
Total Mermin free energy:         -192.3788859849 H        -5234.8958 eV
Force related energy:             -192.3788859849 H        -5234.8958 eV

Volume:                              0.998084E+04 au^3   0.147901E+04 A^3
Pressure:                            0.228344E-07 au     0.671811E+06 Pa
>> Charges saved for restart in charges.bin

total energy  -1.9237889E+02 H       energy change -6.0653150E-07 H
gradient norm  6.0564259E-04 H/a0    max. gradient  1.3116654E-04 H/a0
step length    3.5766250E-03 a0      max. step      8.6050469E-04 a0

--------------------------------------------------------------------------------

***  Geometry step: 183

 iSCC Total electronic   Diff electronic      SCC error    
    1   -0.19434048E+03    0.00000000E+00    0.12393847E-03
    2   -0.19434042E+03    0.58756385E-04    0.61821368E-04
    3   -0.19434042E+03   -0.19853587E-07    0.19410650E-04
    4   -0.19434042E+03   -0.43450541E-08    0.26309530E-05
    5   -0.19434042E+03   -0.85464080E-10    0.29536582E-06
    6   -0.19434042E+03   -0.57980287E-11    0.71687736E-07
    7   -0.19434042E+03   -0.85265128E-13    0.13199230E-07
    8   -0.19434042E+03    0.85265128E-13    0.37481347E-08

Total Energy:                     -192.3788872560 H        -5234.8959 eV
Extrapolated to 0K:               -192.3788872560 H        -5234.8959 eV
Total Mermin free energy:         -192.3788872560 H        -5234.8959 eV
Force related energy:             -192.3788872560 H        -5234.8959 eV

Volume:                              0.997955E+04 au^3   0.147882E+04 A^3
Pressure:                            0.462107E-07 au     0.135956E+07 Pa
>> Charges saved for restart in charges.bin

total energy  -1.9237889E+02 H       energy change -1.2711374E-06 H
gradient norm  6.4861729E-04 H/a0    max. gradient  1.2636328E-04 H/a0
step length    2.2584793E-02 a0      max. step      5.3195439E-03 a0

--------------------------------------------------------------------------------

***  Geometry step: 184

 iSCC Total electronic   Diff electronic      SCC error    
    1   -0.19434042E+03    0.00000000E+00    0.78690642E-04
    2   -0.19434052E+03   -0.10123367E-03    0.42314373E-04
    3   -0.19434052E+03   -0.66845303E-08    0.14957321E-04
    4   -0.19434052E+03   -0.14381953E-08    0.19084430E-05
    5   -0.19434052E+03   -0.27199576E-10    0.26773788E-06
    6   -0.19434052E+03   -0.23874236E-11    0.56076590E-07
    7   -0.19434052E+03   -0.85265128E-13    0.11174170E-07
    8   -0.19434052E+03    0.00000000E+00    0.19981989E-08

Total Energy:                     -192.3788877460 H        -5234.8959 eV
Extrapolated to 0K:               -192.3788877460 H        -5234.8959 eV
Total Mermin free energy:         -192.3788877460 H        -5234.8959 eV
Force related energy:             -192.3788877460 H        -5234.8959 eV

Volume:                              0.997946E+04 au^3   0.147880E+04 A^3
Pressure:                            0.934972E-07 au     0.275078E+07 Pa
>> Charges saved for restart in charges.bin

total energy  -1.9237889E+02 H       energy change -4.8995707E-07 H
gradient norm  5.6614015E-04 H/a0    max. gradient  1.1962098E-04 H/a0
step length    1.6799390E-03 a0      max. step      3.3599372E-04 a0

--------------------------------------------------------------------------------

***  Geometry step: 185

 iSCC Total electronic   Diff electronic      SCC error    
    1   -0.19434052E+03    0.00000000E+00    0.13408976E-03
    2   -0.19434059E+03   -0.70433763E-04    0.70801658E-04
    3   -0.19434059E+03   -0.22652358E-07    0.25314107E-04
    4   -0.19434059E+03   -0.48237041E-08    0.28419343E-05
    5   -0.19434059E+03   -0.67529982E-10    0.40650017E-06
    6   -0.19434059E+03   -0.66222583E-11    0.12377465E-06
    7   -0.19434059E+03   -0.11368684E-12    0.21020526E-07
    8   -0.19434059E+03   -0.28421709E-13    0.35569934E-08

Total Energy:                     -192.3788884059 H        -5234.8959 eV
Extrapolated to 0K:               -192.3788884059 H        -5234.8959 eV
Total Mermin free energy:         -192.3788884059 H        -5234.8959 eV
Force related energy:             -192.3788884059 H        -5234.8959 eV

Volume:                              0.997944E+04 au^3   0.147880E+04 A^3
Pressure:                            0.108847E-06 au     0.320238E+07 Pa
>> Charges saved for restart in charges.bin

total energy  -1.9237889E+02 H       energy change -6.5997105E-07 H
gradient norm  4.8062549E-04 H/a0    max. gradient  8.6751212E-05 H/a0
step length    3.1339791E-03 a0      max. step      6.6881849E-04 a0

Geometry converged

--------------------------------------------------------------------------------
DFTB+ running times                          cpu [s]             wall clock [s]
--------------------------------------------------------------------------------
Pre-SCC initialisation                 +       6.47 (  0.2%)       2.94 (  0.8%)
SCC                                    +    2395.64 ( 91.9%)     313.77 ( 89.8%)
Post-SCC processing                    +     203.96 (  7.8%)      32.82 (  9.4%)
--------------------------------------------------------------------------------
Missing                                +       0.15 (  0.0%)       0.01 (  0.0%)
Total                                  =    2606.22 (100.0%)     349.54 (100.0%)
--------------------------------------------------------------------------------
