|===============================================================================
|
|  DFTB+ release 24.1
|
|  Copyright (C) 2006 - 2024  DFTB+ developers group
|
|===============================================================================
|
|  When publishing results obtained with DFTB+, please cite the following
|  reference:
|
|  * DFTB+, a software package for efficient approximate density functional
|    theory based atomistic simulations, J. Chem. Phys. 152, 124101 (2020).
|    [doi: 10.1063/1.5143190]
|
|  You should also cite additional publications crediting the parametrization
|  data you use. Please consult the documentation of the SK-files for the
|  references.
|
|===============================================================================

Reading input file 'dftb_in.hsd'
Parser version: 14

--------------------------------------------------------------------------------
Reading SK-files:
./SKFiles/Ge-Ge.skf
./SKFiles/Ge-Si.skf
./SKFiles/Ge-O.skf
./SKFiles/Si-Si.skf
./SKFiles/Si-O.skf
./SKFiles/O-O.skf
Done.


Processed input in HSD format written to 'dftb_pin.hsd'

Starting initialization...
--------------------------------------------------------------------------------
WARNING!
-> Dipole printed for extended system : value printed is not well defined
MPI processes:               1
OpenMP threads:              8
BLACS orbital grid size:     1 x 1
BLACS atom grid size:        1 x 1
Chosen random seed:          145692871
Current stacksize:           unlimited
Mode:                        Static calculation
Self consistent charges:     Yes
SCC-tolerance:                 0.100000E-07
Max. scc iterations:                    500
Shell resolved Hubbard:      No
Spin polarisation:           No
Nr. of up electrons:           192.000000
Nr. of down electrons:         192.000000
Periodic boundaries:         Yes
Electronic solver:           Relatively robust
Mixer:                       Broyden mixer
Mixing parameter:                  0.200000
Maximal SCC-cycles:                     500
Nr. of chrg. vec. in memory:            500
Electronic temperature:              0.100000E-07 H      0.272114E-06 eV
Initial charges:             Set automatically (system chrg:   0.000E+00)
Included shells:            Ge:  s, p, d
                            Si:  s, p, d
                             O:  s, p
K-points and weights:           1:  0.500000  0.500000  0.500000     1.000000

K-points in absolute space:     1:  0.025319  0.017606  0.037774

Extra options:
                             Mulliken analysis
Force type                   original

--------------------------------------------------------------------------------

***  Geometry step: 0

 iSCC Total electronic   Diff electronic      SCC error    
    1    0.00000000E+00    0.00000000E+00    0.14596896E+01
    2   -0.19479961E+03   -0.19479961E+03    0.99381588E+00
    3   -0.19516640E+03   -0.36679878E+00    0.59226198E-01
    4   -0.19548227E+03   -0.31586818E+00    0.28550818E-01
    5   -0.19548438E+03   -0.21087083E-02    0.75732761E-02
    6   -0.19548454E+03   -0.15431323E-03    0.17448739E-02
    7   -0.19548454E+03   -0.48902917E-05    0.53103272E-03
    8   -0.19548454E+03   -0.11842449E-05    0.57371931E-04
    9   -0.19548454E+03   -0.80988656E-07    0.33707358E-04
   10   -0.19548454E+03   -0.58406613E-10    0.14390563E-05
   11   -0.19548454E+03   -0.26207658E-09    0.51129131E-06
   12   -0.19548454E+03   -0.40927262E-11    0.14828040E-06
   13   -0.19548454E+03   -0.56843419E-13    0.18548262E-07
   14   -0.19548454E+03    0.56843419E-13    0.19340449E-08

Total Energy:                     -191.8767443102 H        -5221.2319 eV
Extrapolated to 0K:               -191.8767443102 H        -5221.2319 eV
Total Mermin free energy:         -191.8767443102 H        -5221.2319 eV
Force related energy:             -191.8767443102 H        -5221.2319 eV

Volume:                              0.913789E+04 au^3   0.135410E+04 A^3
Pressure:                            0.714694E-03 au     0.210270E+11 Pa
>> Charges saved for restart in charges.bin

total energy  -1.9187674E+02 H       energy change -1.9187674E+02 H
gradient norm  7.6038239E-01 H/a0    max. gradient  2.8955207E-01 H/a0
step length    0.0000000E+00 a0      max. step      0.0000000E+00 a0

--------------------------------------------------------------------------------

***  Geometry step: 1

 iSCC Total electronic   Diff electronic      SCC error    
    1   -0.19548454E+03    0.00000000E+00    0.75665772E-01
    2   -0.19519201E+03    0.29253238E+00    0.39057686E-01
    3   -0.19519630E+03   -0.42868386E-02    0.12104414E-01
    4   -0.19519737E+03   -0.10719741E-02    0.98360451E-03
    5   -0.19519738E+03   -0.15358769E-04    0.30396959E-03
    6   -0.19519738E+03   -0.55337730E-06    0.10682181E-03
    7   -0.19519738E+03   -0.36788151E-07    0.14523146E-04
    8   -0.19519738E+03   -0.34617926E-08    0.17140372E-05
    9   -0.19519738E+03   -0.18897595E-09    0.64917577E-06
   10   -0.19519738E+03   -0.40927262E-11    0.20517010E-06
   11   -0.19519738E+03   -0.14210855E-12    0.32944619E-07
   12   -0.19519738E+03   -0.28421709E-13    0.44819179E-08

Total Energy:                     -192.0489673914 H        -5225.9183 eV
Extrapolated to 0K:               -192.0489673914 H        -5225.9183 eV
Total Mermin free energy:         -192.0489673914 H        -5225.9183 eV
Force related energy:             -192.0489673914 H        -5225.9183 eV

Volume:                              0.936972E+04 au^3   0.138845E+04 A^3
Pressure:                            0.497808E-03 au     0.146460E+11 Pa
>> Charges saved for restart in charges.bin

total energy  -1.9204897E+02 H       energy change -1.7222308E-01 H
gradient norm  4.8658466E-01 H/a0    max. gradient  1.5756568E-01 H/a0
step length    5.3926119E-01 a0      max. step      2.0534957E-01 a0

--------------------------------------------------------------------------------

***  Geometry step: 2

 iSCC Total electronic   Diff electronic      SCC error    
    1   -0.19519738E+03    0.00000000E+00    0.59331971E-01
    2   -0.19510265E+03    0.94733173E-01    0.34013006E-01
    3   -0.19510510E+03   -0.24494566E-02    0.76433578E-02
    4   -0.19510575E+03   -0.65219350E-03    0.83123173E-03
    5   -0.19510576E+03   -0.62262475E-05    0.20408489E-03
    6   -0.19510576E+03   -0.30249325E-06    0.66413299E-04
    7   -0.19510576E+03   -0.16795894E-07    0.11346195E-04
    8   -0.19510576E+03   -0.18869741E-08    0.14677454E-05
    9   -0.19510576E+03   -0.75317530E-10    0.51312222E-06
   10   -0.19510576E+03   -0.22737368E-11    0.20675929E-06
   11   -0.19510576E+03   -0.85265128E-13    0.24349335E-07
   12   -0.19510576E+03    0.00000000E+00    0.34586178E-08

Total Energy:                     -192.1714267687 H        -5229.2506 eV
Extrapolated to 0K:               -192.1714267687 H        -5229.2506 eV
Total Mermin free energy:         -192.1714267687 H        -5229.2506 eV
Force related energy:             -192.1714267687 H        -5229.2506 eV

Volume:                              0.937343E+04 au^3   0.138900E+04 A^3
Pressure:                            0.417809E-03 au     0.122924E+11 Pa
>> Charges saved for restart in charges.bin

total energy  -1.9217143E+02 H       energy change -1.2245938E-01 H
gradient norm  2.8526803E-01 H/a0    max. gradient  6.1980130E-02 H/a0
step length    4.0583526E-01 a0      max. step      9.2472490E-02 a0

--------------------------------------------------------------------------------

***  Geometry step: 3

 iSCC Total electronic   Diff electronic      SCC error    
    1   -0.19510576E+03    0.00000000E+00    0.57154968E-01
    2   -0.19485626E+03    0.24950044E+00    0.33133684E-01
    3   -0.19485816E+03   -0.19031095E-02    0.60037571E-02
    4   -0.19485870E+03   -0.53690687E-03    0.79469598E-03
    5   -0.19485870E+03   -0.65009047E-05    0.18834845E-03
    6   -0.19485871E+03   -0.41260532E-06    0.84432979E-04
    7   -0.19485871E+03   -0.11741378E-07    0.10210448E-04
    8   -0.19485871E+03   -0.15031958E-08    0.16128877E-05
    9   -0.19485871E+03   -0.87112539E-10    0.47010847E-06
   10   -0.19485871E+03   -0.14210855E-11    0.98065501E-07
   11   -0.19485871E+03    0.56843419E-13    0.17181288E-07
   12   -0.19485871E+03    0.00000000E+00    0.50392766E-08

Total Energy:                     -192.2629794101 H        -5231.7419 eV
Extrapolated to 0K:               -192.2629794101 H        -5231.7419 eV
Total Mermin free energy:         -192.2629794101 H        -5231.7419 eV
Force related energy:             -192.2629794101 H        -5231.7419 eV

Volume:                              0.948740E+04 au^3   0.140589E+04 A^3
Pressure:                            0.282125E-03 au     0.830039E+10 Pa
>> Charges saved for restart in charges.bin

total energy  -1.9226298E+02 H       energy change -9.1552641E-02 H
gradient norm  2.1553724E-01 H/a0    max. gradient  1.0468123E-01 H/a0
step length    5.4820464E-01 a0      max. step      1.0897875E-01 a0

--------------------------------------------------------------------------------

***  Geometry step: 4

 iSCC Total electronic   Diff electronic      SCC error    
    1   -0.19485871E+03    0.00000000E+00    0.51862202E-01
    2   -0.19460821E+03    0.25049980E+00    0.24116632E-01
    3   -0.19460921E+03   -0.10050067E-02    0.40626109E-02
    4   -0.19460945E+03   -0.24311288E-03    0.69356455E-03
    5   -0.19460946E+03   -0.52870399E-05    0.19190239E-03
    6   -0.19460946E+03   -0.31844297E-06    0.98040022E-04
    7   -0.19460946E+03   -0.51289817E-08    0.84302818E-05
    8   -0.19460946E+03   -0.95809582E-09    0.22703162E-05
    9   -0.19460946E+03   -0.51016968E-10    0.32586463E-06
   10   -0.19460946E+03   -0.71054274E-12    0.84481737E-07
   11   -0.19460946E+03   -0.85265128E-13    0.14580536E-07
   12   -0.19460946E+03   -0.56843419E-13    0.43734874E-08

Total Energy:                     -192.3081477855 H        -5232.9710 eV
Extrapolated to 0K:               -192.3081477855 H        -5232.9710 eV
Total Mermin free energy:         -192.3081477855 H        -5232.9710 eV
Force related energy:             -192.3081477855 H        -5232.9710 eV

Volume:                              0.960595E+04 au^3   0.142346E+04 A^3
Pressure:                            0.163059E-03 au     0.479737E+10 Pa
>> Charges saved for restart in charges.bin

total energy  -1.9230815E+02 H       energy change -4.5168375E-02 H
gradient norm  1.8778121E-01 H/a0    max. gradient  1.0535827E-01 H/a0
step length    4.9667253E-01 a0      max. step      1.0710831E-01 a0

--------------------------------------------------------------------------------

***  Geometry step: 5

 iSCC Total electronic   Diff electronic      SCC error    
    1   -0.19460946E+03    0.00000000E+00    0.25881839E-01
    2   -0.19447044E+03    0.13901674E+00    0.13681261E-01
    3   -0.19447086E+03   -0.42154265E-03    0.21472937E-02
    4   -0.19447097E+03   -0.10928332E-03    0.25969058E-03
    5   -0.19447098E+03   -0.18373324E-05    0.10366251E-03
    6   -0.19447098E+03   -0.58069304E-07    0.47460148E-04
    7   -0.19447098E+03   -0.17652155E-08    0.41545890E-05
    8   -0.19447098E+03   -0.27628744E-09    0.99663806E-06
    9   -0.19447098E+03   -0.92938990E-11    0.15713677E-06
   10   -0.19447098E+03   -0.22737368E-12    0.35827743E-07
   11   -0.19447098E+03   -0.56843419E-13    0.76800837E-08

Total Energy:                     -192.3314338128 H        -5233.6046 eV
Extrapolated to 0K:               -192.3314338128 H        -5233.6046 eV
Total Mermin free energy:         -192.3314338128 H        -5233.6046 eV
Force related energy:             -192.3314338128 H        -5233.6046 eV

Volume:                              0.966249E+04 au^3   0.143183E+04 A^3
Pressure:                            0.101036E-03 au     0.297259E+10 Pa
>> Charges saved for restart in charges.bin

total energy  -1.9233143E+02 H       energy change -2.3286027E-02 H
gradient norm  9.6204491E-02 H/a0    max. gradient  2.1710142E-02 H/a0
step length    3.2653052E-01 a0      max. step      6.1182000E-02 a0

--------------------------------------------------------------------------------

***  Geometry step: 6

 iSCC Total electronic   Diff electronic      SCC error    
    1   -0.19447098E+03    0.00000000E+00    0.14828853E-01
    2   -0.19437692E+03    0.94053031E-01    0.67708322E-02
    3   -0.19437708E+03   -0.15614697E-03    0.21213325E-02
    4   -0.19437711E+03   -0.32259781E-04    0.28234792E-03
    5   -0.19437711E+03   -0.77119910E-06    0.66777923E-04
    6   -0.19437711E+03   -0.43395858E-07    0.28490226E-04
    7   -0.19437711E+03   -0.90815888E-09    0.40407769E-05
    8   -0.19437711E+03   -0.88988372E-10    0.85721435E-06
    9   -0.19437711E+03   -0.79012352E-11    0.18292301E-06
   10   -0.19437711E+03   -0.28421709E-12    0.26812784E-07
   11   -0.19437711E+03    0.00000000E+00    0.47976108E-08

Total Energy:                     -192.3433619900 H        -5233.9292 eV
Extrapolated to 0K:               -192.3433619900 H        -5233.9292 eV
Total Mermin free energy:         -192.3433619900 H        -5233.9292 eV
Force related energy:             -192.3433619900 H        -5233.9292 eV

Volume:                              0.970704E+04 au^3   0.143844E+04 A^3
Pressure:                            0.577291E-04 au     0.169845E+10 Pa
>> Charges saved for restart in charges.bin

total energy  -1.9234336E+02 H       energy change -1.1928177E-02 H
gradient norm  7.1731496E-02 H/a0    max. gradient  1.2416031E-02 H/a0
step length    2.5966343E-01 a0      max. step      5.2691387E-02 a0

--------------------------------------------------------------------------------

***  Geometry step: 7

 iSCC Total electronic   Diff electronic      SCC error    
    1   -0.19437711E+03    0.00000000E+00    0.11781853E-01
    2   -0.19434106E+03    0.36048488E-01    0.56900003E-02
    3   -0.19434126E+03   -0.19659654E-03    0.20451501E-02
    4   -0.19434131E+03   -0.48559288E-04    0.39236664E-03
    5   -0.19434131E+03   -0.83598891E-06    0.61736144E-04
    6   -0.19434131E+03   -0.96043948E-07    0.14717096E-04
    7   -0.19434131E+03   -0.22437519E-08    0.49213038E-05
    8   -0.19434131E+03   -0.57610805E-10    0.78542539E-06
    9   -0.19434131E+03   -0.75033313E-11    0.16496861E-06
   10   -0.19434131E+03   -0.42632564E-12    0.25830134E-07
   11   -0.19434131E+03   -0.28421709E-13    0.48749689E-08

Total Energy:                     -192.3513849771 H        -5234.1475 eV
Extrapolated to 0K:               -192.3513849771 H        -5234.1475 eV
Total Mermin free energy:         -192.3513849771 H        -5234.1475 eV
Force related energy:             -192.3513849771 H        -5234.1475 eV

Volume:                              0.972183E+04 au^3   0.144063E+04 A^3
Pressure:                            0.400686E-04 au     0.117886E+10 Pa
>> Charges saved for restart in charges.bin

total energy  -1.9235138E+02 H       energy change -8.0229871E-03 H
gradient norm  6.2847337E-02 H/a0    max. gradient  2.4489931E-02 H/a0
step length    2.3080684E-01 a0      max. step      4.7669247E-02 a0

--------------------------------------------------------------------------------

***  Geometry step: 8

 iSCC Total electronic   Diff electronic      SCC error    
    1   -0.19434131E+03    0.00000000E+00    0.14981826E-01
    2   -0.19433860E+03    0.27093280E-02    0.92210680E-02
    3   -0.19433874E+03   -0.14345751E-03    0.18977479E-02
    4   -0.19433878E+03   -0.37137419E-04    0.23724536E-03
    5   -0.19433878E+03   -0.10134326E-05    0.81705483E-04
    6   -0.19433878E+03   -0.49764083E-07    0.18549044E-04
    7   -0.19433878E+03   -0.13818635E-08    0.41377936E-05
    8   -0.19433878E+03   -0.84895646E-10    0.67257520E-06
    9   -0.19433878E+03   -0.11198154E-10    0.17106473E-06
   10   -0.19433878E+03   -0.28421709E-12    0.20816603E-07
   11   -0.19433878E+03   -0.28421709E-13    0.58561316E-08

Total Energy:                     -192.3561902039 H        -5234.2783 eV
Extrapolated to 0K:               -192.3561902039 H        -5234.2783 eV
Total Mermin free energy:         -192.3561902039 H        -5234.2783 eV
Force related energy:             -192.3561902039 H        -5234.2783 eV

Volume:                              0.972853E+04 au^3   0.144162E+04 A^3
Pressure:                            0.351227E-04 au     0.103334E+10 Pa
>> Charges saved for restart in charges.bin

total energy  -1.9235619E+02 H       energy change -4.8052268E-03 H
gradient norm  5.4848168E-02 H/a0    max. gradient  2.0911216E-02 H/a0
step length    1.9376111E-01 a0      max. step      3.2516537E-02 a0

--------------------------------------------------------------------------------

***  Geometry step: 9

 iSCC Total electronic   Diff electronic      SCC error    
    1   -0.19433878E+03    0.00000000E+00    0.79191549E-02
    2   -0.19435721E+03   -0.18427670E-01    0.49237671E-02
    3   -0.19435727E+03   -0.58151829E-04    0.10615944E-02
    4   -0.19435728E+03   -0.15315110E-04    0.15398307E-03
    5   -0.19435728E+03   -0.66384465E-06    0.52657477E-04
    6   -0.19435728E+03   -0.37983540E-07    0.11043370E-04
    7   -0.19435728E+03   -0.10062138E-08    0.29662432E-05
    8   -0.19435728E+03   -0.33566039E-10    0.51687603E-06
    9   -0.19435728E+03   -0.60822458E-11    0.96415224E-07
   10   -0.19435728E+03   -0.17053026E-12    0.12802376E-07
   11   -0.19435728E+03   -0.56843419E-13    0.30460043E-08

Total Energy:                     -192.3590602920 H        -5234.3564 eV
Extrapolated to 0K:               -192.3590602920 H        -5234.3564 eV
Total Mermin free energy:         -192.3590602920 H        -5234.3564 eV
Force related energy:             -192.3590602920 H        -5234.3564 eV

Volume:                              0.972016E+04 au^3   0.144038E+04 A^3
Pressure:                            0.399598E-04 au     0.117566E+10 Pa
>> Charges saved for restart in charges.bin

total energy  -1.9235906E+02 H       energy change -2.8700881E-03 H
gradient norm  4.0243117E-02 H/a0    max. gradient  7.4235819E-03 H/a0
step length    1.3815303E-01 a0      max. step      2.3966014E-02 a0

--------------------------------------------------------------------------------

***  Geometry step: 10

 iSCC Total electronic   Diff electronic      SCC error    
    1   -0.19435728E+03    0.00000000E+00    0.87652586E-02
    2   -0.19437209E+03   -0.14807461E-01    0.56230816E-02
    3   -0.19437214E+03   -0.52297963E-04    0.12861076E-02
    4   -0.19437216E+03   -0.13503240E-04    0.13872521E-03
    5   -0.19437216E+03   -0.69978432E-06    0.40648403E-04
    6   -0.19437216E+03   -0.21501791E-07    0.12377836E-04
    7   -0.19437216E+03   -0.69002226E-09    0.23456679E-05
    8   -0.19437216E+03   -0.40898840E-10    0.47109734E-06
    9   -0.19437216E+03   -0.23021585E-11    0.76245340E-07
   10   -0.19437216E+03   -0.85265128E-13    0.15750963E-07
   11   -0.19437216E+03   -0.56843419E-13    0.22457929E-08

Total Energy:                     -192.3618363478 H        -5234.4319 eV
Extrapolated to 0K:               -192.3618363478 H        -5234.4319 eV
Total Mermin free energy:         -192.3618363478 H        -5234.4319 eV
Force related energy:             -192.3618363478 H        -5234.4319 eV

Volume:                              0.972034E+04 au^3   0.144041E+04 A^3
Pressure:                            0.427736E-04 au     0.125844E+10 Pa
>> Charges saved for restart in charges.bin

total energy  -1.9236184E+02 H       energy change -2.7760558E-03 H
gradient norm  3.8312282E-02 H/a0    max. gradient  9.9219983E-03 H/a0
step length    1.4363269E-01 a0      max. step      2.7315225E-02 a0

--------------------------------------------------------------------------------

***  Geometry step: 11

 iSCC Total electronic   Diff electronic      SCC error    
    1   -0.19437216E+03    0.00000000E+00    0.10243671E-01
    2   -0.19437649E+03   -0.43367031E-02    0.63598288E-02
    3   -0.19437655E+03   -0.58990115E-04    0.14475950E-02
    4   -0.19437657E+03   -0.14396240E-04    0.16112434E-03
    5   -0.19437657E+03   -0.67919757E-06    0.25626300E-04
    6   -0.19437657E+03   -0.26265440E-07    0.72134339E-05
    7   -0.19437657E+03   -0.49880100E-09    0.20566114E-05
    8   -0.19437657E+03   -0.40330406E-10    0.28614614E-06
    9   -0.19437657E+03   -0.17053026E-11    0.42525614E-07
   10   -0.19437657E+03   -0.11368684E-12    0.10244341E-07
   11   -0.19437657E+03   -0.56843419E-13    0.28541529E-08

Total Energy:                     -192.3646998116 H        -5234.5098 eV
Extrapolated to 0K:               -192.3646998116 H        -5234.5098 eV
Total Mermin free energy:         -192.3646998116 H        -5234.5098 eV
Force related energy:             -192.3646998116 H        -5234.5098 eV

Volume:                              0.973090E+04 au^3   0.144197E+04 A^3
Pressure:                            0.417390E-04 au     0.122800E+10 Pa
>> Charges saved for restart in charges.bin

total energy  -1.9236470E+02 H       energy change -2.8634638E-03 H
gradient norm  3.9885192E-02 H/a0    max. gradient  1.6758004E-02 H/a0
step length    1.7208627E-01 a0      max. step      3.3274260E-02 a0

--------------------------------------------------------------------------------

***  Geometry step: 12

 iSCC Total electronic   Diff electronic      SCC error    
    1   -0.19437657E+03    0.00000000E+00    0.88142552E-02
    2   -0.19436192E+03    0.14646583E-01    0.54987228E-02
    3   -0.19436196E+03   -0.40690783E-04    0.13834137E-02
    4   -0.19436197E+03   -0.94691879E-05    0.14160678E-03
    5   -0.19436197E+03   -0.43747340E-06    0.24398001E-04
    6   -0.19436197E+03   -0.23056941E-07    0.83196810E-05
    7   -0.19436197E+03   -0.39034376E-09    0.18436655E-05
    8   -0.19436197E+03   -0.15717205E-10    0.30567169E-06
    9   -0.19436197E+03   -0.17621460E-11    0.97574486E-07
   10   -0.19436197E+03   -0.28421709E-13    0.18519095E-07
   11   -0.19436197E+03    0.56843419E-13    0.17278881E-08

Total Energy:                     -192.3669628165 H        -5234.5714 eV
Extrapolated to 0K:               -192.3669628165 H        -5234.5714 eV
Total Mermin free energy:         -192.3669628165 H        -5234.5714 eV
Force related energy:             -192.3669628165 H        -5234.5714 eV

Volume:                              0.975489E+04 au^3   0.144553E+04 A^3
Pressure:                            0.331079E-04 au     0.974067E+09 Pa
>> Charges saved for restart in charges.bin

total energy  -1.9236696E+02 H       energy change -2.2630048E-03 H
gradient norm  3.4731796E-02 H/a0    max. gradient  1.2615623E-02 H/a0
step length    1.8307361E-01 a0      max. step      3.5465992E-02 a0

--------------------------------------------------------------------------------

***  Geometry step: 13

 iSCC Total electronic   Diff electronic      SCC error    
    1   -0.19436197E+03    0.00000000E+00    0.44613632E-02
    2   -0.19434399E+03    0.17979229E-01    0.27139829E-02
    3   -0.19434401E+03   -0.19403385E-04    0.78143721E-03
    4   -0.19434402E+03   -0.41090178E-05    0.58719690E-04
    5   -0.19434402E+03   -0.11745161E-06    0.12178077E-04
    6   -0.19434402E+03   -0.71646866E-08    0.44873955E-05
    7   -0.19434402E+03   -0.15333512E-09    0.15538289E-05
    8   -0.19434402E+03   -0.65654149E-11    0.29685536E-06
    9   -0.19434402E+03   -0.68212103E-12    0.61454490E-07
   10   -0.19434402E+03   -0.17053026E-12    0.84234943E-08

Total Energy:                     -192.3683199046 H        -5234.6083 eV
Extrapolated to 0K:               -192.3683199046 H        -5234.6083 eV
Total Mermin free energy:         -192.3683199046 H        -5234.6083 eV
Force related energy:             -192.3683199046 H        -5234.6083 eV

Volume:                              0.977922E+04 au^3   0.144913E+04 A^3
Pressure:                            0.238924E-04 au     0.702938E+09 Pa
>> Charges saved for restart in charges.bin

total energy  -1.9236832E+02 H       energy change -1.3570881E-03 H
gradient norm  2.5777031E-02 H/a0    max. gradient  5.9227460E-03 H/a0
step length    1.2512873E-01 a0      max. step      2.4196439E-02 a0

--------------------------------------------------------------------------------

***  Geometry step: 14

 iSCC Total electronic   Diff electronic      SCC error    
    1   -0.19434402E+03    0.00000000E+00    0.53681853E-02
    2   -0.19433166E+03    0.12359882E-01    0.22074864E-02
    3   -0.19433169E+03   -0.29271658E-04    0.52267790E-03
    4   -0.19433169E+03   -0.63095056E-05    0.88292299E-04
    5   -0.19433169E+03   -0.98419207E-07    0.15839807E-04
    6   -0.19433169E+03   -0.70302804E-08    0.50072028E-05
    7   -0.19433169E+03   -0.36894221E-09    0.13401839E-05
    8   -0.19433169E+03   -0.20833113E-10    0.35354666E-06
    9   -0.19433169E+03   -0.11652901E-11    0.53520096E-07
   10   -0.19433169E+03   -0.85265128E-13    0.70622090E-08

Total Energy:                     -192.3693881519 H        -5234.6374 eV
Extrapolated to 0K:               -192.3693881519 H        -5234.6374 eV
Total Mermin free energy:         -192.3693881519 H        -5234.6374 eV
Force related energy:             -192.3693881519 H        -5234.6374 eV

Volume:                              0.980057E+04 au^3   0.145229E+04 A^3
Pressure:                            0.171056E-04 au     0.503263E+09 Pa
>> Charges saved for restart in charges.bin

total energy  -1.9236939E+02 H       energy change -1.0682473E-03 H
gradient norm  2.1191161E-02 H/a0    max. gradient  4.3903465E-03 H/a0
step length    1.0739111E-01 a0      max. step      1.9942385E-02 a0

--------------------------------------------------------------------------------

***  Geometry step: 15

 iSCC Total electronic   Diff electronic      SCC error    
    1   -0.19433169E+03    0.00000000E+00    0.51515369E-02
    2   -0.19432722E+03    0.44754474E-02    0.27252399E-02
    3   -0.19432724E+03   -0.20862458E-04    0.51827082E-03
    4   -0.19432724E+03   -0.48528736E-05    0.88029550E-04
    5   -0.19432724E+03   -0.76595086E-07    0.20421187E-04
    6   -0.19432724E+03   -0.48902962E-08    0.55817863E-05
    7   -0.19432724E+03   -0.22640734E-09    0.13739997E-05
    8   -0.19432724E+03   -0.73043793E-11    0.19697721E-06
    9   -0.19432724E+03   -0.88107299E-12    0.47453804E-07
   10   -0.19432724E+03   -0.56843419E-13    0.65937638E-08

Total Energy:                     -192.3701859752 H        -5234.6591 eV
Extrapolated to 0K:               -192.3701859752 H        -5234.6591 eV
Total Mermin free energy:         -192.3701859752 H        -5234.6591 eV
Force related energy:             -192.3701859752 H        -5234.6591 eV

Volume:                              0.981750E+04 au^3   0.145480E+04 A^3
Pressure:                            0.143301E-04 au     0.421606E+09 Pa
>> Charges saved for restart in charges.bin

total energy  -1.9237019E+02 H       energy change -7.9782330E-04 H
gradient norm  2.2849151E-02 H/a0    max. gradient  5.5207007E-03 H/a0
step length    8.8151912E-02 a0      max. step      1.6610170E-02 a0

--------------------------------------------------------------------------------

***  Geometry step: 16

 iSCC Total electronic   Diff electronic      SCC error    
    1   -0.19432724E+03    0.00000000E+00    0.54869522E-02
    2   -0.19432766E+03   -0.41706598E-03    0.30344705E-02
    3   -0.19432768E+03   -0.15832254E-04    0.62918268E-03
    4   -0.19432768E+03   -0.37833736E-05    0.94307126E-04
    5   -0.19432768E+03   -0.91859164E-07    0.27206108E-04
    6   -0.19432768E+03   -0.75245339E-08    0.54502313E-05
    7   -0.19432768E+03   -0.22561153E-09    0.12859384E-05
    8   -0.19432768E+03   -0.51159077E-11    0.24169994E-06
    9   -0.19432768E+03   -0.10516032E-11    0.38396918E-07
   10   -0.19432768E+03   -0.56843419E-13    0.49384434E-08

Total Energy:                     -192.3709749103 H        -5234.6806 eV
Extrapolated to 0K:               -192.3709749103 H        -5234.6806 eV
Total Mermin free energy:         -192.3709749103 H        -5234.6806 eV
Force related energy:             -192.3709749103 H        -5234.6806 eV

Volume:                              0.983299E+04 au^3   0.145710E+04 A^3
Pressure:                            0.135225E-04 au     0.397844E+09 Pa
>> Charges saved for restart in charges.bin

total energy  -1.9237097E+02 H       energy change -7.8893507E-04 H
gradient norm  2.4813426E-02 H/a0    max. gradient  6.4526491E-03 H/a0
step length    1.0165902E-01 a0      max. step      2.0519575E-02 a0

--------------------------------------------------------------------------------

***  Geometry step: 17

 iSCC Total electronic   Diff electronic      SCC error    
    1   -0.19432768E+03    0.00000000E+00    0.49062025E-02
    2   -0.19432809E+03   -0.41345555E-03    0.25046420E-02
    3   -0.19432810E+03   -0.10948649E-04    0.61004089E-03
    4   -0.19432811E+03   -0.23048291E-05    0.72067621E-04
    5   -0.19432811E+03   -0.74066378E-07    0.29866968E-04
    6   -0.19432811E+03   -0.61570233E-08    0.50577543E-05
    7   -0.19432811E+03   -0.11905854E-09    0.10852633E-05
    8   -0.19432811E+03   -0.46895821E-11    0.24591685E-06
    9   -0.19432811E+03   -0.85265128E-12    0.40615581E-07
   10   -0.19432811E+03   -0.56843419E-13    0.76421909E-08

Total Energy:                     -192.3718443452 H        -5234.7042 eV
Extrapolated to 0K:               -192.3718443452 H        -5234.7042 eV
Total Mermin free energy:         -192.3718443452 H        -5234.7042 eV
Force related energy:             -192.3718443452 H        -5234.7042 eV

Volume:                              0.985104E+04 au^3   0.145977E+04 A^3
Pressure:                            0.125635E-04 au     0.369631E+09 Pa
>> Charges saved for restart in charges.bin

total energy  -1.9237184E+02 H       energy change -8.6943489E-04 H
gradient norm  2.3016688E-02 H/a0    max. gradient  6.3737271E-03 H/a0
step length    1.1742396E-01 a0      max. step      2.4207329E-02 a0

--------------------------------------------------------------------------------

***  Geometry step: 18

 iSCC Total electronic   Diff electronic      SCC error    
    1   -0.19432811E+03    0.00000000E+00    0.60544997E-02
    2   -0.19432978E+03   -0.16698884E-02    0.24912583E-02
    3   -0.19432980E+03   -0.20914778E-04    0.69256005E-03
    4   -0.19432980E+03   -0.37882955E-05    0.14933787E-03
    5   -0.19432980E+03   -0.71269881E-07    0.18810588E-04
    6   -0.19432980E+03   -0.95400026E-08    0.61384030E-05
    7   -0.19432980E+03   -0.13477575E-09    0.17887040E-05
    8   -0.19432980E+03   -0.36095571E-11    0.19722867E-06
    9   -0.19432980E+03   -0.79580786E-12    0.60445878E-07
   10   -0.19432980E+03    0.28421709E-13    0.79774760E-08

Total Energy:                     -192.3727292204 H        -5234.7283 eV
Extrapolated to 0K:               -192.3727292204 H        -5234.7283 eV
Total Mermin free energy:         -192.3727292204 H        -5234.7283 eV
Force related energy:             -192.3727292204 H        -5234.7283 eV

Volume:                              0.987019E+04 au^3   0.146261E+04 A^3
Pressure:                            0.121227E-04 au     0.356663E+09 Pa
>> Charges saved for restart in charges.bin

total energy  -1.9237273E+02 H       energy change -8.8487519E-04 H
gradient norm  1.9205331E-02 H/a0    max. gradient  3.7907964E-03 H/a0
step length    1.4168456E-01 a0      max. step      2.8339754E-02 a0

--------------------------------------------------------------------------------

***  Geometry step: 19

 iSCC Total electronic   Diff electronic      SCC error    
    1   -0.19432980E+03    0.00000000E+00    0.46844786E-02
    2   -0.19432784E+03    0.19583478E-02    0.16731846E-02
    3   -0.19432786E+03   -0.16010363E-04    0.54771143E-03
    4   -0.19432786E+03   -0.30510728E-05    0.11248229E-03
    5   -0.19432786E+03   -0.57138323E-07    0.17637883E-04
    6   -0.19432786E+03   -0.50522999E-08    0.55628160E-05
    7   -0.19432786E+03   -0.13903900E-09    0.14296819E-05
    8   -0.19432786E+03   -0.44053650E-11    0.23056809E-06
    9   -0.19432786E+03   -0.68212103E-12    0.39991819E-07
   10   -0.19432786E+03   -0.56843419E-13    0.47921658E-08

Total Energy:                     -192.3733057128 H        -5234.7440 eV
Extrapolated to 0K:               -192.3733057128 H        -5234.7440 eV
Total Mermin free energy:         -192.3733057128 H        -5234.7440 eV
Force related energy:             -192.3733057128 H        -5234.7440 eV

Volume:                              0.988661E+04 au^3   0.146504E+04 A^3
Pressure:                            0.100479E-04 au     0.295619E+09 Pa
>> Charges saved for restart in charges.bin

total energy  -1.9237331E+02 H       energy change -5.7649248E-04 H
gradient norm  1.7951392E-02 H/a0    max. gradient  4.2923232E-03 H/a0
step length    1.0760355E-01 a0      max. step      1.9278389E-02 a0

--------------------------------------------------------------------------------

***  Geometry step: 20

 iSCC Total electronic   Diff electronic      SCC error    
    1   -0.19432786E+03    0.00000000E+00    0.41585540E-02
    2   -0.19432596E+03    0.19059199E-02    0.23767541E-02
    3   -0.19432596E+03   -0.90384115E-05    0.55800869E-03
    4   -0.19432597E+03   -0.19264534E-05    0.10427341E-03
    5   -0.19432597E+03   -0.60946661E-07    0.22268129E-04
    6   -0.19432597E+03   -0.39039207E-08    0.40656099E-05
    7   -0.19432597E+03   -0.11414159E-09    0.82892115E-06
    8   -0.19432597E+03   -0.31832315E-11    0.27103192E-06
    9   -0.19432597E+03   -0.76738615E-12    0.41587230E-07
   10   -0.19432597E+03   -0.56843419E-13    0.46485917E-08

Total Energy:                     -192.3737737892 H        -5234.7567 eV
Extrapolated to 0K:               -192.3737737892 H        -5234.7567 eV
Total Mermin free energy:         -192.3737737892 H        -5234.7567 eV
Force related energy:             -192.3737737892 H        -5234.7567 eV

Volume:                              0.989978E+04 au^3   0.146700E+04 A^3
Pressure:                            0.807488E-05 au     0.237571E+09 Pa
>> Charges saved for restart in charges.bin

total energy  -1.9237377E+02 H       energy change -4.6807641E-04 H
gradient norm  1.6355569E-02 H/a0    max. gradient  4.4007478E-03 H/a0
step length    8.9456732E-02 a0      max. step      1.5963422E-02 a0

--------------------------------------------------------------------------------

***  Geometry step: 21

 iSCC Total electronic   Diff electronic      SCC error    
    1   -0.19432597E+03    0.00000000E+00    0.42947547E-02
    2   -0.19432380E+03    0.21627593E-02    0.25225797E-02
    3   -0.19432381E+03   -0.71324381E-05    0.46344836E-03
    4   -0.19432381E+03   -0.16873692E-05    0.78666870E-04
    5   -0.19432381E+03   -0.62398243E-07    0.22867397E-04
    6   -0.19432381E+03   -0.30068747E-08    0.30253679E-05
    7   -0.19432381E+03   -0.10462031E-09    0.73265531E-06
    8   -0.19432381E+03   -0.32400749E-11    0.22531742E-06
    9   -0.19432381E+03   -0.65369932E-12    0.36668559E-07
   10   -0.19432381E+03    0.28421709E-13    0.48522120E-08

Total Energy:                     -192.3741644331 H        -5234.7674 eV
Extrapolated to 0K:               -192.3741644331 H        -5234.7674 eV
Total Mermin free energy:         -192.3741644331 H        -5234.7674 eV
Force related energy:             -192.3741644331 H        -5234.7674 eV

Volume:                              0.991233E+04 au^3   0.146886E+04 A^3
Pressure:                            0.604423E-05 au     0.177827E+09 Pa
>> Charges saved for restart in charges.bin

total energy  -1.9237416E+02 H       energy change -3.9064389E-04 H
gradient norm  1.2846097E-02 H/a0    max. gradient  2.4217089E-03 H/a0
step length    8.0407570E-02 a0      max. step      1.5324747E-02 a0

--------------------------------------------------------------------------------

***  Geometry step: 22

 iSCC Total electronic   Diff electronic      SCC error    
    1   -0.19432381E+03    0.00000000E+00    0.23859874E-02
    2   -0.19432407E+03   -0.26133253E-03    0.11909674E-02
    3   -0.19432408E+03   -0.46531237E-05    0.29882552E-03
    4   -0.19432408E+03   -0.10614519E-05    0.51543507E-04
    5   -0.19432408E+03   -0.23094486E-07    0.15958176E-04
    6   -0.19432408E+03   -0.15409682E-08    0.29128921E-05
    7   -0.19432408E+03   -0.51926463E-10    0.52124257E-06
    8   -0.19432408E+03   -0.12505552E-11    0.12917129E-06
    9   -0.19432408E+03   -0.14210855E-12    0.23881318E-07
   10   -0.19432408E+03   -0.11368684E-12    0.23781639E-08

Total Energy:                     -192.3744092681 H        -5234.7740 eV
Extrapolated to 0K:               -192.3744092681 H        -5234.7740 eV
Total Mermin free energy:         -192.3744092681 H        -5234.7740 eV
Force related energy:             -192.3744092681 H        -5234.7740 eV

Volume:                              0.992042E+04 au^3   0.147005E+04 A^3
Pressure:                            0.511023E-05 au     0.150348E+09 Pa
>> Charges saved for restart in charges.bin

total energy  -1.9237441E+02 H       energy change -2.4483496E-04 H
gradient norm  1.0523393E-02 H/a0    max. gradient  2.1265701E-03 H/a0
step length    5.8220272E-02 a0      max. step      1.1413197E-02 a0

--------------------------------------------------------------------------------

***  Geometry step: 23

 iSCC Total electronic   Diff electronic      SCC error    
    1   -0.19432408E+03    0.00000000E+00    0.26233738E-02
    2   -0.19432619E+03   -0.21062698E-02    0.11056093E-02
    3   -0.19432619E+03   -0.46127940E-05    0.18716713E-03
    4   -0.19432619E+03   -0.10671515E-05    0.35386064E-04
    5   -0.19432619E+03   -0.96820543E-08    0.64953672E-05
    6   -0.19432619E+03   -0.71440809E-09    0.18436328E-05
    7   -0.19432619E+03   -0.31832315E-10    0.57272734E-06
    8   -0.19432619E+03   -0.65369932E-12    0.81200196E-07
    9   -0.19432619E+03   -0.56843419E-13    0.15423292E-07
   10   -0.19432619E+03   -0.28421709E-13    0.27276483E-08

Total Energy:                     -192.3745897562 H        -5234.7789 eV
Extrapolated to 0K:               -192.3745897562 H        -5234.7789 eV
Total Mermin free energy:         -192.3745897562 H        -5234.7789 eV
Force related energy:             -192.3745897562 H        -5234.7789 eV

Volume:                              0.992651E+04 au^3   0.147096E+04 A^3
Pressure:                            0.499970E-05 au     0.147096E+09 Pa
>> Charges saved for restart in charges.bin

total energy  -1.9237459E+02 H       energy change -1.8048810E-04 H
gradient norm  9.7436366E-03 H/a0    max. gradient  1.7500515E-03 H/a0
step length    4.6549476E-02 a0      max. step      8.7990246E-03 a0

--------------------------------------------------------------------------------

***  Geometry step: 24

 iSCC Total electronic   Diff electronic      SCC error    
    1   -0.19432619E+03    0.00000000E+00    0.25553751E-02
    2   -0.19432965E+03   -0.34538509E-02    0.13501873E-02
    3   -0.19432965E+03   -0.41656683E-05    0.24763762E-03
    4   -0.19432965E+03   -0.99400407E-06    0.27319473E-04
    5   -0.19432965E+03   -0.11612769E-07    0.88669951E-05
    6   -0.19432965E+03   -0.58054184E-09    0.17451237E-05
    7   -0.19432965E+03   -0.17678303E-10    0.37926660E-06
    8   -0.19432965E+03   -0.42632564E-12    0.81254917E-07
    9   -0.19432965E+03   -0.19895197E-12    0.20043234E-07
   10   -0.19432965E+03    0.28421709E-13    0.25220590E-08

Total Energy:                     -192.3747408502 H        -5234.7830 eV
Extrapolated to 0K:               -192.3747408502 H        -5234.7830 eV
Total Mermin free energy:         -192.3747408502 H        -5234.7830 eV
Force related energy:             -192.3747408502 H        -5234.7830 eV

Volume:                              0.993176E+04 au^3   0.147174E+04 A^3
Pressure:                            0.563384E-05 au     0.165753E+09 Pa
>> Charges saved for restart in charges.bin

total energy  -1.9237474E+02 H       energy change -1.5109404E-04 H
gradient norm  9.8530430E-03 H/a0    max. gradient  1.7669709E-03 H/a0
step length    4.5344942E-02 a0      max. step      7.7451167E-03 a0

--------------------------------------------------------------------------------

***  Geometry step: 25

 iSCC Total electronic   Diff electronic      SCC error    
    1   -0.19432965E+03    0.00000000E+00    0.22528606E-02
    2   -0.19433209E+03   -0.24344321E-02    0.12661404E-02
    3   -0.19433209E+03   -0.20826987E-05    0.19788352E-03
    4   -0.19433209E+03   -0.49890841E-06    0.21447978E-04
    5   -0.19433209E+03   -0.12235319E-07    0.68616923E-05
    6   -0.19433209E+03   -0.35410608E-09    0.87812092E-06
    7   -0.19433209E+03   -0.86117780E-11    0.24705990E-06
    8   -0.19433209E+03   -0.34106051E-12    0.74139650E-07
    9   -0.19433209E+03   -0.85265128E-13    0.16981212E-07
   10   -0.19433209E+03    0.00000000E+00    0.20232775E-08

Total Energy:                     -192.3748791707 H        -5234.7868 eV
Extrapolated to 0K:               -192.3748791707 H        -5234.7868 eV
Total Mermin free energy:         -192.3748791707 H        -5234.7868 eV
Force related energy:             -192.3748791707 H        -5234.7868 eV

Volume:                              0.993724E+04 au^3   0.147255E+04 A^3
Pressure:                            0.606210E-05 au     0.178353E+09 Pa
>> Charges saved for restart in charges.bin

total energy  -1.9237488E+02 H       energy change -1.3832046E-04 H
gradient norm  9.5326588E-03 H/a0    max. gradient  2.0237218E-03 H/a0
step length    4.0851309E-02 a0      max. step      7.2117197E-03 a0

--------------------------------------------------------------------------------

***  Geometry step: 26

 iSCC Total electronic   Diff electronic      SCC error    
    1   -0.19433209E+03    0.00000000E+00    0.26589066E-02
    2   -0.19433334E+03   -0.12500500E-02    0.12633955E-02
    3   -0.19433334E+03   -0.30342794E-05    0.31044802E-03
    4   -0.19433334E+03   -0.72204156E-06    0.30841961E-04
    5   -0.19433334E+03   -0.22127637E-07    0.93809062E-05
    6   -0.19433334E+03   -0.73089268E-09    0.14152654E-05
    7   -0.19433334E+03   -0.17564616E-10    0.35003809E-06
    8   -0.19433334E+03   -0.88107299E-12    0.12324871E-06
    9   -0.19433334E+03   -0.14210855E-12    0.24108133E-07
   10   -0.19433334E+03   -0.56843419E-13    0.24629569E-08

Total Energy:                     -192.3750657165 H        -5234.7919 eV
Extrapolated to 0K:               -192.3750657165 H        -5234.7919 eV
Total Mermin free energy:         -192.3750657165 H        -5234.7919 eV
Force related energy:             -192.3750657165 H        -5234.7919 eV

Volume:                              0.994679E+04 au^3   0.147396E+04 A^3
Pressure:                            0.586480E-05 au     0.172548E+09 Pa
>> Charges saved for restart in charges.bin

total energy  -1.9237507E+02 H       energy change -1.8654577E-04 H
gradient norm  9.9410486E-03 H/a0    max. gradient  1.9576786E-03 H/a0
step length    6.2767187E-02 a0      max. step      1.1858351E-02 a0

--------------------------------------------------------------------------------

***  Geometry step: 27

 iSCC Total electronic   Diff electronic      SCC error    
    1   -0.19433334E+03    0.00000000E+00    0.21897756E-02
    2   -0.19433193E+03    0.14100924E-02    0.13117253E-02
    3   -0.19433193E+03   -0.33696224E-05    0.39234124E-03
    4   -0.19433194E+03   -0.78819559E-06    0.33367835E-04
    5   -0.19433194E+03   -0.17757742E-07    0.67073512E-05
    6   -0.19433194E+03   -0.11241070E-08    0.15799052E-05
    7   -0.19433194E+03   -0.17593038E-10    0.40262384E-06
    8   -0.19433194E+03   -0.54001248E-12    0.10953740E-06
    9   -0.19433194E+03   -0.17053026E-12    0.28166709E-07
   10   -0.19433194E+03    0.28421709E-13    0.23928428E-08

Total Energy:                     -192.3752483555 H        -5234.7969 eV
Extrapolated to 0K:               -192.3752483555 H        -5234.7969 eV
Total Mermin free energy:         -192.3752483555 H        -5234.7969 eV
Force related energy:             -192.3752483555 H        -5234.7969 eV

Volume:                              0.995850E+04 au^3   0.147570E+04 A^3
Pressure:                            0.456993E-05 au     0.134452E+09 Pa
>> Charges saved for restart in charges.bin

total energy  -1.9237525E+02 H       energy change -1.8263905E-04 H
gradient norm  1.0621502E-02 H/a0    max. gradient  2.8354748E-03 H/a0
step length    7.0713894E-02 a0      max. step      1.5363542E-02 a0

--------------------------------------------------------------------------------

***  Geometry step: 28

 iSCC Total electronic   Diff electronic      SCC error    
    1   -0.19433194E+03    0.00000000E+00    0.18996859E-02
    2   -0.19432894E+03    0.29957130E-02    0.11984946E-02
    3   -0.19432894E+03   -0.34166233E-05    0.38498338E-03
    4   -0.19432894E+03   -0.77824748E-06    0.32503069E-04
    5   -0.19432894E+03   -0.13784870E-07    0.37574135E-05
    6   -0.19432894E+03   -0.11524151E-08    0.12171837E-05
    7   -0.19432894E+03   -0.14892976E-10    0.42857204E-06
    8   -0.19432894E+03   -0.25579538E-12    0.74825795E-07
    9   -0.19432894E+03   -0.85265128E-13    0.14339529E-07
   10   -0.19432894E+03   -0.28421709E-13    0.24355225E-08

Total Energy:                     -192.3754227607 H        -5234.8016 eV
Extrapolated to 0K:               -192.3754227607 H        -5234.8016 eV
Total Mermin free energy:         -192.3754227607 H        -5234.8016 eV
Force related energy:             -192.3754227607 H        -5234.8016 eV

Volume:                              0.997035E+04 au^3   0.147745E+04 A^3
Pressure:                            0.271236E-05 au     0.798003E+08 Pa
>> Charges saved for restart in charges.bin

total energy  -1.9237542E+02 H       energy change -1.7440521E-04 H
gradient norm  1.0530539E-02 H/a0    max. gradient  2.3071379E-03 H/a0
step length    7.3440740E-02 a0      max. step      1.7290733E-02 a0

--------------------------------------------------------------------------------

***  Geometry step: 29

 iSCC Total electronic   Diff electronic      SCC error    
    1   -0.19432894E+03    0.00000000E+00    0.17356566E-02
    2   -0.19432573E+03    0.32103114E-02    0.91774457E-03
    3   -0.19432574E+03   -0.34222059E-05    0.29308070E-03
    4   -0.19432574E+03   -0.73853610E-06    0.38520271E-04
    5   -0.19432574E+03   -0.13256226E-07    0.74141804E-05
    6   -0.19432574E+03   -0.10430199E-08    0.17262511E-05
    7   -0.19432574E+03   -0.16484591E-10    0.37918880E-06
    8   -0.19432574E+03   -0.39790393E-12    0.80342812E-07
    9   -0.19432574E+03   -0.28421709E-13    0.18721845E-07
   10   -0.19432574E+03   -0.56843419E-13    0.24093945E-08

Total Energy:                     -192.3755919579 H        -5234.8062 eV
Extrapolated to 0K:               -192.3755919579 H        -5234.8062 eV
Total Mermin free energy:         -192.3755919579 H        -5234.8062 eV
Force related energy:             -192.3755919579 H        -5234.8062 eV

Volume:                              0.998084E+04 au^3   0.147901E+04 A^3
Pressure:                            0.912098E-06 au     0.268348E+08 Pa
>> Charges saved for restart in charges.bin

total energy  -1.9237559E+02 H       energy change -1.6919720E-04 H
gradient norm  9.5772438E-03 H/a0    max. gradient  1.9971073E-03 H/a0
step length    7.3706926E-02 a0      max. step      1.8122720E-02 a0

--------------------------------------------------------------------------------

***  Geometry step: 30

 iSCC Total electronic   Diff electronic      SCC error    
    1   -0.19432574E+03    0.00000000E+00    0.18858261E-02
    2   -0.19432418E+03    0.15553570E-02    0.79722063E-03
    3   -0.19432419E+03   -0.29056987E-05    0.21620447E-03
    4   -0.19432419E+03   -0.63852386E-06    0.38302998E-04
    5   -0.19432419E+03   -0.11578095E-07    0.69563830E-05
    6   -0.19432419E+03   -0.92404662E-09    0.14489897E-05
    7   -0.19432419E+03   -0.19667823E-10    0.34759783E-06
    8   -0.19432419E+03   -0.45474735E-12    0.68410872E-07
    9   -0.19432419E+03   -0.85265128E-13    0.14455281E-07
   10   -0.19432419E+03    0.85265128E-13    0.21360238E-08

Total Energy:                     -192.3757429420 H        -5234.8103 eV
Extrapolated to 0K:               -192.3757429420 H        -5234.8103 eV
Total Mermin free energy:         -192.3757429420 H        -5234.8103 eV
Force related energy:             -192.3757429420 H        -5234.8103 eV

Volume:                              0.998801E+04 au^3   0.148007E+04 A^3
Pressure:                           -0.408001E-06 au    -0.120038E+08 Pa
>> Charges saved for restart in charges.bin

total energy  -1.9237574E+02 H       energy change -1.5098406E-04 H
gradient norm  9.1957429E-03 H/a0    max. gradient  2.5066499E-03 H/a0
step length    6.6818240E-02 a0      max. step      1.6029248E-02 a0

--------------------------------------------------------------------------------

***  Geometry step: 31

 iSCC Total electronic   Diff electronic      SCC error    
    1   -0.19432419E+03    0.00000000E+00    0.19240257E-02
    2   -0.19432550E+03   -0.13173106E-02    0.76959121E-03
    3   -0.19432551E+03   -0.32211957E-05    0.20567937E-03
    4   -0.19432551E+03   -0.72137834E-06    0.39966320E-04
    5   -0.19432551E+03   -0.11839290E-07    0.53278064E-05
    6   -0.19432551E+03   -0.10349765E-08    0.10980596E-05
    7   -0.19432551E+03   -0.23248958E-10    0.30223805E-06
    8   -0.19432551E+03   -0.45474735E-12    0.62042871E-07
    9   -0.19432551E+03    0.00000000E+00    0.12313650E-07
   10   -0.19432551E+03   -0.56843419E-13    0.29580018E-08

Total Energy:                     -192.3759028755 H        -5234.8147 eV
Extrapolated to 0K:               -192.3759028755 H        -5234.8147 eV
Total Mermin free energy:         -192.3759028755 H        -5234.8147 eV
Force related energy:             -192.3759028755 H        -5234.8147 eV

Volume:                              0.999187E+04 au^3   0.148064E+04 A^3
Pressure:                           -0.429086E-06 au    -0.126241E+08 Pa
>> Charges saved for restart in charges.bin

total energy  -1.9237590E+02 H       energy change -1.5993354E-04 H
gradient norm  1.0253982E-02 H/a0    max. gradient  2.8332842E-03 H/a0
step length    6.9520273E-02 a0      max. step      1.5288424E-02 a0

--------------------------------------------------------------------------------

***  Geometry step: 32

 iSCC Total electronic   Diff electronic      SCC error    
    1   -0.19432551E+03    0.00000000E+00    0.13785551E-02
    2   -0.19432901E+03   -0.34991325E-02    0.71184047E-03
    3   -0.19432901E+03   -0.34308254E-05    0.25951255E-03
    4   -0.19432901E+03   -0.77024549E-06    0.32894885E-04
    5   -0.19432901E+03   -0.11508575E-07    0.50014138E-05
    6   -0.19432901E+03   -0.11191901E-08    0.79697692E-06
    7   -0.19432901E+03   -0.19412028E-10    0.30498138E-06
    8   -0.19432901E+03   -0.25579538E-12    0.63000740E-07
    9   -0.19432901E+03    0.00000000E+00    0.11360740E-07
   10   -0.19432901E+03   -0.28421709E-13    0.24104114E-08

Total Energy:                     -192.3760900039 H        -5234.8198 eV
Extrapolated to 0K:               -192.3760900039 H        -5234.8198 eV
Total Mermin free energy:         -192.3760900039 H        -5234.8198 eV
Force related energy:             -192.3760900039 H        -5234.8198 eV

Volume:                              0.999410E+04 au^3   0.148097E+04 A^3
Pressure:                            0.372997E-06 au     0.109740E+08 Pa
>> Charges saved for restart in charges.bin

total energy  -1.9237609E+02 H       energy change -1.8712841E-04 H
gradient norm  1.1561349E-02 H/a0    max. gradient  2.9267444E-03 H/a0
step length    8.3522181E-02 a0      max. step      1.6279795E-02 a0

--------------------------------------------------------------------------------

***  Geometry step: 33

 iSCC Total electronic   Diff electronic      SCC error    
    1   -0.19432901E+03    0.00000000E+00    0.17735944E-02
    2   -0.19433405E+03   -0.50343443E-02    0.10986892E-02
    3   -0.19433405E+03   -0.33901055E-05    0.34573435E-03
    4   -0.19433405E+03   -0.73938205E-06    0.36590479E-04
    5   -0.19433405E+03   -0.13250968E-07    0.43104831E-05
    6   -0.19433405E+03   -0.11169732E-08    0.11125706E-05
    7   -0.19433405E+03   -0.14949819E-10    0.43376797E-06
    8   -0.19433405E+03   -0.14210855E-12    0.64618241E-07
    9   -0.19433405E+03   -0.11368684E-12    0.13720990E-07
   10   -0.19433405E+03   -0.56843419E-13    0.22441453E-08

Total Energy:                     -192.3763099209 H        -5234.8257 eV
Extrapolated to 0K:               -192.3763099209 H        -5234.8257 eV
Total Mermin free energy:         -192.3763099209 H        -5234.8257 eV
Force related energy:             -192.3763099209 H        -5234.8257 eV

Volume:                              0.999561E+04 au^3   0.148120E+04 A^3
Pressure:                            0.186400E-05 au     0.548408E+08 Pa
>> Charges saved for restart in charges.bin

total energy  -1.9237631E+02 H       energy change -2.1991693E-04 H
gradient norm  1.1850436E-02 H/a0    max. gradient  2.6120484E-03 H/a0
step length    1.0780282E-01 a0      max. step      1.9070962E-02 a0

--------------------------------------------------------------------------------

***  Geometry step: 34

 iSCC Total electronic   Diff electronic      SCC error    
    1   -0.19433405E+03    0.00000000E+00    0.17924837E-02
    2   -0.19433771E+03   -0.36604414E-02    0.11122313E-02
    3   -0.19433771E+03   -0.25667112E-05    0.34206684E-03
    4   -0.19433771E+03   -0.55643426E-06    0.26489957E-04
    5   -0.19433771E+03   -0.12915649E-07    0.35901136E-05
    6   -0.19433771E+03   -0.77017148E-09    0.12326676E-05
    7   -0.19433771E+03   -0.14210855E-10    0.44238195E-06
    8   -0.19433771E+03   -0.39790393E-12    0.73431861E-07
    9   -0.19433771E+03   -0.85265128E-13    0.15231576E-07
   10   -0.19433771E+03    0.28421709E-13    0.25133851E-08

Total Energy:                     -192.3765197842 H        -5234.8314 eV
Extrapolated to 0K:               -192.3765197842 H        -5234.8314 eV
Total Mermin free energy:         -192.3765197842 H        -5234.8314 eV
Force related energy:             -192.3765197842 H        -5234.8314 eV

Volume:                              0.999760E+04 au^3   0.148149E+04 A^3
Pressure:                            0.293527E-05 au     0.863587E+08 Pa
>> Charges saved for restart in charges.bin

total energy  -1.9237652E+02 H       energy change -2.0986335E-04 H
gradient norm  1.0832649E-02 H/a0    max. gradient  1.8279784E-03 H/a0
step length    1.1101382E-01 a0      max. step      1.8850369E-02 a0

--------------------------------------------------------------------------------

***  Geometry step: 35

 iSCC Total electronic   Diff electronic      SCC error    
    1   -0.19433771E+03    0.00000000E+00    0.15734834E-02
    2   -0.19433916E+03   -0.14475874E-02    0.88751929E-03
    3   -0.19433916E+03   -0.27977184E-05    0.26618365E-03
    4   -0.19433916E+03   -0.64415252E-06    0.25041614E-04
    5   -0.19433916E+03   -0.15152835E-07    0.64993087E-05
    6   -0.19433916E+03   -0.82346219E-09    0.15961180E-05
    7   -0.19433916E+03   -0.18047785E-10    0.38214139E-06
    8   -0.19433916E+03   -0.54001248E-12    0.92817324E-07
    9   -0.19433916E+03   -0.28421709E-13    0.15085465E-07
   10   -0.19433916E+03   -0.28421709E-13    0.23231657E-08

Total Energy:                     -192.3767191806 H        -5234.8369 eV
Extrapolated to 0K:               -192.3767191806 H        -5234.8369 eV
Total Mermin free energy:         -192.3767191806 H        -5234.8369 eV
Force related energy:             -192.3767191806 H        -5234.8369 eV

Volume:                              0.100004E+05 au^3   0.148191E+04 A^3
Pressure:                            0.322753E-05 au     0.949573E+08 Pa
>> Charges saved for restart in charges.bin

total energy  -1.9237672E+02 H       energy change -1.9939644E-04 H
gradient norm  1.0006610E-02 H/a0    max. gradient  1.9563328E-03 H/a0
step length    1.0694564E-01 a0      max. step      1.8719561E-02 a0

--------------------------------------------------------------------------------

***  Geometry step: 36

 iSCC Total electronic   Diff electronic      SCC error    
    1   -0.19433916E+03    0.00000000E+00    0.21969255E-02
    2   -0.19433862E+03    0.54023807E-03    0.12196668E-02
    3   -0.19433863E+03   -0.33523832E-05    0.22577360E-03
    4   -0.19433863E+03   -0.81541330E-06    0.31202425E-04
    5   -0.19433863E+03   -0.20484634E-07    0.10967927E-04
    6   -0.19433863E+03   -0.11169732E-08    0.20331082E-05
    7   -0.19433863E+03   -0.27995384E-10    0.45629788E-06
    8   -0.19433863E+03   -0.73896445E-12    0.10982541E-06
    9   -0.19433863E+03   -0.28421709E-13    0.20796998E-07
   10   -0.19433863E+03   -0.85265128E-13    0.27287186E-08

Total Energy:                     -192.3768975805 H        -5234.8417 eV
Extrapolated to 0K:               -192.3768975805 H        -5234.8417 eV
Total Mermin free energy:         -192.3768975805 H        -5234.8417 eV
Force related energy:             -192.3768975805 H        -5234.8417 eV

Volume:                              0.100040E+05 au^3   0.148244E+04 A^3
Pressure:                            0.283484E-05 au     0.834040E+08 Pa
>> Charges saved for restart in charges.bin

total energy  -1.9237690E+02 H       energy change -1.7839982E-04 H
gradient norm  9.8174154E-03 H/a0    max. gradient  1.9546066E-03 H/a0
step length    9.7952579E-02 a0      max. step      1.7894335E-02 a0

--------------------------------------------------------------------------------

***  Geometry step: 37

 iSCC Total electronic   Diff electronic      SCC error    
    1   -0.19433863E+03    0.00000000E+00    0.20513841E-02
    2   -0.19433698E+03    0.16501095E-02    0.11461913E-02
    3   -0.19433698E+03   -0.22571268E-05    0.25342390E-03
    4   -0.19433698E+03   -0.53393228E-06    0.28721550E-04
    5   -0.19433698E+03   -0.16397877E-07    0.10956289E-04
    6   -0.19433698E+03   -0.95960218E-09    0.13338578E-05
    7   -0.19433698E+03   -0.20293101E-10    0.36050655E-06
    8   -0.19433698E+03   -0.51159077E-12    0.10862538E-06
    9   -0.19433698E+03   -0.85265128E-13    0.17718518E-07
   10   -0.19433698E+03   -0.56843419E-13    0.23301086E-08

Total Energy:                     -192.3770410775 H        -5234.8456 eV
Extrapolated to 0K:               -192.3770410775 H        -5234.8456 eV
Total Mermin free energy:         -192.3770410775 H        -5234.8456 eV
Force related energy:             -192.3770410775 H        -5234.8456 eV

Volume:                              0.100078E+05 au^3   0.148300E+04 A^3
Pressure:                            0.201993E-05 au     0.594284E+08 Pa
>> Charges saved for restart in charges.bin

total energy  -1.9237704E+02 H       energy change -1.4349702E-04 H
gradient norm  9.5420775E-03 H/a0    max. gradient  2.2467968E-03 H/a0
step length    7.6517686E-02 a0      max. step      1.4705418E-02 a0

--------------------------------------------------------------------------------

***  Geometry step: 38

 iSCC Total electronic   Diff electronic      SCC error    
    1   -0.19433698E+03    0.00000000E+00    0.17091034E-02
    2   -0.19433583E+03    0.11471052E-02    0.95947093E-03
    3   -0.19433584E+03   -0.22881779E-05    0.28463150E-03
    4   -0.19433584E+03   -0.45493539E-06    0.39359447E-04
    5   -0.19433584E+03   -0.13341491E-07    0.10842124E-04
    6   -0.19433584E+03   -0.96230224E-09    0.12786315E-05
    7   -0.19433584E+03   -0.13329782E-10    0.31737694E-06
    8   -0.19433584E+03   -0.36948222E-12    0.89701683E-07
    9   -0.19433584E+03   -0.56843419E-13    0.12385225E-07
   10   -0.19433584E+03   -0.85265128E-13    0.20182860E-08

Total Energy:                     -192.3771847201 H        -5234.8495 eV
Extrapolated to 0K:               -192.3771847201 H        -5234.8495 eV
Total Mermin free energy:         -192.3771847201 H        -5234.8495 eV
Force related energy:             -192.3771847201 H        -5234.8495 eV

Volume:                              0.100119E+05 au^3   0.148362E+04 A^3
Pressure:                            0.124163E-05 au     0.365301E+08 Pa
>> Charges saved for restart in charges.bin

total energy  -1.9237718E+02 H       energy change -1.4364264E-04 H
gradient norm  8.8976559E-03 H/a0    max. gradient  2.0153956E-03 H/a0
step length    7.9313137E-02 a0      max. step      1.5719659E-02 a0

--------------------------------------------------------------------------------

***  Geometry step: 39

 iSCC Total electronic   Diff electronic      SCC error    
    1   -0.19433584E+03    0.00000000E+00    0.21914442E-02
    2   -0.19433671E+03   -0.87535852E-03    0.79853660E-03
    3   -0.19433671E+03   -0.28077819E-05    0.22687417E-03
    4   -0.19433672E+03   -0.53853552E-06    0.40961835E-04
    5   -0.19433672E+03   -0.90011270E-08    0.59795539E-05
    6   -0.19433672E+03   -0.81124085E-09    0.12225169E-05
    7   -0.19433672E+03   -0.20065727E-10    0.29121458E-06
    8   -0.19433672E+03   -0.36948222E-12    0.81128196E-07
    9   -0.19433672E+03   -0.85265128E-13    0.14827567E-07
   10   -0.19433672E+03    0.28421709E-13    0.22609505E-08

Total Energy:                     -192.3773224439 H        -5234.8533 eV
Extrapolated to 0K:               -192.3773224439 H        -5234.8533 eV
Total Mermin free energy:         -192.3773224439 H        -5234.8533 eV
Force related energy:             -192.3773224439 H        -5234.8533 eV

Volume:                              0.100158E+05 au^3   0.148419E+04 A^3
Pressure:                            0.906986E-06 au     0.266844E+08 Pa
>> Charges saved for restart in charges.bin

total energy  -1.9237732E+02 H       energy change -1.3772374E-04 H
gradient norm  8.4120133E-03 H/a0    max. gradient  2.1490914E-03 H/a0
step length    8.1018846E-02 a0      max. step      1.6312601E-02 a0

--------------------------------------------------------------------------------

***  Geometry step: 40

 iSCC Total electronic   Diff electronic      SCC error    
    1   -0.19433672E+03    0.00000000E+00    0.20375324E-02
    2   -0.19433907E+03   -0.23573686E-02    0.71058256E-03
    3   -0.19433908E+03   -0.26667505E-05    0.22014717E-03
    4   -0.19433908E+03   -0.50787483E-06    0.43611078E-04
    5   -0.19433908E+03   -0.97537907E-08    0.42973791E-05
    6   -0.19433908E+03   -0.66955863E-09    0.11535130E-05
    7   -0.19433908E+03   -0.27284841E-10    0.39434816E-06
    8   -0.19433908E+03   -0.62527761E-12    0.10827467E-06
    9   -0.19433908E+03   -0.28421709E-13    0.15187679E-07
   10   -0.19433908E+03   -0.85265128E-13    0.21670279E-08

Total Energy:                     -192.3774371909 H        -5234.8564 eV
Extrapolated to 0K:               -192.3774371909 H        -5234.8564 eV
Total Mermin free energy:         -192.3774371909 H        -5234.8564 eV
Force related energy:             -192.3774371909 H        -5234.8564 eV

Volume:                              0.100199E+05 au^3   0.148480E+04 A^3
Pressure:                            0.109325E-05 au     0.321645E+08 Pa
>> Charges saved for restart in charges.bin

total energy  -1.9237744E+02 H       energy change -1.1474699E-04 H
gradient norm  8.2892784E-03 H/a0    max. gradient  1.7696955E-03 H/a0
step length    7.5734104E-02 a0      max. step      1.5386512E-02 a0

--------------------------------------------------------------------------------

***  Geometry step: 41

 iSCC Total electronic   Diff electronic      SCC error    
    1   -0.19433908E+03    0.00000000E+00    0.13847780E-02
    2   -0.19434251E+03   -0.34321792E-02    0.80178192E-03
    3   -0.19434251E+03   -0.14200410E-05    0.17584136E-03
    4   -0.19434251E+03   -0.30774157E-06    0.25176804E-04
    5   -0.19434251E+03   -0.73497120E-08    0.77629100E-05
    6   -0.19434251E+03   -0.50266635E-09    0.91766593E-06
    7   -0.19434251E+03   -0.11624479E-10    0.28169868E-06
    8   -0.19434251E+03   -0.31263880E-12    0.91597395E-07
    9   -0.19434251E+03   -0.56843419E-13    0.13887847E-07
   10   -0.19434251E+03    0.28421709E-13    0.20897843E-08

Total Energy:                     -192.3775302038 H        -5234.8589 eV
Extrapolated to 0K:               -192.3775302038 H        -5234.8589 eV
Total Mermin free energy:         -192.3775302038 H        -5234.8589 eV
Force related energy:             -192.3775302038 H        -5234.8589 eV

Volume:                              0.100229E+05 au^3   0.148524E+04 A^3
Pressure:                            0.181957E-05 au     0.535335E+08 Pa
>> Charges saved for restart in charges.bin

total energy  -1.9237753E+02 H       energy change -9.3012900E-05 H
gradient norm  7.7055175E-03 H/a0    max. gradient  1.6938917E-03 H/a0
step length    6.6282146E-02 a0      max. step      1.3498890E-02 a0

--------------------------------------------------------------------------------

***  Geometry step: 42

 iSCC Total electronic   Diff electronic      SCC error    
    1   -0.19434251E+03    0.00000000E+00    0.14703103E-02
    2   -0.19434529E+03   -0.27827984E-02    0.86216400E-03
    3   -0.19434529E+03   -0.16186789E-05    0.18243890E-03
    4   -0.19434529E+03   -0.36505517E-06    0.24385629E-04
    5   -0.19434529E+03   -0.91219476E-08    0.83412257E-05
    6   -0.19434529E+03   -0.43968384E-09    0.10109884E-05
    7   -0.19434529E+03   -0.10601298E-10    0.29334049E-06
    8   -0.19434529E+03   -0.42632564E-12    0.88149836E-07
    9   -0.19434529E+03   -0.28421709E-13    0.13206981E-07
   10   -0.19434529E+03   -0.28421709E-13    0.18520834E-08

Total Energy:                     -192.3776247986 H        -5234.8615 eV
Extrapolated to 0K:               -192.3776247986 H        -5234.8615 eV
Total Mermin free energy:         -192.3776247986 H        -5234.8615 eV
Force related energy:             -192.3776247986 H        -5234.8615 eV

Volume:                              0.100272E+05 au^3   0.148588E+04 A^3
Pressure:                            0.232889E-05 au     0.685183E+08 Pa
>> Charges saved for restart in charges.bin

total energy  -1.9237762E+02 H       energy change -9.4594831E-05 H
gradient norm  6.9582079E-03 H/a0    max. gradient  1.8794362E-03 H/a0
step length    7.5302271E-02 a0      max. step      1.5535564E-02 a0

--------------------------------------------------------------------------------

***  Geometry step: 43

 iSCC Total electronic   Diff electronic      SCC error    
    1   -0.19434529E+03    0.00000000E+00    0.10359905E-02
    2   -0.19434609E+03   -0.79247365E-03    0.54108202E-03
    3   -0.19434609E+03   -0.96203505E-06    0.15049778E-03
    4   -0.19434609E+03   -0.21808333E-06    0.14625297E-04
    5   -0.19434609E+03   -0.38150176E-08    0.44690767E-05
    6   -0.19434609E+03   -0.18150104E-09    0.70396686E-06
    7   -0.19434609E+03   -0.36664005E-11    0.17673418E-06
    8   -0.19434609E+03   -0.11368684E-12    0.46021909E-07
    9   -0.19434609E+03   -0.56843419E-13    0.10715216E-07
   10   -0.19434609E+03   -0.56843419E-13    0.13919639E-08

Total Energy:                     -192.3776983891 H        -5234.8635 eV
Extrapolated to 0K:               -192.3776983891 H        -5234.8635 eV
Total Mermin free energy:         -192.3776983891 H        -5234.8635 eV
Force related energy:             -192.3776983891 H        -5234.8635 eV

Volume:                              0.100310E+05 au^3   0.148644E+04 A^3
Pressure:                            0.225761E-05 au     0.664211E+08 Pa
>> Charges saved for restart in charges.bin

total energy  -1.9237770E+02 H       energy change -7.3590463E-05 H
gradient norm  6.6618455E-03 H/a0    max. gradient  1.9554048E-03 H/a0
step length    5.5763109E-02 a0      max. step      1.1977587E-02 a0

--------------------------------------------------------------------------------

***  Geometry step: 44

 iSCC Total electronic   Diff electronic      SCC error    
    1   -0.19434609E+03    0.00000000E+00    0.11298705E-02
    2   -0.19434512E+03    0.96388460E-03    0.63428045E-03
    3   -0.19434513E+03   -0.12344594E-05    0.18562611E-03
    4   -0.19434513E+03   -0.26829812E-06    0.19240066E-04
    5   -0.19434513E+03   -0.39257202E-08    0.32817402E-05
    6   -0.19434513E+03   -0.26651037E-09    0.66986632E-06
    7   -0.19434513E+03   -0.59685590E-11    0.21343475E-06
    8   -0.19434513E+03   -0.17053026E-12    0.37190258E-07
    9   -0.19434513E+03    0.56843419E-13    0.86025773E-08

Total Energy:                     -192.3777840684 H        -5234.8659 eV
Extrapolated to 0K:               -192.3777840684 H        -5234.8659 eV
Total Mermin free energy:         -192.3777840684 H        -5234.8659 eV
Force related energy:             -192.3777840684 H        -5234.8659 eV

Volume:                              0.100365E+05 au^3   0.148726E+04 A^3
Pressure:                            0.145925E-05 au     0.429326E+08 Pa
>> Charges saved for restart in charges.bin

total energy  -1.9237778E+02 H       energy change -8.5679393E-05 H
gradient norm  7.1181209E-03 H/a0    max. gradient  1.6213136E-03 H/a0
step length    6.5309159E-02 a0      max. step      1.4559380E-02 a0

--------------------------------------------------------------------------------

***  Geometry step: 45

 iSCC Total electronic   Diff electronic      SCC error    
    1   -0.19434513E+03    0.00000000E+00    0.96655133E-03
    2   -0.19434332E+03    0.18024669E-02    0.57960317E-03
    3   -0.19434332E+03   -0.93460113E-06    0.17368194E-03
    4   -0.19434332E+03   -0.19227289E-06    0.21597837E-04
    5   -0.19434332E+03   -0.30765079E-08    0.26747425E-05
    6   -0.19434332E+03   -0.23013058E-09    0.60927645E-06
    7   -0.19434332E+03   -0.36095571E-11    0.19073661E-06
    8   -0.19434332E+03   -0.85265128E-13    0.33162362E-07
    9   -0.19434332E+03    0.28421709E-13    0.38103787E-08

Total Energy:                     -192.3778689364 H        -5234.8682 eV
Extrapolated to 0K:               -192.3778689364 H        -5234.8682 eV
Total Mermin free energy:         -192.3778689364 H        -5234.8682 eV
Force related energy:             -192.3778689364 H        -5234.8682 eV

Volume:                              0.100420E+05 au^3   0.148806E+04 A^3
Pressure:                            0.339207E-06 au     0.997982E+07 Pa
>> Charges saved for restart in charges.bin

total energy  -1.9237787E+02 H       energy change -8.4867969E-05 H
gradient norm  7.2049706E-03 H/a0    max. gradient  1.4175593E-03 H/a0
step length    6.5344102E-02 a0      max. step      1.5198292E-02 a0

--------------------------------------------------------------------------------

***  Geometry step: 46

 iSCC Total electronic   Diff electronic      SCC error    
    1   -0.19434332E+03    0.00000000E+00    0.95412217E-03
    2   -0.19434215E+03    0.11734977E-02    0.56660496E-03
    3   -0.19434215E+03   -0.77164216E-06    0.15309000E-03
    4   -0.19434215E+03   -0.16473157E-06    0.18736751E-04
    5   -0.19434215E+03   -0.29986325E-08    0.25411127E-05
    6   -0.19434215E+03   -0.19628033E-09    0.46455896E-06
    7   -0.19434215E+03   -0.14495072E-11    0.14078635E-06
    8   -0.19434215E+03    0.85265128E-13    0.52125525E-07
    9   -0.19434215E+03   -0.85265128E-13    0.70065420E-08

Total Energy:                     -192.3779464150 H        -5234.8703 eV
Extrapolated to 0K:               -192.3779464150 H        -5234.8703 eV
Total Mermin free energy:         -192.3779464150 H        -5234.8703 eV
Force related energy:             -192.3779464150 H        -5234.8703 eV

Volume:                              0.100462E+05 au^3   0.148870E+04 A^3
Pressure:                           -0.405418E-06 au    -0.119278E+08 Pa
>> Charges saved for restart in charges.bin

total energy  -1.9237795E+02 H       energy change -7.7478611E-05 H
gradient norm  6.6538778E-03 H/a0    max. gradient  1.3664550E-03 H/a0
step length    6.3257217E-02 a0      max. step      1.5255104E-02 a0

--------------------------------------------------------------------------------

***  Geometry step: 47

 iSCC Total electronic   Diff electronic      SCC error    
    1   -0.19434215E+03    0.00000000E+00    0.83081521E-03
    2   -0.19434209E+03    0.59063114E-04    0.47544356E-03
    3   -0.19434209E+03   -0.72856750E-06    0.12653048E-03
    4   -0.19434209E+03   -0.17243269E-06    0.14396819E-04
    5   -0.19434209E+03   -0.28865941E-08    0.22460605E-05
    6   -0.19434209E+03   -0.17615776E-09    0.43957404E-06
    7   -0.19434209E+03   -0.22737368E-11    0.16325179E-06
    8   -0.19434209E+03   -0.14210855E-12    0.31333080E-07
    9   -0.19434209E+03    0.56843419E-13    0.94614343E-08

Total Energy:                     -192.3780143187 H        -5234.8721 eV
Extrapolated to 0K:               -192.3780143187 H        -5234.8721 eV
Total Mermin free energy:         -192.3780143187 H        -5234.8721 eV
Force related energy:             -192.3780143187 H        -5234.8721 eV

Volume:                              0.100495E+05 au^3   0.148919E+04 A^3
Pressure:                           -0.837776E-06 au    -0.246482E+08 Pa
>> Charges saved for restart in charges.bin

total energy  -1.9237801E+02 H       energy change -6.7903673E-05 H
gradient norm  6.1573205E-03 H/a0    max. gradient  1.1117053E-03 H/a0
step length    5.8242872E-02 a0      max. step      1.4088141E-02 a0

--------------------------------------------------------------------------------

***  Geometry step: 48

 iSCC Total electronic   Diff electronic      SCC error    
    1   -0.19434209E+03    0.00000000E+00    0.88339210E-03
    2   -0.19434410E+03   -0.20062010E-02    0.45086891E-03
    3   -0.19434410E+03   -0.11329500E-05    0.13364522E-03
    4   -0.19434410E+03   -0.27461911E-06    0.16985221E-04
    5   -0.19434410E+03   -0.52483813E-08    0.28223190E-05
    6   -0.19434410E+03   -0.40475356E-09    0.55471132E-06
    7   -0.19434410E+03   -0.69917405E-11    0.22222074E-06
    8   -0.19434410E+03   -0.85265128E-13    0.43987400E-07
    9   -0.19434410E+03   -0.14210855E-12    0.12729954E-07
   10   -0.19434410E+03    0.28421709E-13    0.19299597E-08

Total Energy:                     -192.3780893940 H        -5234.8742 eV
Extrapolated to 0K:               -192.3780893940 H        -5234.8742 eV
Total Mermin free energy:         -192.3780893940 H        -5234.8742 eV
Force related energy:             -192.3780893940 H        -5234.8742 eV

Volume:                              0.100517E+05 au^3   0.148951E+04 A^3
Pressure:                           -0.558575E-06 au    -0.164338E+08 Pa
>> Charges saved for restart in charges.bin

total energy  -1.9237809E+02 H       energy change -7.5075350E-05 H
gradient norm  6.4606675E-03 H/a0    max. gradient  1.7265808E-03 H/a0
step length    6.6851545E-02 a0      max. step      1.6002672E-02 a0

--------------------------------------------------------------------------------

***  Geometry step: 49

 iSCC Total electronic   Diff electronic      SCC error    
    1   -0.19434410E+03    0.00000000E+00    0.85647253E-03
    2   -0.19434676E+03   -0.26589862E-02    0.42466589E-03
    3   -0.19434676E+03   -0.90213484E-06    0.12953316E-03
    4   -0.19434676E+03   -0.22461671E-06    0.17643141E-04
    5   -0.19434676E+03   -0.49199684E-08    0.25590082E-05
    6   -0.19434676E+03   -0.35578296E-09    0.51779622E-06
    7   -0.19434676E+03   -0.86970431E-11    0.20701477E-06
    8   -0.19434676E+03   -0.14210855E-12    0.60617434E-07
    9   -0.19434676E+03    0.28421709E-13    0.12893191E-07
   10   -0.19434676E+03   -0.14210855E-12    0.16965229E-08

Total Energy:                     -192.3781588427 H        -5234.8760 eV
Extrapolated to 0K:               -192.3781588427 H        -5234.8760 eV
Total Mermin free energy:         -192.3781588427 H        -5234.8760 eV
Force related energy:             -192.3781588427 H        -5234.8760 eV

Volume:                              0.100535E+05 au^3   0.148978E+04 A^3
Pressure:                           -0.107914E-07 au    -0.317495E+06 Pa
>> Charges saved for restart in charges.bin

total energy  -1.9237816E+02 H       energy change -6.9448681E-05 H
gradient norm  7.0049395E-03 H/a0    max. gradient  1.5985433E-03 H/a0
step length    6.8762364E-02 a0      max. step      1.6041095E-02 a0

--------------------------------------------------------------------------------

***  Geometry step: 50

 iSCC Total electronic   Diff electronic      SCC error    
    1   -0.19434676E+03    0.00000000E+00    0.85359577E-03
    2   -0.19434980E+03   -0.30393477E-02    0.50222641E-03
    3   -0.19434980E+03   -0.91192658E-06    0.14910189E-03
    4   -0.19434980E+03   -0.20139177E-06    0.13889118E-04
    5   -0.19434980E+03   -0.39578367E-08    0.20817465E-05
    6   -0.19434980E+03   -0.23231905E-09    0.50484467E-06
    7   -0.19434980E+03   -0.37800874E-11    0.16712621E-06
    8   -0.19434980E+03   -0.28421709E-13    0.44194289E-07
    9   -0.19434980E+03   -0.56843419E-13    0.10155607E-07
   10   -0.19434980E+03    0.85265128E-13    0.11899042E-08

Total Energy:                     -192.3782324279 H        -5234.8781 eV
Extrapolated to 0K:               -192.3782324279 H        -5234.8781 eV
Total Mermin free energy:         -192.3782324279 H        -5234.8781 eV
Force related energy:             -192.3782324279 H        -5234.8781 eV

Volume:                              0.100546E+05 au^3   0.148994E+04 A^3
Pressure:                            0.807476E-06 au     0.237568E+08 Pa
>> Charges saved for restart in charges.bin

total energy  -1.9237823E+02 H       energy change -7.3585190E-05 H
gradient norm  6.7860340E-03 H/a0    max. gradient  1.4226760E-03 H/a0
step length    7.4180969E-02 a0      max. step      1.7007885E-02 a0

--------------------------------------------------------------------------------

***  Geometry step: 51

 iSCC Total electronic   Diff electronic      SCC error    
    1   -0.19434980E+03    0.00000000E+00    0.11967649E-02
    2   -0.19435144E+03   -0.16334109E-02    0.55319454E-03
    3   -0.19435144E+03   -0.13340443E-05    0.19328512E-03
    4   -0.19435144E+03   -0.27393696E-06    0.18851956E-04
    5   -0.19435144E+03   -0.31067202E-08    0.17060420E-05
    6   -0.19435144E+03   -0.23354119E-09    0.59432014E-06
    7   -0.19435144E+03   -0.29558578E-11    0.20717891E-06
    8   -0.19435144E+03   -0.56843419E-13    0.30453922E-07
    9   -0.19435144E+03   -0.56843419E-13    0.69109558E-08

Total Energy:                     -192.3783078758 H        -5234.8801 eV
Extrapolated to 0K:               -192.3783078758 H        -5234.8801 eV
Total Mermin free energy:         -192.3783078758 H        -5234.8801 eV
Force related energy:             -192.3783078758 H        -5234.8801 eV

Volume:                              0.100561E+05 au^3   0.149016E+04 A^3
Pressure:                            0.121315E-05 au     0.356922E+08 Pa
>> Charges saved for restart in charges.bin

total energy  -1.9237831E+02 H       energy change -7.5447881E-05 H
gradient norm  6.4651925E-03 H/a0    max. gradient  1.3059001E-03 H/a0
step length    7.8723609E-02 a0      max. step      1.7786374E-02 a0

--------------------------------------------------------------------------------

***  Geometry step: 52

 iSCC Total electronic   Diff electronic      SCC error    
    1   -0.19435144E+03    0.00000000E+00    0.13545409E-02
    2   -0.19435166E+03   -0.21988005E-03    0.63586518E-03
    3   -0.19435166E+03   -0.18230685E-05    0.21128912E-03
    4   -0.19435166E+03   -0.38122258E-06    0.25249608E-04
    5   -0.19435166E+03   -0.50023914E-08    0.41023085E-05
    6   -0.19435166E+03   -0.38050985E-09    0.11041066E-05
[...]

Total Energy:                     -192.3793466278 H        -5234.9084 eV
Extrapolated to 0K:               -192.3793466278 H        -5234.9084 eV
Total Mermin free energy:         -192.3793466278 H        -5234.9084 eV
Force related energy:             -192.3793466278 H        -5234.9084 eV

Volume:                              0.100846E+05 au^3   0.149439E+04 A^3
Pressure:                           -0.278682E-06 au    -0.819911E+07 Pa
>> Charges saved for restart in charges.bin

total energy  -1.9237935E+02 H       energy change -1.3139108E-06 H
gradient norm  8.2135080E-04 H/a0    max. gradient  1.7643819E-04 H/a0
step length    5.9207858E-03 a0      max. step      1.5061000E-03 a0

--------------------------------------------------------------------------------

***  Geometry step: 105

 iSCC Total electronic   Diff electronic      SCC error    
    1   -0.19435713E+03    0.00000000E+00    0.15752657E-03
    2   -0.19435707E+03    0.63704336E-04    0.77996622E-04
    3   -0.19435707E+03   -0.12185268E-07    0.22595039E-04
    4   -0.19435707E+03   -0.25178792E-08    0.25099118E-05
    5   -0.19435707E+03   -0.49737992E-10    0.81806912E-06
    6   -0.19435707E+03   -0.28421709E-11    0.10332278E-06
    7   -0.19435707E+03    0.00000000E+00    0.12877481E-07
    8   -0.19435707E+03    0.00000000E+00    0.41415675E-08

Total Energy:                     -192.3793477552 H        -5234.9084 eV
Extrapolated to 0K:               -192.3793477552 H        -5234.9084 eV
Total Mermin free energy:         -192.3793477552 H        -5234.9084 eV
Force related energy:             -192.3793477552 H        -5234.9084 eV

Volume:                              0.100846E+05 au^3   0.149438E+04 A^3
Pressure:                           -0.265986E-06 au    -0.782558E+07 Pa
>> Charges saved for restart in charges.bin

total energy  -1.9237935E+02 H       energy change -1.1274016E-06 H
gradient norm  8.2529943E-04 H/a0    max. gradient  2.0839881E-04 H/a0
step length    5.8476567E-03 a0      max. step      1.3031315E-03 a0

--------------------------------------------------------------------------------

***  Geometry step: 106

 iSCC Total electronic   Diff electronic      SCC error    
    1   -0.19435707E+03    0.00000000E+00    0.23664784E-03
    2   -0.19435708E+03   -0.12408594E-04    0.11666209E-03
    3   -0.19435708E+03   -0.22065819E-07    0.24899510E-04
    4   -0.19435708E+03   -0.42925592E-08    0.33503151E-05
    5   -0.19435708E+03   -0.13156409E-09    0.14059389E-05
    6   -0.19435708E+03   -0.83844043E-11    0.13764962E-06
    7   -0.19435708E+03   -0.85265128E-13    0.17127615E-07
    8   -0.19435708E+03    0.00000000E+00    0.73196484E-08

Total Energy:                     -192.3793492193 H        -5234.9084 eV
Extrapolated to 0K:               -192.3793492193 H        -5234.9084 eV
Total Mermin free energy:         -192.3793492193 H        -5234.9084 eV
Force related energy:             -192.3793492193 H        -5234.9084 eV

Volume:                              0.100844E+05 au^3   0.149436E+04 A^3
Pressure:                           -0.259179E-06 au    -0.762529E+07 Pa
>> Charges saved for restart in charges.bin

total energy  -1.9237935E+02 H       energy change -1.4640654E-06 H
gradient norm  8.1151590E-04 H/a0    max. gradient  1.9472185E-04 H/a0
step length    8.6079262E-03 a0      max. step      2.0292624E-03 a0

--------------------------------------------------------------------------------

***  Geometry step: 107

 iSCC Total electronic   Diff electronic      SCC error    
    1   -0.19435708E+03    0.00000000E+00    0.15904633E-03
    2   -0.19435734E+03   -0.25561266E-03    0.78209230E-04
    3   -0.19435734E+03   -0.25365125E-07    0.27246538E-04
    4   -0.19435734E+03   -0.45664876E-08    0.48833466E-05
    5   -0.19435734E+03   -0.11817747E-09    0.90718415E-06
    6   -0.19435734E+03   -0.11596057E-10    0.14439078E-06
    7   -0.19435734E+03   -0.85265128E-13    0.18199025E-07
    8   -0.19435734E+03   -0.85265128E-13    0.67465149E-08

Total Energy:                     -192.3793504981 H        -5234.9085 eV
Extrapolated to 0K:               -192.3793504981 H        -5234.9085 eV
Total Mermin free energy:         -192.3793504981 H        -5234.9085 eV
Force related energy:             -192.3793504981 H        -5234.9085 eV

Volume:                              0.100841E+05 au^3   0.149432E+04 A^3
Pressure:                           -0.167620E-06 au    -0.493154E+07 Pa
>> Charges saved for restart in charges.bin

total energy  -1.9237935E+02 H       energy change -1.2788588E-06 H
gradient norm  7.4597758E-04 H/a0    max. gradient  1.4382379E-04 H/a0
step length    8.8104684E-03 a0      max. step      1.9674394E-03 a0

--------------------------------------------------------------------------------

***  Geometry step: 108

 iSCC Total electronic   Diff electronic      SCC error    
    1   -0.19435734E+03    0.00000000E+00    0.24993347E-03
    2   -0.19435766E+03   -0.31956277E-03    0.10446643E-03
    3   -0.19435766E+03   -0.53116395E-07    0.38155136E-04
    4   -0.19435766E+03   -0.86632497E-08    0.55383301E-05
    5   -0.19435766E+03   -0.16859758E-09    0.76421556E-06
    6   -0.19435766E+03   -0.16399326E-10    0.16044393E-06
    7   -0.19435766E+03   -0.19895197E-12    0.22415639E-07
    8   -0.19435766E+03   -0.56843419E-13    0.74608346E-08

Total Energy:                     -192.3793516104 H        -5234.9085 eV
Extrapolated to 0K:               -192.3793516104 H        -5234.9085 eV
Total Mermin free energy:         -192.3793516104 H        -5234.9085 eV
Force related energy:             -192.3793516104 H        -5234.9085 eV

Volume:                              0.100841E+05 au^3   0.149431E+04 A^3
Pressure:                           -0.915299E-07 au    -0.269290E+07 Pa
>> Charges saved for restart in charges.bin

total energy  -1.9237935E+02 H       energy change -1.1122402E-06 H
gradient norm  6.4393494E-04 H/a0    max. gradient  1.2557617E-04 H/a0
step length    1.2985543E-02 a0      max. step      2.9203560E-03 a0

--------------------------------------------------------------------------------

***  Geometry step: 109

 iSCC Total electronic   Diff electronic      SCC error    
    1   -0.19435766E+03    0.00000000E+00    0.85849839E-04
    2   -0.19435776E+03   -0.10243834E-03    0.44801241E-04
    3   -0.19435776E+03   -0.89896162E-08    0.17918955E-04
    4   -0.19435776E+03   -0.19475124E-08    0.13874230E-05
    5   -0.19435776E+03   -0.24414248E-10    0.27371513E-06
    6   -0.19435776E+03   -0.18474111E-11    0.56349692E-07
    7   -0.19435776E+03    0.28421709E-13    0.74678925E-08

Total Energy:                     -192.3793521913 H        -5234.9085 eV
Extrapolated to 0K:               -192.3793521913 H        -5234.9085 eV
Total Mermin free energy:         -192.3793521913 H        -5234.9085 eV
Force related energy:             -192.3793521913 H        -5234.9085 eV

Volume:                              0.100840E+05 au^3   0.149430E+04 A^3
Pressure:                           -0.678903E-07 au    -0.199740E+07 Pa
>> Charges saved for restart in charges.bin

total energy  -1.9237935E+02 H       energy change -5.8091095E-07 H
gradient norm  5.5731732E-04 H/a0    max. gradient  1.1746931E-04 H/a0
step length    2.0423545E-03 a0      max. step      3.9598608E-04 a0

--------------------------------------------------------------------------------

***  Geometry step: 110

 iSCC Total electronic   Diff electronic      SCC error    
    1   -0.19435776E+03    0.00000000E+00    0.13276455E-03
    2   -0.19435788E+03   -0.12476308E-03    0.62026958E-04
    3   -0.19435788E+03   -0.21516314E-07    0.19157246E-04
    4   -0.19435788E+03   -0.47040771E-08    0.22288201E-05
    5   -0.19435788E+03   -0.63607786E-10    0.49709785E-06
    6   -0.19435788E+03   -0.42064130E-11    0.85485159E-07
    7   -0.19435788E+03   -0.28421709E-13    0.13322362E-07
    8   -0.19435788E+03   -0.28421709E-13    0.43138808E-08

Total Energy:                     -192.3793529122 H        -5234.9085 eV
Extrapolated to 0K:               -192.3793529122 H        -5234.9085 eV
Total Mermin free energy:         -192.3793529122 H        -5234.9085 eV
Force related energy:             -192.3793529122 H        -5234.9085 eV

Volume:                              0.100840E+05 au^3   0.149429E+04 A^3
Pressure:                           -0.235321E-07 au    -0.692337E+06 Pa
>> Charges saved for restart in charges.bin

total energy  -1.9237935E+02 H       energy change -7.2097768E-07 H
gradient norm  5.3988007E-04 H/a0    max. gradient  1.1762115E-04 H/a0
step length    3.5537930E-03 a0      max. step      7.7433163E-04 a0

--------------------------------------------------------------------------------

***  Geometry step: 111

 iSCC Total electronic   Diff electronic      SCC error    
    1   -0.19435788E+03    0.00000000E+00    0.81592374E-04
    2   -0.19435789E+03   -0.29227834E-05    0.40813793E-04
    3   -0.19435789E+03   -0.68043562E-08    0.13251931E-04
    4   -0.19435789E+03   -0.14821637E-08    0.16600586E-05
    5   -0.19435789E+03   -0.27199576E-10    0.30097739E-06
    6   -0.19435789E+03   -0.19895197E-11    0.56562822E-07
    7   -0.19435789E+03    0.85265128E-13    0.85622363E-08

Total Energy:                     -192.3793534057 H        -5234.9086 eV
Extrapolated to 0K:               -192.3793534057 H        -5234.9086 eV
Total Mermin free energy:         -192.3793534057 H        -5234.9086 eV
Force related energy:             -192.3793534057 H        -5234.9086 eV

Volume:                              0.100840E+05 au^3   0.149429E+04 A^3
Pressure:                           -0.394072E-07 au    -0.115940E+07 Pa
>> Charges saved for restart in charges.bin

total energy  -1.9237935E+02 H       energy change -4.9345803E-07 H
gradient norm  5.8053282E-04 H/a0    max. gradient  1.2373466E-04 H/a0
step length    3.0860008E-03 a0      max. step      6.4998013E-04 a0

--------------------------------------------------------------------------------

***  Geometry step: 112

 iSCC Total electronic   Diff electronic      SCC error    
    1   -0.19435789E+03    0.00000000E+00    0.11285899E-03
    2   -0.19435781E+03    0.71501124E-04    0.57084016E-04
    3   -0.19435781E+03   -0.13073532E-07    0.18797346E-04
    4   -0.19435781E+03   -0.29646969E-08    0.22112606E-05
    5   -0.19435781E+03   -0.58804517E-10    0.47338932E-06
    6   -0.19435781E+03   -0.39506176E-11    0.91153323E-07
    7   -0.19435781E+03   -0.11368684E-12    0.13079773E-07
    8   -0.19435781E+03    0.56843419E-13    0.28859599E-08

Total Energy:                     -192.3793540999 H        -5234.9086 eV
Extrapolated to 0K:               -192.3793540999 H        -5234.9086 eV
Total Mermin free energy:         -192.3793540999 H        -5234.9086 eV
Force related energy:             -192.3793540999 H        -5234.9086 eV

Volume:                              0.100841E+05 au^3   0.149431E+04 A^3
Pressure:                           -0.729305E-07 au    -0.214569E+07 Pa
>> Charges saved for restart in charges.bin

total energy  -1.9237935E+02 H       energy change -6.9420335E-07 H
gradient norm  5.9925959E-04 H/a0    max. gradient  1.3463804E-04 H/a0
step length    5.3191926E-03 a0      max. step      1.1086089E-03 a0

--------------------------------------------------------------------------------

***  Geometry step: 113

 iSCC Total electronic   Diff electronic      SCC error    
    1   -0.19435781E+03    0.00000000E+00    0.14204450E-03
    2   -0.19435780E+03    0.18789965E-04    0.49030737E-04
    3   -0.19435780E+03   -0.13304742E-07    0.16102166E-04
    4   -0.19435780E+03   -0.25694931E-08    0.18986502E-05
    5   -0.19435780E+03   -0.35299763E-10    0.28494612E-06
    6   -0.19435780E+03   -0.30127012E-11    0.58684448E-07
    7   -0.19435780E+03    0.56843419E-13    0.68154322E-08

Total Energy:                     -192.3793548330 H        -5234.9086 eV
Extrapolated to 0K:               -192.3793548330 H        -5234.9086 eV
Total Mermin free energy:         -192.3793548330 H        -5234.9086 eV
Force related energy:             -192.3793548330 H        -5234.9086 eV

Volume:                              0.100843E+05 au^3   0.149433E+04 A^3
Pressure:                           -0.832779E-07 au    -0.245012E+07 Pa
>> Charges saved for restart in charges.bin

total energy  -1.9237935E+02 H       energy change -7.3308979E-07 H
gradient norm  6.3568145E-04 H/a0    max. gradient  1.4972989E-04 H/a0
step length    7.6226164E-03 a0      max. step      1.4467517E-03 a0

--------------------------------------------------------------------------------

***  Geometry step: 114

 iSCC Total electronic   Diff electronic      SCC error    
    1   -0.19435780E+03    0.00000000E+00    0.14750314E-03
    2   -0.19435780E+03    0.54043409E-06    0.60846743E-04
    3   -0.19435780E+03   -0.19062355E-07    0.17984964E-04
    4   -0.19435780E+03   -0.36438053E-08    0.21465681E-05
    5   -0.19435780E+03   -0.52750693E-10    0.44471748E-06
    6   -0.19435780E+03   -0.39790393E-11    0.91337987E-07
    7   -0.19435780E+03    0.00000000E+00    0.11636577E-07
    8   -0.19435780E+03    0.00000000E+00    0.37408712E-08

Total Energy:                     -192.3793556314 H        -5234.9086 eV
Extrapolated to 0K:               -192.3793556314 H        -5234.9086 eV
Total Mermin free energy:         -192.3793556314 H        -5234.9086 eV
Force related energy:             -192.3793556314 H        -5234.9086 eV

Volume:                              0.100844E+05 au^3   0.149435E+04 A^3
Pressure:                           -0.101595E-06 au    -0.298903E+07 Pa
>> Charges saved for restart in charges.bin

total energy  -1.9237936E+02 H       energy change -7.9840336E-07 H
gradient norm  5.8901106E-04 H/a0    max. gradient  1.2308100E-04 H/a0
step length    1.1580253E-02 a0      max. step      2.6595818E-03 a0

--------------------------------------------------------------------------------

***  Geometry step: 115

 iSCC Total electronic   Diff electronic      SCC error    
    1   -0.19435780E+03    0.00000000E+00    0.11057203E-03
    2   -0.19435780E+03   -0.19841407E-05    0.40832166E-04
    3   -0.19435780E+03   -0.65794552E-08    0.13145678E-04
    4   -0.19435780E+03   -0.14243540E-08    0.20376623E-05
    5   -0.19435780E+03   -0.24670044E-10    0.21542334E-06
    6   -0.19435780E+03   -0.24726887E-11    0.54532878E-07
    7   -0.19435780E+03    0.00000000E+00    0.80498133E-08

Total Energy:                     -192.3793561191 H        -5234.9086 eV
Extrapolated to 0K:               -192.3793561191 H        -5234.9086 eV
Total Mermin free energy:         -192.3793561191 H        -5234.9086 eV
Force related energy:             -192.3793561191 H        -5234.9086 eV

Volume:                              0.100844E+05 au^3   0.149436E+04 A^3
Pressure:                           -0.959213E-07 au    -0.282210E+07 Pa
>> Charges saved for restart in charges.bin

total energy  -1.9237936E+02 H       energy change -4.8774373E-07 H
gradient norm  5.0476110E-04 H/a0    max. gradient  1.2920070E-04 H/a0
step length    1.8401085E-03 a0      max. step      3.7164383E-04 a0

--------------------------------------------------------------------------------

***  Geometry step: 116

 iSCC Total electronic   Diff electronic      SCC error    
    1   -0.19435780E+03    0.00000000E+00    0.17219376E-03
    2   -0.19435777E+03    0.27378390E-04    0.64617031E-04
    3   -0.19435777E+03   -0.14010425E-07    0.18210176E-04
    4   -0.19435777E+03   -0.33586218E-08    0.29638541E-05
    5   -0.19435777E+03   -0.58093974E-10    0.35097912E-06
    6   -0.19435777E+03   -0.63380412E-11    0.78774444E-07
    7   -0.19435777E+03   -0.11368684E-12    0.11880506E-07
    8   -0.19435777E+03   -0.28421709E-13    0.24622517E-08

Total Energy:                     -192.3793566715 H        -5234.9086 eV
Extrapolated to 0K:               -192.3793566715 H        -5234.9086 eV
Total Mermin free energy:         -192.3793566715 H        -5234.9086 eV
Force related energy:             -192.3793566715 H        -5234.9086 eV

Volume:                              0.100845E+05 au^3   0.149436E+04 A^3
Pressure:                           -0.966544E-07 au    -0.284367E+07 Pa
>> Charges saved for restart in charges.bin

total energy  -1.9237936E+02 H       energy change -5.5234750E-07 H
gradient norm  5.3114205E-04 H/a0    max. gradient  1.3725183E-04 H/a0
step length    3.1442702E-03 a0      max. step      7.0050317E-04 a0

--------------------------------------------------------------------------------

***  Geometry step: 117

 iSCC Total electronic   Diff electronic      SCC error    
    1   -0.19435777E+03    0.00000000E+00    0.63877255E-04
    2   -0.19435776E+03    0.85191280E-05    0.28398775E-04
    3   -0.19435776E+03   -0.57848411E-08    0.81243189E-05
    4   -0.19435776E+03   -0.14897239E-08    0.14172971E-05
    5   -0.19435776E+03   -0.17251978E-10    0.26395286E-06
    6   -0.19435776E+03   -0.13358203E-11    0.64479021E-07
    7   -0.19435776E+03   -0.85265128E-13    0.53633360E-08

Total Energy:                     -192.3793570059 H        -5234.9087 eV
Extrapolated to 0K:               -192.3793570059 H        -5234.9087 eV
Total Mermin free energy:         -192.3793570059 H        -5234.9087 eV
Force related energy:             -192.3793570059 H        -5234.9087 eV

Volume:                              0.100844E+05 au^3   0.149436E+04 A^3
Pressure:                           -0.118763E-06 au    -0.349413E+07 Pa
>> Charges saved for restart in charges.bin

total energy  -1.9237936E+02 H       energy change -3.3442743E-07 H
gradient norm  4.7228611E-04 H/a0    max. gradient  1.1819317E-04 H/a0
step length    2.5883409E-03 a0      max. step      5.8560899E-04 a0

--------------------------------------------------------------------------------

***  Geometry step: 118

 iSCC Total electronic   Diff electronic      SCC error    
    1   -0.19435776E+03    0.00000000E+00    0.98106912E-04
    2   -0.19435776E+03    0.63465746E-05    0.49449387E-04
    3   -0.19435776E+03   -0.80813152E-08    0.15712793E-04
    4   -0.19435776E+03   -0.20287985E-08    0.12871335E-05
    5   -0.19435776E+03   -0.31491254E-10    0.47115452E-06
    6   -0.19435776E+03   -0.21032065E-11    0.49409917E-07
    7   -0.19435776E+03   -0.85265128E-13    0.71136759E-08

Total Energy:                     -192.3793574581 H        -5234.9087 eV
Extrapolated to 0K:               -192.3793574581 H        -5234.9087 eV
Total Mermin free energy:         -192.3793574581 H        -5234.9087 eV
Force related energy:             -192.3793574581 H        -5234.9087 eV

Volume:                              0.100843E+05 au^3   0.149434E+04 A^3
Pressure:                           -0.123100E-06 au    -0.362172E+07 Pa
>> Charges saved for restart in charges.bin

total energy  -1.9237936E+02 H       energy change -4.5214091E-07 H
gradient norm  4.7264338E-04 H/a0    max. gradient  9.6093645E-05 H/a0
step length    4.3489510E-03 a0      max. step      1.0357528E-03 a0

Geometry converged

--------------------------------------------------------------------------------
DFTB+ running times                          cpu [s]             wall clock [s]
--------------------------------------------------------------------------------
Pre-SCC initialisation                 +       4.30 (  0.2%)       2.03 (  0.9%)
SCC                                    +    1607.60 ( 92.1%)     210.67 ( 89.7%)
Post-SCC processing                    +     134.27 (  7.7%)      22.11 (  9.4%)
--------------------------------------------------------------------------------
Missing                                +       0.12 (  0.0%)       0.01 (  0.0%)
Total                                  =    1746.28 (100.0%)     234.82 (100.0%)
--------------------------------------------------------------------------------
